 171 171   0   0
  0.4145774E+02  0.1590000E-08  0.1590000E-08  0.3238000E-08  0.5000000E-15
  1.000000000000000E-004
  CAR 
 basalPlane                              
      2.24162604    -19.09496508  301      0.17000239      1.00000000
    -19.095  0.0000E+00  0.0000E+00
    -19.024  0.0000E+00  0.0000E+00
    -18.953  0.0000E+00  0.0000E+00
    -18.882  0.0000E+00  0.0000E+00
    -18.810  0.0000E+00  0.0000E+00
    -18.739  0.0000E+00  0.0000E+00
    -18.668  0.7805E-18  0.5551E-19
    -18.597  0.1735E-14  0.1235E-15
    -18.526  0.1531E-11  0.1090E-12
    -18.455  0.5025E-09  0.3585E-10
    -18.384  0.6175E-07  0.4427E-08
    -18.313  0.2866E-05  0.2083E-06
    -18.242  0.5083E-04  0.3823E-05
    -18.170  0.3486E-03  0.2862E-04
    -18.099  0.9356E-03  0.9516E-04
    -18.028  0.9896E-03  0.1655E-03
    -17.957  0.4145E-03  0.1950E-03
    -17.886  0.1034E-03  0.2024E-03
    -17.815  0.2861E-03  0.2227E-03
    -17.744  0.8620E-03  0.2840E-03
    -17.673  0.1038E-02  0.3579E-03
    -17.601  0.4934E-03  0.3930E-03
    -17.530  0.9197E-04  0.3995E-03
    -17.459  0.6652E-05  0.4000E-03
    -17.388  0.1844E-06  0.4000E-03
    -17.317  0.1936E-08  0.4000E-03
    -17.246  0.7625E-11  0.4000E-03
    -17.175  0.1119E-13  0.4000E-03
    -17.104  0.6244E-17  0.4000E-03
    -17.032  0.0000E+00  0.4000E-03
    -16.961  0.0000E+00  0.4000E-03
    -16.890  0.0000E+00  0.4000E-03
    -16.819  0.0000E+00  0.4000E-03
    -16.748  0.0000E+00  0.4000E-03
    -16.677  0.0000E+00  0.4000E-03
    -16.606  0.0000E+00  0.4000E-03
    -16.535  0.0000E+00  0.4000E-03
    -16.463  0.0000E+00  0.4000E-03
    -16.392  0.0000E+00  0.4000E-03
    -16.321  0.0000E+00  0.4000E-03
    -16.250  0.0000E+00  0.4000E-03
    -16.179  0.0000E+00  0.4000E-03
    -16.108  0.1873E-17  0.4000E-03
    -16.037  0.4445E-14  0.4000E-03
    -15.966  0.3788E-11  0.4000E-03
    -15.894  0.1201E-08  0.4000E-03
    -15.823  0.1427E-06  0.4000E-03
    -15.752  0.6411E-05  0.4005E-03
    -15.681  0.1101E-03  0.4083E-03
    -15.610  0.7314E-03  0.4603E-03
    -15.539  0.1903E-02  0.5956E-03
    -15.468  0.1951E-02  0.7344E-03
    -15.397  0.7893E-03  0.7905E-03
    -15.326  0.1252E-03  0.7994E-03
    -15.254  0.1559E-04  0.8006E-03
    -15.183  0.2083E-03  0.8154E-03
    -15.112  0.2109E-02  0.9654E-03
    -15.041  0.8337E-02  0.1558E-02
    -14.970  0.1298E-01  0.2481E-02
    -14.899  0.7983E-02  0.3049E-02
    -14.828  0.1933E-02  0.3187E-02
    -14.757  0.1824E-03  0.3200E-02
    -14.685  0.7087E-05  0.3200E-02
    -14.614  0.1570E-04  0.3201E-02
    -14.543  0.2054E-03  0.3216E-02
    -14.472  0.1050E-02  0.3290E-02
    -14.401  0.2146E-02  0.3443E-02
    -14.330  0.2473E-02  0.3619E-02
    -14.259  0.6699E-02  0.4095E-02
    -14.188  0.1934E-01  0.5471E-02
    -14.116  0.2501E-01  0.7250E-02
    -14.045  0.1537E-01  0.8343E-02
    -13.974  0.1132E-01  0.9147E-02
    -13.903  0.1352E-01  0.1011E-01
    -13.832  0.1059E-01  0.1086E-01
    -13.761  0.1224E-01  0.1173E-01
    -13.690  0.2009E-01  0.1316E-01
    -13.619  0.2668E-01  0.1506E-01
    -13.547  0.2882E-01  0.1711E-01
    -13.476  0.2383E-01  0.1880E-01
    -13.405  0.1850E-01  0.2012E-01
    -13.334  0.1130E-01  0.2092E-01
    -13.263  0.3434E-02  0.2117E-01
    -13.192  0.4300E-03  0.2120E-01
    -13.121  0.2107E-04  0.2120E-01
    -13.050  0.3954E-06  0.2120E-01
    -12.978  0.2806E-08  0.2120E-01
    -12.907  0.7456E-11  0.2120E-01
    -12.836  0.7375E-14  0.2120E-01
    -12.765  0.1873E-17  0.2120E-01
    -12.694  0.0000E+00  0.2120E-01
    -12.623  0.0000E+00  0.2120E-01
    -12.552  0.0000E+00  0.2120E-01
    -12.481  0.0000E+00  0.2120E-01
    -12.409  0.0000E+00  0.2120E-01
    -12.338  0.0000E+00  0.2120E-01
    -12.267  0.0000E+00  0.2120E-01
    -12.196  0.0000E+00  0.2120E-01
    -12.125  0.0000E+00  0.2120E-01
    -12.054  0.0000E+00  0.2120E-01
    -11.983  0.0000E+00  0.2120E-01
    -11.912  0.0000E+00  0.2120E-01
    -11.841  0.0000E+00  0.2120E-01
    -11.769  0.0000E+00  0.2120E-01
    -11.698  0.0000E+00  0.2120E-01
    -11.627  0.0000E+00  0.2120E-01
    -11.556  0.0000E+00  0.2120E-01
    -11.485  0.0000E+00  0.2120E-01
    -11.414  0.0000E+00  0.2120E-01
    -11.343  0.0000E+00  0.2120E-01
    -11.272  0.0000E+00  0.2120E-01
    -11.200  0.0000E+00  0.2120E-01
    -11.129  0.0000E+00  0.2120E-01
    -11.058  0.0000E+00  0.2120E-01
    -10.987  0.0000E+00  0.2120E-01
    -10.916  0.0000E+00  0.2120E-01
    -10.845  0.0000E+00  0.2120E-01
    -10.774  0.0000E+00  0.2120E-01
    -10.703  0.0000E+00  0.2120E-01
    -10.631  0.0000E+00  0.2120E-01
    -10.560  0.0000E+00  0.2120E-01
    -10.489  0.0000E+00  0.2120E-01
    -10.418  0.0000E+00  0.2120E-01
    -10.347  0.0000E+00  0.2120E-01
    -10.276  0.0000E+00  0.2120E-01
    -10.205  0.0000E+00  0.2120E-01
    -10.134  0.0000E+00  0.2120E-01
    -10.062  0.0000E+00  0.2120E-01
     -9.991  0.0000E+00  0.2120E-01
     -9.920  0.4043E-16  0.2120E-01
     -9.849  0.5884E-13  0.2120E-01
     -9.778  0.3197E-10  0.2120E-01
     -9.707  0.6535E-08  0.2120E-01
     -9.636  0.5095E-06  0.2120E-01
     -9.565  0.1545E-04  0.2120E-01
     -9.493  0.1873E-03  0.2121E-01
     -9.422  0.9415E-03  0.2128E-01
     -9.351  0.2113E-02  0.2143E-01
     -9.280  0.2654E-02  0.2162E-01
     -9.209  0.2776E-02  0.2182E-01
     -9.138  0.2470E-02  0.2199E-01
     -9.067  0.1737E-02  0.2212E-01
     -8.996  0.9270E-03  0.2218E-01
     -8.925  0.4915E-03  0.2222E-01
     -8.853  0.8466E-03  0.2228E-01
     -8.782  0.1058E-02  0.2235E-01
     -8.711  0.5383E-03  0.2239E-01
     -8.640  0.1076E-03  0.2240E-01
     -8.569  0.8347E-05  0.2240E-01
     -8.498  0.2485E-06  0.2240E-01
     -8.427  0.2804E-08  0.2240E-01
     -8.356  0.1188E-10  0.2240E-01
     -8.284  0.1876E-13  0.2240E-01
     -8.213  0.1093E-16  0.2240E-01
     -8.142  0.0000E+00  0.2240E-01
     -8.071  0.0000E+00  0.2240E-01
     -8.000  0.0000E+00  0.2240E-01
     -7.929  0.0000E+00  0.2240E-01
     -7.858  0.0000E+00  0.2240E-01
     -7.787  0.0000E+00  0.2240E-01
     -7.715  0.0000E+00  0.2240E-01
     -7.644  0.1249E-17  0.2240E-01
     -7.573  0.3019E-14  0.2240E-01
     -7.502  0.2716E-11  0.2240E-01
     -7.431  0.9122E-09  0.2240E-01
     -7.360  0.1159E-06  0.2240E-01
     -7.289  0.5722E-05  0.2240E-01
     -7.218  0.1164E-03  0.2241E-01
     -7.146  0.1083E-02  0.2249E-01
     -7.075  0.5101E-02  0.2285E-01
     -7.004  0.1217E-01  0.2371E-01
     -6.933  0.1340E-01  0.2467E-01
     -6.862  0.6540E-02  0.2513E-01
     -6.791  0.4047E-02  0.2542E-01
     -6.720  0.1199E-01  0.2627E-01
     -6.649  0.2348E-01  0.2794E-01
     -6.577  0.2769E-01  0.2991E-01
     -6.506  0.2803E-01  0.3191E-01
     -6.435  0.2446E-01  0.3364E-01
     -6.364  0.1275E-01  0.3455E-01
     -6.293  0.3208E-02  0.3478E-01
     -6.222  0.1151E-02  0.3486E-01
     -6.151  0.4967E-02  0.3521E-01
     -6.080  0.1233E-01  0.3609E-01
     -6.009  0.1250E-01  0.3698E-01
     -5.937  0.5376E-02  0.3736E-01
     -5.866  0.2112E-02  0.3751E-01
     -5.795  0.2713E-02  0.3771E-01
     -5.724  0.5511E-02  0.3810E-01
     -5.653  0.1259E-01  0.3899E-01
     -5.582  0.1611E-01  0.4014E-01
     -5.511  0.1577E-01  0.4126E-01
     -5.440  0.2178E-01  0.4281E-01
     -5.368  0.2272E-01  0.4443E-01
     -5.297  0.1525E-01  0.4551E-01
     -5.226  0.1464E-01  0.4655E-01
     -5.155  0.1602E-01  0.4769E-01
     -5.084  0.1215E-01  0.4855E-01
     -5.013  0.1345E-01  0.4951E-01
     -4.942  0.1626E-01  0.5067E-01
     -4.871  0.1513E-01  0.5174E-01
     -4.799  0.1545E-01  0.5284E-01
     -4.728  0.1549E-01  0.5394E-01
     -4.657  0.2204E-01  0.5551E-01
     -4.586  0.2582E-01  0.5735E-01
     -4.515  0.1853E-01  0.5867E-01
     -4.444  0.1515E-01  0.5974E-01
     -4.373  0.1143E-01  0.6056E-01
     -4.302  0.7765E-02  0.6111E-01
     -4.230  0.1170E-01  0.6194E-01
     -4.159  0.1197E-01  0.6279E-01
     -4.088  0.5690E-02  0.6320E-01
     -4.017  0.3651E-02  0.6346E-01
     -3.946  0.4395E-02  0.6377E-01
     -3.875  0.2997E-02  0.6398E-01
     -3.804  0.4036E-02  0.6427E-01
     -3.733  0.1278E-01  0.6518E-01
     -3.661  0.2378E-01  0.6687E-01
     -3.590  0.2811E-01  0.6887E-01
     -3.519  0.2679E-01  0.7077E-01
     -3.448  0.2893E-01  0.7283E-01
     -3.377  0.2990E-01  0.7496E-01
     -3.306  0.1624E-01  0.7611E-01
     -3.235  0.3691E-02  0.7638E-01
     -3.164  0.3360E-03  0.7640E-01
     -3.093  0.7783E-04  0.7640E-01
     -3.021  0.8378E-03  0.7646E-01
     -2.950  0.4816E-02  0.7681E-01
     -2.879  0.1364E-01  0.7778E-01
     -2.808  0.2128E-01  0.7929E-01
     -2.737  0.2175E-01  0.8084E-01
     -2.666  0.1598E-01  0.8197E-01
     -2.595  0.1183E-01  0.8282E-01
     -2.524  0.1550E-01  0.8392E-01
     -2.452  0.1877E-01  0.8525E-01
     -2.381  0.1886E-01  0.8660E-01
     -2.310  0.1775E-01  0.8786E-01
     -2.239  0.1580E-01  0.8898E-01
     -2.168  0.1222E-01  0.8985E-01
     -2.097  0.1406E-01  0.9085E-01
     -2.026  0.1409E-01  0.9185E-01
     -1.955  0.6553E-02  0.9232E-01
     -1.883  0.2760E-02  0.9252E-01
     -1.812  0.7513E-02  0.9305E-01
     -1.741  0.1418E-01  0.9406E-01
     -1.670  0.1135E-01  0.9487E-01
     -1.599  0.4004E-02  0.9515E-01
     -1.528  0.6505E-03  0.9520E-01
     -1.457  0.4897E-04  0.9520E-01
     -1.386  0.1628E-05  0.9520E-01
     -1.314  0.2234E-07  0.9520E-01
     -1.243  0.1202E-09  0.9520E-01
     -1.172  0.2461E-12  0.9520E-01
     -1.101  0.1876E-15  0.9520E-01
     -1.030  0.0000E+00  0.9520E-01
     -0.959  0.0000E+00  0.9520E-01
     -0.888  0.0000E+00  0.9520E-01
     -0.817  0.0000E+00  0.9520E-01
     -0.745  0.0000E+00  0.9520E-01
     -0.674  0.0000E+00  0.9520E-01
     -0.603  0.1405E-17  0.9520E-01
     -0.532  0.3210E-14  0.9520E-01
     -0.461  0.2603E-11  0.9520E-01
     -0.390  0.7856E-09  0.9520E-01
     -0.319  0.8884E-07  0.9520E-01
     -0.248  0.3798E-05  0.9520E-01
     -0.177  0.6211E-04  0.9520E-01
     -0.105  0.3935E-03  0.9523E-01
     -0.034  0.9862E-03  0.9530E-01
      0.037  0.1106E-02  0.9538E-01
      0.108  0.1213E-02  0.9547E-01
      0.179  0.2220E-02  0.9563E-01
      0.250  0.4327E-02  0.9593E-01
      0.321  0.1010E-01  0.9665E-01
      0.392  0.1652E-01  0.9783E-01
      0.464  0.2219E-01  0.9941E-01
      0.535  0.3000E-01  0.1015E+00
      0.606  0.2855E-01  0.1036E+00
      0.677  0.1798E-01  0.1048E+00
      0.748  0.7889E-02  0.1054E+00
      0.819  0.1023E-01  0.1061E+00
      0.890  0.2769E-01  0.1081E+00
      0.961  0.3856E-01  0.1108E+00
      1.033  0.3032E-01  0.1130E+00
      1.104  0.1960E-01  0.1144E+00
      1.175  0.1335E-01  0.1153E+00
      1.246  0.1196E-01  0.1162E+00
      1.317  0.8254E-02  0.1168E+00
      1.388  0.2635E-02  0.1170E+00
      1.459  0.3458E-03  0.1170E+00
      1.530  0.1806E-04  0.1170E+00
      1.602  0.3677E-06  0.1170E+00
      1.673  0.2868E-08  0.1170E+00
      1.744  0.8454E-11  0.1170E+00
      1.815  0.9325E-14  0.1170E+00
      1.886  0.3746E-17  0.1170E+00
      1.957  0.0000E+00  0.1170E+00
      2.028  0.0000E+00  0.1170E+00
      2.099  0.0000E+00  0.1170E+00
      2.171  0.0000E+00  0.1170E+00
      2.242  0.0000E+00  0.1170E+00
