 running on   52 total cores
 distrk:  each k-point on   52 cores,    1 groups
 distr:  one band on    4 cores,   13 groups
 using from now: INCAR     
 vasp.5.4.4.18Apr17-6-g9f103f2a35 (build Oct 28 2020 13:00:36) gamma-only       
  
 POSCAR found :  5 types and     171 ions
 scaLAPACK will be used
 LDA part: xc-table for Pade appr. of Perdew
 POSCAR, INCAR and KPOINTS ok, starting setup
 FFT: planning ...
 WAVECAR not read
 entering main loop
       N       E                     dE             d eps       ncg     rms          rms(c)
DAV:   1     0.762743716938E+04    0.76274E+04   -0.36424E+05  1209   0.112E+03
DAV:   2    -0.272875770140E+03   -0.79003E+04   -0.76559E+04  1612   0.267E+02
DAV:   3    -0.126250406180E+04   -0.98963E+03   -0.97530E+03  1378   0.101E+02
DAV:   4    -0.132110999600E+04   -0.58606E+02   -0.58271E+02  1794   0.296E+01
DAV:   5    -0.132315317084E+04   -0.20432E+01   -0.20317E+01  1807   0.473E+00    0.169E+02
DAV:   6    -0.127651371698E+04    0.46639E+02   -0.93759E+02  1560   0.270E+01    0.913E+01
DAV:   7    -0.129681034099E+04   -0.20297E+02   -0.12468E+03  1768   0.457E+01    0.548E+01
DAV:   8    -0.123269176904E+04    0.64119E+02   -0.62769E+01  1456   0.770E+00    0.308E+01
DAV:   9    -0.123898080604E+04   -0.62890E+01   -0.19779E+02  1703   0.961E+00    0.421E+01
DAV:  10    -0.122300640414E+04    0.15974E+02   -0.27411E+02  1781   0.216E+01    0.227E+01
DAV:  11    -0.122474870195E+04   -0.17423E+01   -0.27444E+01  1612   0.315E+00    0.157E+01
DAV:  12    -0.122462438365E+04    0.12432E+00   -0.92231E-01  1703   0.607E-01    0.156E+01
DAV:  13    -0.122494039244E+04   -0.31601E+00   -0.42368E+00  1482   0.684E-01    0.219E+01
DAV:  14    -0.122357917846E+04    0.13612E+01   -0.96171E+00  1690   0.193E+00    0.163E+01
DAV:  15    -0.122383093708E+04   -0.25176E+00   -0.13156E+00  1677   0.563E-01    0.162E+01
DAV:  16    -0.122434557766E+04   -0.51464E+00   -0.26026E+00  1768   0.605E-01    0.158E+01
DAV:  17    -0.122481689358E+04   -0.47132E+00   -0.15262E+00  1651   0.684E-01    0.146E+01
DAV:  18    -0.122543188734E+04   -0.61499E+00   -0.22567E+00  1638   0.427E-01    0.156E+01
DAV:  19    -0.122583720542E+04   -0.40532E+00   -0.25884E+00  1547   0.595E-01    0.145E+01
DAV:  20    -0.122526021802E+04    0.57699E+00   -0.66669E+00  1768   0.851E-01    0.132E+01
DAV:  21    -0.122510626706E+04    0.15395E+00   -0.48076E+00  1703   0.725E-01    0.117E+01
DAV:  22    -0.122504350145E+04    0.62766E-01   -0.60751E-01  1612   0.535E-01    0.119E+01
DAV:  23    -0.122464493062E+04    0.39857E+00   -0.30226E-01  1664   0.340E-01    0.108E+01
DAV:  24    -0.122448026230E+04    0.16467E+00   -0.14478E-01  1625   0.282E-01    0.986E+00
DAV:  25    -0.122444477519E+04    0.35487E-01   -0.21128E-02  1599   0.187E-01    0.977E+00
DAV:  26    -0.122434891690E+04    0.95858E-01   -0.42856E-02  1560   0.241E-01    0.975E+00
DAV:  27    -0.122423056820E+04    0.11835E+00   -0.37833E-02  1560   0.154E-01    0.971E+00
DAV:  28    -0.122427909786E+04   -0.48530E-01   -0.12771E-02  1430   0.121E-01    0.947E+00
DAV:  29    -0.122436731352E+04   -0.88216E-01   -0.51147E-02  1560   0.237E-01    0.922E+00
DAV:  30    -0.122437131208E+04   -0.39986E-02   -0.54492E-02  1547   0.253E-01    0.898E+00
DAV:  31    -0.122433088318E+04    0.40429E-01   -0.35608E-02  1547   0.197E-01    0.814E+00
DAV:  32    -0.122435321304E+04   -0.22330E-01   -0.26579E-02  1456   0.165E-01    0.885E+00
DAV:  33    -0.122438007939E+04   -0.26866E-01   -0.22063E-02  1521   0.936E-02    0.836E+00
DAV:  34    -0.122428421980E+04    0.95860E-01   -0.18149E-02  1352   0.726E-02    0.872E+00
DAV:  35    -0.122402350120E+04    0.26072E+00   -0.39025E-02  1482   0.144E-01    0.839E+00
DAV:  36    -0.122385868094E+04    0.16482E+00   -0.35628E-02  1508   0.154E-01    0.818E+00
DAV:  37    -0.122372169315E+04    0.13699E+00   -0.21008E-02  1508   0.117E-01    0.772E+00
DAV:  38    -0.122357564608E+04    0.14605E+00   -0.66724E-02  1534   0.196E-01    0.761E+00
DAV:  39    -0.122324715908E+04    0.32849E+00   -0.17746E+00  1482   0.304E-01    0.521E+00
DAV:  40    -0.122336002351E+04   -0.11286E+00   -0.28265E+00  1495   0.222E-01    0.610E+00
DAV:  41    -0.122338939164E+04   -0.29368E-01   -0.38164E+00  1469   0.340E-01    0.596E+00
DAV:  42    -0.122329119836E+04    0.98193E-01   -0.36519E-01  1573   0.169E-01    0.460E+00
DAV:  43    -0.122330124905E+04   -0.10051E-01   -0.49543E-02  1508   0.108E-01    0.550E+00
DAV:  44    -0.122326214773E+04    0.39101E-01   -0.18785E-02  1469   0.837E-02    0.434E+00
DAV:  45    -0.122321608778E+04    0.46060E-01   -0.44395E-02  1417   0.135E-01    0.355E+00
DAV:  46    -0.122321562618E+04    0.46161E-03   -0.29428E-02  1677   0.985E-02    0.362E+00
DAV:  47    -0.122318029815E+04    0.35328E-01   -0.14440E-01  1612   0.104E-01    0.294E+00
DAV:  48    -0.122314444850E+04    0.35850E-01   -0.81185E-02  1612   0.943E-02    0.307E+00
DAV:  49    -0.122308078761E+04    0.63661E-01   -0.15257E-01  1482   0.110E-01    0.250E+00
DAV:  50    -0.122302390531E+04    0.56882E-01   -0.21201E-02  1547   0.766E-02    0.246E+00
DAV:  51    -0.122300324151E+04    0.20664E-01   -0.60203E-03  1339   0.372E-02    0.249E+00
DAV:  52    -0.122300187335E+04    0.13682E-02   -0.18461E-03  1079   0.207E-02    0.244E+00
DAV:  53    -0.122299477149E+04    0.71019E-02   -0.22017E-03  1105   0.279E-02    0.239E+00
DAV:  54    -0.122296596544E+04    0.28806E-01   -0.11467E-02  1521   0.128E-01    0.204E+00
DAV:  55    -0.122294262933E+04    0.23336E-01   -0.11971E-02  1625   0.978E-02    0.175E+00
DAV:  56    -0.122283434149E+04    0.10829E+00   -0.27175E-01  1521   0.503E-01    0.315E+00
DAV:  57    -0.122291598004E+04   -0.81639E-01   -0.15164E-01  1495   0.349E-01    0.150E+00
DAV:  58    -0.122290999072E+04    0.59893E-02   -0.54117E-02  1456   0.896E-02    0.126E+00
DAV:  59    -0.122292179526E+04   -0.11805E-01   -0.91177E-03  1508   0.490E-02    0.149E+00
DAV:  60    -0.122291788089E+04    0.39144E-02   -0.59937E-03  1092   0.251E-02    0.131E+00
DAV:  61    -0.122291253915E+04    0.53417E-02   -0.14753E-03   936   0.209E-02    0.135E+00
DAV:  62    -0.122290441411E+04    0.81250E-02   -0.12243E-03  1118   0.257E-02    0.126E+00
DAV:  63    -0.122289362953E+04    0.10785E-01   -0.16086E-03  1248   0.349E-02    0.122E+00
DAV:  64    -0.122288077270E+04    0.12857E-01   -0.18901E-03  1404   0.446E-02    0.118E+00
DAV:  65    -0.122287289983E+04    0.78729E-02   -0.10948E-03  1183   0.285E-02    0.113E+00
DAV:  66    -0.122286823211E+04    0.46677E-02   -0.36607E-04   988   0.201E-02    0.111E+00
DAV:  67    -0.122286698577E+04    0.12463E-02   -0.18511E-04   845   0.125E-02    0.110E+00
DAV:  68    -0.122286602322E+04    0.96255E-03   -0.13027E-04   845   0.135E-02    0.110E+00
DAV:  69    -0.122286202559E+04    0.39976E-02   -0.24564E-04  1001   0.169E-02    0.107E+00
DAV:  70    -0.122285590068E+04    0.61249E-02   -0.51475E-04  1144   0.249E-02    0.104E+00
DAV:  71    -0.122284583623E+04    0.10064E-01   -0.13833E-03  1326   0.381E-02    0.101E+00
DAV:  72    -0.122284672098E+04   -0.88475E-03   -0.24080E-04   923   0.134E-02    0.101E+00
DAV:  73    -0.122284201176E+04    0.47092E-02   -0.35042E-04   897   0.210E-02    0.978E-01
DAV:  74    -0.122284017597E+04    0.18358E-02   -0.14827E-04   832   0.113E-02    0.968E-01
DAV:  75    -0.122283696378E+04    0.32122E-02   -0.32636E-04  1066   0.195E-02    0.939E-01
DAV:  76    -0.122331382880E+04   -0.47687E+00   -0.21547E+00  1547   0.343E-01    0.135E+01
DAV:  77    -0.122308821311E+04    0.22562E+00   -0.12629E+00  1534   0.767E-01    0.270E+00
DAV:  78    -0.122295281854E+04    0.13539E+00   -0.73231E-01  1404   0.276E-01    0.228E+00
DAV:  79    -0.122287897722E+04    0.73841E-01   -0.46071E-01  1456   0.206E-01    0.149E+00
DAV:  80    -0.122286696257E+04    0.12015E-01   -0.10140E-01  1417   0.766E-02    0.128E+00
DAV:  81    -0.122287431627E+04   -0.73537E-02   -0.63801E-02  1313   0.591E-02    0.108E+00
DAV:  82    -0.122287135100E+04    0.29653E-02   -0.34476E-03  1040   0.275E-02    0.116E+00
DAV:  83    -0.122287313436E+04   -0.17834E-02   -0.21522E-03   910   0.225E-02    0.102E+00
DAV:  84    -0.122287163124E+04    0.15031E-02   -0.10279E-03   793   0.149E-02    0.109E+00
DAV:  85    -0.122286966053E+04    0.19707E-02   -0.48279E-04   728   0.136E-02    0.100E+00
DAV:  86    -0.122287736545E+04   -0.77049E-02   -0.98259E-04  1079   0.321E-02    0.107E+00
DAV:  87    -0.122287565237E+04    0.17131E-02   -0.17281E-04   832   0.125E-02    0.104E+00
DAV:  88    -0.122287545428E+04    0.19809E-03   -0.89747E-05   689   0.911E-03    0.105E+00
DAV:  89    -0.122287533037E+04    0.12391E-03   -0.25128E-05   650   0.565E-03    0.104E+00
DAV:  90    -0.122287521641E+04    0.11396E-03   -0.10185E-05   624   0.322E-03    0.104E+00
DAV:  91    -0.122287625413E+04   -0.10377E-02   -0.18349E-05   637   0.532E-03    0.105E+00
DAV:  92    -0.122287630051E+04   -0.46380E-04   -0.11343E-05   637   0.315E-03
   1 F= -.12532600E+04 E0= -.12532044E+04  d E =-.125326E+04
 curvature:   0.00 expect dE= 0.000E+00 dE for cont linesearch  0.000E+00
 trial: gam= 0.00000 g(F)=  0.428E-02 g(S)=  0.000E+00 ort = 0.000E+00 (trialstep = 0.100E+01)
 search vector abs. value=  0.428E-02
 bond charge predicted
       N       E                     dE             d eps       ncg     rms          rms(c)
DAV:   1    -0.122287551625E+04    0.73787E-03   -0.53429E-01  1196   0.392E-01    0.108E+00
DAV:   2    -0.122354585386E+04   -0.67034E+00   -0.60650E+00  1820   0.737E-01    0.149E+01
DAV:   3    -0.122296235557E+04    0.58350E+00   -0.65726E-01  1729   0.507E-01    0.250E+00
DAV:   4    -0.122289406721E+04    0.68288E-01   -0.75044E-01  1625   0.145E-01    0.191E+00
DAV:   5    -0.122286923425E+04    0.24833E-01   -0.44663E-01  1469   0.982E-02    0.135E+00
DAV:   6    -0.122284663786E+04    0.22596E-01   -0.10973E-01  1430   0.818E-02    0.115E+00
DAV:   7    -0.122283451894E+04    0.12119E-01   -0.70092E-02  1456   0.692E-02    0.743E-01
DAV:   8    -0.122282624163E+04    0.82773E-02   -0.72261E-03  1339   0.425E-02    0.693E-01
DAV:   9    -0.122282026984E+04    0.59718E-02   -0.56661E-03  1482   0.511E-02    0.385E-01
DAV:  10    -0.122281783683E+04    0.24330E-02   -0.24277E-03  1170   0.293E-02    0.339E-01
DAV:  11    -0.122281657874E+04    0.12581E-02   -0.22085E-03  1079   0.234E-02    0.300E-01
DAV:  12    -0.122281577616E+04    0.80258E-03   -0.21524E-03  1287   0.404E-02    0.529E-01
DAV:  13    -0.122281517369E+04    0.60247E-03   -0.83182E-04  1105   0.193E-02    0.303E-01
DAV:  14    -0.122281604098E+04   -0.86729E-03   -0.91293E-04   910   0.142E-02    0.584E-01
DAV:  15    -0.122281532316E+04    0.71782E-03   -0.40208E-04   871   0.169E-02    0.306E-01
DAV:  16    -0.122281526131E+04    0.61854E-04   -0.85884E-04   884   0.182E-02
   2 F= -.12531999E+04 E0= -.12531303E+04  d E =0.601749E-01
 trial-energy change:    0.060175  1 .order    0.001294   -0.004282    0.006870
 step:   0.3840(harm=  0.3840)  dis= 0.00196  next Energy= -1253.260861 (dE=-0.822E-03)
 bond charge predicted
       N       E                     dE             d eps       ncg     rms          rms(c)
DAV:   1    -0.122281923385E+04   -0.39107E-02   -0.20311E-01  1183   0.229E-01    0.526E-01
DAV:   2    -0.122289750705E+04   -0.78273E-01   -0.31668E-01  1755   0.312E-01    0.207E+00
DAV:   3    -0.122282964840E+04    0.67859E-01   -0.18496E-01  1560   0.238E-01    0.102E+00
DAV:   4    -0.122282347432E+04    0.61741E-02   -0.99921E-03  1456   0.570E-02    0.824E-01
DAV:   5    -0.122282132950E+04    0.21448E-02   -0.85205E-03  1482   0.593E-02    0.728E-01
DAV:   6    -0.122281980447E+04    0.15250E-02   -0.13608E-03  1105   0.287E-02    0.294E-01
DAV:   7    -0.122281935827E+04    0.44620E-03   -0.10677E-03   858   0.237E-02    0.255E-01
DAV:   8    -0.122281908810E+04    0.27017E-03   -0.96050E-04   832   0.161E-02    0.130E-01
DAV:   9    -0.122281926652E+04   -0.17842E-03   -0.77878E-04   702   0.109E-02    0.303E-01
DAV:  10    -0.122281897552E+04    0.29100E-03   -0.57236E-04   728   0.891E-03    0.105E-01
DAV:  11    -0.122281895686E+04    0.18660E-04   -0.34642E-04   715   0.595E-03
   3 F= -.12532030E+04 E0= -.12531329E+04  d E =0.570150E-01
 curvature:  -0.19 expect dE=-0.660E-03 dE for cont linesearch -0.406E-03
 ZBRENT: interpolating
 opt :   0.2255  next Energy= -1253.203262 (dE= 0.568E-01)
 bond charge predicted
       N       E                     dE             d eps       ncg     rms          rms(c)
DAV:   1    -0.122281948807E+04   -0.51254E-03   -0.13539E-02  1079   0.605E-02    0.160E-01
DAV:   2    -0.122283095944E+04   -0.11471E-01   -0.25102E-02  1313   0.906E-02    0.105E+00
DAV:   3    -0.122281993124E+04    0.11028E-01   -0.21091E-02  1157   0.790E-02    0.212E-01
DAV:   4    -0.122281969861E+04    0.23264E-03   -0.80388E-04   845   0.150E-02    0.184E-01
DAV:   5    -0.122281958279E+04    0.11582E-03   -0.84110E-04   715   0.102E-02    0.165E-01
DAV:   6    -0.122281953346E+04    0.49331E-04   -0.66769E-04   741   0.115E-02
   4 F= -.12532035E+04 E0= -.12531330E+04  d E =0.565745E-01
 curvature:  -0.11 expect dE=-0.207E-03 dE for cont linesearch -0.125E-03
 ZBRENT: bisectioning
 opt :   0.1128  next Energy= -1253.203677 (dE= 0.564E-01)
 bond charge predicted
       N       E                     dE             d eps       ncg     rms          rms(c)
DAV:   1    -0.122281978135E+04   -0.19856E-03   -0.70553E-03  1014   0.446E-02    0.168E-01
DAV:   2    -0.122282645124E+04   -0.66699E-02   -0.12734E-02  1105   0.616E-02    0.957E-01
DAV:   3    -0.122282160036E+04    0.48509E-02   -0.17103E-02  1092   0.683E-02    0.627E-01
DAV:   4    -0.122282061142E+04    0.98894E-03   -0.15690E-03   923   0.222E-02    0.340E-01
DAV:   5    -0.122282005506E+04    0.55636E-03   -0.38614E-04   754   0.119E-02    0.196E-01
DAV:   6    -0.122281983855E+04    0.21651E-03   -0.31186E-04   754   0.116E-02    0.102E-01
DAV:   7    -0.122281982194E+04    0.16606E-04   -0.13398E-04   676   0.716E-03
   5 F= -.12532037E+04 E0= -.12531334E+04  d E =0.563825E-01
 curvature:  -0.19 expect dE=-0.149E-03 dE for cont linesearch -0.710E-04
 ZBRENT: bisectioning
 opt :   0.0564  next Energy= -1253.203715 (dE= 0.563E-01)
 bond charge predicted
       N       E                     dE             d eps       ncg     rms          rms(c)
DAV:   1    -0.122281982479E+04    0.13762E-04   -0.18268E-03   819   0.231E-02    0.602E-02
DAV:   2    -0.122282168352E+04   -0.18587E-02   -0.33765E-03   962   0.323E-02    0.544E-01
DAV:   3    -0.122281992598E+04    0.17575E-02   -0.30131E-03   936   0.305E-02    0.141E-01
DAV:   4    -0.122281981246E+04    0.11352E-03   -0.18933E-04   715   0.683E-03    0.545E-02
DAV:   5    -0.122281981602E+04   -0.35662E-05   -0.25389E-04   676   0.409E-03
   6 F= -.12532036E+04 E0= -.12531346E+04  d E =0.564365E-01
 curvature:  -0.16 expect dE=-0.836E-04 dE for cont linesearch -0.169E-04
 ZBRENT: bisectioning
 opt :   0.0282  next Energy= -1253.203618 (dE= 0.564E-01)
 bond charge predicted
       N       E                     dE             d eps       ncg     rms          rms(c)
DAV:   1    -0.122281985050E+04   -0.38044E-04   -0.57220E-04   819   0.124E-02    0.631E-02
DAV:   2    -0.122282240573E+04   -0.25552E-02   -0.44841E-03   975   0.367E-02    0.627E-01
DAV:   3    -0.122281998045E+04    0.24253E-02   -0.39381E-03   949   0.337E-02    0.127E-01
DAV:   4    -0.122281986934E+04    0.11112E-03   -0.32900E-04   754   0.726E-03    0.591E-02
DAV:   5    -0.122281985675E+04    0.12592E-04   -0.28837E-04   676   0.436E-03
   7 F= -.12532036E+04 E0= -.12531348E+04  d E =0.564198E-01
 curvature:  -0.14 expect dE=-0.699E-04 dE for cont linesearch -0.593E-05
 ZBRENT: bisectioning
 opt :   0.0141  next Energy= -1253.203624 (dE= 0.564E-01)
 bond charge predicted
       N       E                     dE             d eps       ncg     rms          rms(c)
DAV:   1    -0.122281986961E+04   -0.27542E-06   -0.25824E-04   806   0.788E-03    0.677E-02
DAV:   2    -0.122282267894E+04   -0.28093E-02   -0.47083E-03   962   0.385E-02    0.650E-01
DAV:   3    -0.122282001168E+04    0.26673E-02   -0.41769E-03   949   0.358E-02    0.141E-01
DAV:   4    -0.122281988925E+04    0.12242E-03   -0.23710E-04   754   0.836E-03    0.565E-02
DAV:   5    -0.122281988458E+04    0.46755E-05   -0.21332E-04   676   0.455E-03
   8 F= -.12532036E+04 E0= -.12531347E+04  d E =0.564039E-01
 curvature:  -0.12 expect dE=-0.590E-04 dE for cont linesearch -0.347E-05
 ZBRENT: bisectioning
 opt :   0.0070  next Energy= -1253.203638 (dE= 0.564E-01)
 bond charge predicted
       N       E                     dE             d eps       ncg     rms          rms(c)
DAV:   1    -0.122281987925E+04    0.10006E-04   -0.15042E-04   780   0.607E-03    0.610E-02
DAV:   2    -0.122282218518E+04   -0.23059E-02   -0.41041E-03   936   0.342E-02    0.603E-01
DAV:   3    -0.122282001445E+04    0.21707E-02   -0.37069E-03   923   0.324E-02    0.138E-01
DAV:   4    -0.122281989242E+04    0.12203E-03   -0.33576E-04   767   0.725E-03    0.511E-02
DAV:   5    -0.122281988739E+04    0.50236E-05   -0.31088E-04   676   0.419E-03
   9 F= -.12532036E+04 E0= -.12531346E+04  d E =0.564071E-01
 curvature:  -0.08 expect dE=-0.431E-04 dE for cont linesearch -0.192E-05
 ZBRENT: bisectioning
 opt :   0.0035  next Energy= -1253.203633 (dE= 0.564E-01)
 bond charge predicted
       N       E                     dE             d eps       ncg     rms          rms(c)
DAV:   1    -0.122281987736E+04    0.15053E-04   -0.14237E-04   689   0.459E-03    0.639E-02
DAV:   2    -0.122282221509E+04   -0.23377E-02   -0.38335E-03   949   0.343E-02    0.608E-01
DAV:   3    -0.122282003273E+04    0.21824E-02   -0.35799E-03   923   0.331E-02    0.155E-01
DAV:   4    -0.122281989878E+04    0.13394E-03   -0.23559E-04   767   0.833E-03    0.505E-02
DAV:   5    -0.122281989949E+04   -0.70465E-06   -0.21038E-04   676   0.436E-03
  10 F= -.12532036E+04 E0= -.12531344E+04  d E =0.563980E-01
 curvature:  -0.05 expect dE=-0.242E-04 dE for cont linesearch -0.137E-05
 ZBRENT: bisectioning
 opt :   0.0018  next Energy= -1253.203642 (dE= 0.564E-01)
 bond charge predicted
       N       E                     dE             d eps       ncg     rms          rms(c)
DAV:   1    -0.122281988856E+04    0.10224E-04   -0.10360E-04   676   0.457E-03    0.750E-02
DAV:   2    -0.122282296023E+04   -0.30717E-02   -0.54360E-03   949   0.396E-02    0.678E-01
DAV:   3    -0.122282010413E+04    0.28561E-02   -0.51841E-03   949   0.387E-02    0.177E-01
DAV:   4    -0.122281990954E+04    0.19459E-03   -0.41555E-04   767   0.899E-03    0.500E-02
DAV:   5    -0.122281991478E+04   -0.52397E-05   -0.36555E-04   676   0.479E-03
  11 F= -.12532037E+04 E0= -.12531342E+04  d E =0.563842E-01
 curvature:  -0.02 expect dE=-0.120E-04 dE for cont linesearch -0.741E-06
 ZBRENT: bisectioning
 opt :   0.0009  next Energy= -1253.203655 (dE= 0.564E-01)
 bond charge predicted
       N       E                     dE             d eps       ncg     rms          rms(c)
DAV:   1    -0.122281990548E+04    0.40528E-05   -0.15084E-04   689   0.489E-03    0.109E-01
DAV:   2    -0.122282543631E+04   -0.55308E-02   -0.98508E-03  1040   0.548E-02    0.842E-01
DAV:   3    -0.122282030203E+04    0.51343E-02   -0.97464E-03  1040   0.543E-02    0.239E-01
DAV:   4    -0.122281995149E+04    0.35054E-03   -0.48764E-04   819   0.129E-02    0.618E-02
DAV:   5    -0.122281997706E+04   -0.25567E-04   -0.27707E-04   676   0.560E-03
  12 F= -.12532037E+04 E0= -.12531335E+04  d E =0.563227E-01
 curvature:  -0.01 expect dE=-0.554E-05 dE for cont linesearch -0.703E-06
 ZBRENT: bisectioning
 opt :   0.0004  next Energy= -1253.203717 (dE= 0.563E-01)
 bond charge predicted
       N       E                     dE             d eps       ncg     rms          rms(c)
DAV:   1    -0.122282000185E+04   -0.50362E-04   -0.17233E-04   702   0.659E-03    0.185E-01
DAV:   2    -0.122283174821E+04   -0.11746E-01   -0.25068E-02  1183   0.854E-02    0.109E+00
DAV:   3    -0.122282089882E+04    0.10849E-01   -0.25927E-02  1118   0.858E-02    0.362E-01
DAV:   4    -0.122282010288E+04    0.79593E-03   -0.14544E-03   884   0.189E-02    0.974E-02
DAV:   5    -0.122282049115E+04   -0.38826E-03   -0.86424E-04   741   0.818E-03    0.399E-01
DAV:   6    -0.122281999244E+04    0.49871E-03   -0.52518E-04   715   0.768E-03    0.129E-01
DAV:   7    -0.122282034689E+04   -0.35445E-03   -0.97500E-04   676   0.511E-03    0.362E-01
DAV:   8    -0.122281992076E+04    0.42613E-03   -0.10745E-03   715   0.636E-03    0.766E-02
DAV:   9    -0.122282008470E+04   -0.16393E-03   -0.46771E-04   715   0.717E-03    0.244E-01
DAV:  10    -0.122281989631E+04    0.18839E-03   -0.26000E-04   676   0.446E-03    0.890E-02
DAV:  11    -0.122281995495E+04   -0.58640E-04   -0.93432E-05   676   0.372E-03
  13 F= -.12532037E+04 E0= -.12531337E+04  d E =0.563452E-01
 curvature:  -0.00 expect dE=-0.201E-05 dE for cont linesearch -0.219E-06
 ZBRENT: bisectioning
 opt :   0.0002  next Energy= -1253.203694 (dE= 0.563E-01)
 bond charge predicted
       N       E                     dE             d eps       ncg     rms          rms(c)
DAV:   1    -0.122281988279E+04    0.13522E-04   -0.46433E-05   650   0.218E-03    0.100E-01
DAV:   2    -0.122282136887E+04   -0.14861E-02   -0.27490E-03   923   0.262E-02    0.524E-01
DAV:   3    -0.122282089640E+04    0.47247E-03   -0.51318E-03   936   0.376E-02    0.514E-01
DAV:   4    -0.122282017748E+04    0.71891E-03   -0.88860E-04   845   0.165E-02    0.182E-01
DAV:   5    -0.122281998380E+04    0.19368E-03   -0.14713E-04   715   0.702E-03    0.121E-01
DAV:   6    -0.122281990454E+04    0.79265E-04   -0.53046E-05   676   0.493E-03
  14 F= -.12532036E+04 E0= -.12531355E+04  d E =0.563958E-01
 curvature:  -0.00 expect dE=-0.127E-05 dE for cont linesearch -0.106E-07
 ZBRENT: interpolating
 opt :   0.0001  next Energy= -1253.203643 (dE= 0.564E-01)
 bond charge predicted
       N       E                     dE             d eps       ncg     rms          rms(c)
DAV:   1    -0.122281990849E+04    0.75310E-04   -0.33012E-05   663   0.369E-03    0.727E-02
DAV:   2    -0.122282059581E+04   -0.68732E-03   -0.67311E-04   793   0.135E-02    0.387E-01
DAV:   3    -0.122282064695E+04   -0.51138E-04   -0.21537E-03   884   0.253E-02    0.436E-01
DAV:   4    -0.122282007655E+04    0.57041E-03   -0.66348E-04   780   0.136E-02    0.152E-01
DAV:   5    -0.122281993625E+04    0.14030E-03   -0.12075E-04   702   0.591E-03    0.852E-02
DAV:   6    -0.122281989710E+04    0.39145E-04   -0.62423E-05   676   0.406E-03
  15 F= -.12532036E+04 E0= -.12531352E+04  d E =0.564033E-01
 curvature:  -0.00 expect dE=-0.945E-06 dE for cont linesearch -0.185E-07
 ZBRENT: bisectioning
 opt :   0.0001  next Energy= -1253.203636 (dE= 0.564E-01)
 bond charge predicted
       N       E                     dE             d eps       ncg     rms          rms(c)
DAV:   1    -0.122281988722E+04    0.49026E-04   -0.39301E-05   676   0.285E-03    0.418E-02
DAV:   2    -0.122282016767E+04   -0.28045E-03   -0.34276E-04   767   0.836E-03    0.252E-01
DAV:   3    -0.122282010601E+04    0.61653E-04   -0.87373E-04   793   0.152E-02
  16 F= -.12532038E+04 E0= -.12531312E+04  d E =0.561944E-01
 curvature:  -0.00 expect dE=-0.135E-05 dE for cont linesearch -0.372E-06
 ZBRENT: bisectioning
 opt :   0.0000  next Energy= -1253.203845 (dE= 0.562E-01)
 bond charge predicted
       N       E                     dE             d eps       ncg     rms          rms(c)
DAV:   1    -0.122281993272E+04    0.23494E-03   -0.24631E-04   728   0.755E-03    0.935E-02
DAV:   2    -0.122282452840E+04   -0.45957E-02   -0.43380E-03  1001   0.348E-02    0.125E+00
DAV:   3    -0.122282124727E+04    0.32811E-02   -0.56242E-03   988   0.401E-02    0.342E-01
DAV:   4    -0.122282037703E+04    0.87024E-03   -0.75098E-04   858   0.153E-02    0.265E-01
DAV:   5    -0.122282002424E+04    0.35279E-03   -0.23724E-04   715   0.867E-03    0.923E-02
DAV:   6    -0.122282002005E+04    0.41869E-05   -0.12952E-04   702   0.696E-03
  17 F= -.12532038E+04 E0= -.12531341E+04  d E =0.562804E-01
 curvature:  -0.00 expect dE=-0.684E-07 dE for cont linesearch -0.507E-08
 ZBRENT: interpolating
 opt :   0.0000  next Energy= -1253.203759 (dE= 0.563E-01)
 bond charge predicted
       N       E                     dE             d eps       ncg     rms          rms(c)
DAV:   1    -0.122281990585E+04    0.11839E-03   -0.57505E-05   676   0.506E-03    0.380E-02
DAV:   2    -0.122282006937E+04   -0.16353E-03   -0.11024E-04   702   0.582E-03    0.185E-01
DAV:   3    -0.122281995119E+04    0.11818E-03   -0.22102E-04   728   0.864E-03    0.991E-02
DAV:   4    -0.122281990581E+04    0.45375E-04   -0.76211E-05   689   0.505E-03
  18 F= -.12532036E+04 E0= -.12531347E+04  d E =0.563947E-01
 curvature:  -0.00 expect dE=-0.462E-07 dE for cont linesearch -0.172E-08
 ZBRENT: bisectioning
 opt :   0.0000  next Energy= -1253.203644 (dE= 0.564E-01)
 bond charge predicted
       N       E                     dE             d eps       ncg     rms          rms(c)
DAV:   1    -0.122281987365E+04    0.77537E-04   -0.34282E-05   650   0.194E-03    0.223E-02
DAV:   2    -0.122282014792E+04   -0.27427E-03   -0.51116E-04   754   0.109E-02    0.232E-01
DAV:   3    -0.122281990755E+04    0.24037E-03   -0.49112E-04   754   0.117E-02    0.715E-02
DAV:   4    -0.122281987610E+04    0.31453E-04   -0.66144E-05   676   0.256E-03
  19 F= -.12532036E+04 E0= -.12531349E+04  d E =0.564244E-01
 curvature:  -0.00 expect dE=-0.728E-07 dE for cont linesearch -0.189E-08
 ZBRENT:  can not reach accuracy
 opt :   0.0000  next Energy=     0.000000 (dE= 0.125E+04)
 bond charge predicted
       N       E                     dE             d eps       ncg     rms          rms(c)
DAV:   1    -0.122281987887E+04    0.28683E-04   -0.82133E-05   624   0.153E-03    0.383E-02
DAV:   2    -0.122282009105E+04   -0.21219E-03   -0.51161E-04   754   0.816E-03    0.218E-01
DAV:   3    -0.122282005290E+04    0.38157E-04   -0.91005E-04   780   0.141E-02
  20 F= -.12532038E+04 E0= -.12531316E+04  d E =0.562476E-01
 curvature:   0.00 expect dE= 0.000E+00 dE for cont linesearch  0.000E+00
 ZBRENT:  accuracy reached
 opt :   0.0000  next Energy=     0.000000 (dE= 0.125E+04)
 bond charge predicted
       N       E                     dE             d eps       ncg     rms          rms(c)
DAV:   1    -0.122281990387E+04    0.18718E-03   -0.19168E-04   728   0.686E-03    0.653E-02
DAV:   2    -0.122282248860E+04   -0.25847E-02   -0.25554E-03   884   0.264E-02    0.904E-01
DAV:   3    -0.122282047479E+04    0.20138E-02   -0.31328E-03   923   0.300E-02    0.236E-01
DAV:   4    -0.122282014704E+04    0.32775E-03   -0.37764E-04   767   0.109E-02    0.200E-01
DAV:   5    -0.122281993936E+04    0.20768E-03   -0.11709E-04   702   0.654E-03    0.581E-02
DAV:   6    -0.122281995139E+04   -0.12034E-04   -0.64849E-05   676   0.515E-03
  21 F= -.12532037E+04 E0= -.12531342E+04  d E =0.563491E-01
 curvature:   0.00 expect dE= 0.000E+00 dE for cont linesearch  0.000E+00
 ZBRENT:  accuracy reached
 opt :   0.0000  next Energy=     0.000000 (dE= 0.125E+04)
 bond charge predicted
       N       E                     dE             d eps       ncg     rms          rms(c)
DAV:   1    -0.122281988096E+04    0.58396E-04   -0.30282E-05   676   0.365E-03    0.226E-02
DAV:   2    -0.122282003225E+04   -0.15129E-03   -0.21653E-04   741   0.761E-03    0.171E-01
DAV:   3    -0.122281992589E+04    0.10636E-03   -0.30332E-04   754   0.101E-02    0.933E-02
DAV:   4    -0.122281987558E+04    0.50308E-04   -0.43374E-05   676   0.325E-03
  22 F= -.12532036E+04 E0= -.12531349E+04  d E =0.564249E-01
 curvature:   0.00 expect dE= 0.000E+00 dE for cont linesearch  0.000E+00
 ZBRENT:  accuracy reached
 opt :   0.0000  next Energy=     0.000000 (dE= 0.125E+04)
 bond charge predicted
       N       E                     dE             d eps       ncg     rms          rms(c)
DAV:   1    -0.122281987448E+04    0.51406E-04   -0.34603E-05   637   0.132E-03    0.339E-02
DAV:   2    -0.122282028728E+04   -0.41280E-03   -0.73831E-04   780   0.128E-02    0.291E-01
DAV:   3    -0.122281994933E+04    0.33795E-03   -0.85791E-04   780   0.153E-02    0.127E-01
DAV:   4    -0.122281990134E+04    0.47986E-04   -0.71878E-05   676   0.403E-03
  23 F= -.12532036E+04 E0= -.12531353E+04  d E =0.563992E-01
 curvature:   0.00 expect dE= 0.000E+00 dE for cont linesearch  0.000E+00
 ZBRENT:  accuracy reached
 opt :   0.0000  next Energy=     0.000000 (dE= 0.125E+04)
 bond charge predicted
       N       E                     dE             d eps       ncg     rms          rms(c)
DAV:   1    -0.122281988929E+04    0.60043E-04   -0.31713E-05   676   0.261E-03    0.495E-02
DAV:   2    -0.122282007416E+04   -0.18487E-03   -0.11779E-04   715   0.498E-03    0.204E-01
DAV:   3    -0.122282022922E+04   -0.15506E-03   -0.70407E-04   780   0.139E-02    0.297E-01
DAV:   4    -0.122281995232E+04    0.27690E-03   -0.35897E-04   728   0.981E-03    0.103E-01
DAV:   5    -0.122281990639E+04    0.45926E-04   -0.66729E-05   702   0.408E-03
  24 F= -.12532036E+04 E0= -.12531342E+04  d E =0.563941E-01
 curvature:   0.00 expect dE= 0.000E+00 dE for cont linesearch  0.000E+00
 ZBRENT:  accuracy reached
 opt :   0.0000  next Energy=     0.000000 (dE= 0.125E+04)
 bond charge predicted
       N       E                     dE             d eps       ncg     rms          rms(c)
DAV:   1    -0.122281988773E+04    0.64588E-04   -0.28676E-05   676   0.296E-03    0.424E-02
DAV:   2    -0.122282006182E+04   -0.17409E-03   -0.13693E-04   702   0.482E-03    0.205E-01
DAV:   3    -0.122282013075E+04   -0.68933E-04   -0.60948E-04   780   0.129E-02
  25 F= -.12532039E+04 E0= -.12531388E+04  d E =0.561698E-01
 curvature:   0.00 expect dE= 0.000E+00 dE for cont linesearch  0.000E+00
 ZBRENT: interpolating
 opt :   0.0000  next Energy= -1253.203644 (dE= 0.564E-01)
 bond charge predicted
       N       E                     dE             d eps       ncg     rms          rms(c)
DAV:   1    -0.122281993049E+04    0.13133E-03   -0.28970E-04   728   0.869E-03    0.903E-02
DAV:   2    -0.122282231907E+04   -0.23886E-02   -0.28880E-03   949   0.287E-02    0.654E-01
DAV:   3    -0.122282060677E+04    0.17123E-02   -0.49582E-03   975   0.377E-02    0.370E-01
DAV:   4    -0.122282022102E+04    0.38575E-03   -0.70226E-04   767   0.130E-02    0.224E-01
DAV:   5    -0.122281996036E+04    0.26067E-03   -0.17566E-04   702   0.687E-03    0.911E-02
DAV:   6    -0.122281995325E+04    0.71081E-05   -0.85497E-05   676   0.500E-03
  26 F= -.12532037E+04 E0= -.12531360E+04  d E =0.563472E-01
 curvature:  -0.00 expect dE=-0.115E-07 dE for cont linesearch -0.264E-10
 trial: gam= 0.19338 g(F)=  0.743E-03 g(S)=  0.000E+00 ort =-0.855E-04 (trialstep = 0.800E+00)
 search vector abs. value=  0.870E-03
 bond charge predicted
       N       E                     dE             d eps       ncg     rms          rms(c)
DAV:   1    -0.122281971432E+04    0.24604E-03   -0.62089E-02  1170   0.152E-01    0.753E-02
DAV:   2    -0.122281994076E+04   -0.22644E-03   -0.19360E-03   988   0.279E-02    0.188E-01
DAV:   3    -0.122282023776E+04   -0.29700E-03   -0.13375E-03   897   0.197E-02    0.299E-01
DAV:   4    -0.122281983155E+04    0.40621E-03   -0.49560E-04   832   0.136E-02    0.820E-02
DAV:   5    -0.122281982330E+04    0.82427E-05   -0.11199E-04   689   0.493E-03
  27 F= -.12532035E+04 E0= -.12531355E+04  d E =0.164851E-03
 trial-energy change:    0.000165  1 .order    0.000020   -0.000581    0.000621
 step:   0.3866(harm=  0.3866)  dis= 0.00072  next Energy= -1253.203832 (dE=-0.140E-03)
 bond charge predicted
       N       E                     dE             d eps       ncg     rms          rms(c)
DAV:   1    -0.122281999056E+04   -0.15901E-03   -0.17080E-02  1131   0.787E-02    0.825E-02
DAV:   2    -0.122282068054E+04   -0.68998E-03   -0.11725E-03   949   0.211E-02    0.380E-01
DAV:   3    -0.122282079991E+04   -0.11937E-03   -0.23801E-03   936   0.299E-02    0.364E-01
DAV:   4    -0.122282001384E+04    0.78607E-03   -0.68508E-04   858   0.161E-02    0.380E-02
DAV:   5    -0.122282000476E+04    0.90838E-05   -0.59718E-05   676   0.477E-03
  28 F= -.12532037E+04 E0= -.12531360E+04  d E =-.344073E-04
 curvature:  -0.23 expect dE=-0.149E-03 dE for cont linesearch -0.559E-05
 ZBRENT: interpolating
 opt :   0.3223  next Energy= -1253.203731 (dE=-0.391E-04)
 bond charge predicted
       N       E                     dE             d eps       ncg     rms          rms(c)
DAV:   1    -0.122281998326E+04    0.30587E-04   -0.40208E-04   806   0.127E-02    0.221E-02
DAV:   2    -0.122282002510E+04   -0.41849E-04   -0.13937E-04   663   0.418E-03
  29 F= -.12532037E+04 E0= -.12531360E+04  d E =-.575687E-04
 curvature:  -0.19 expect dE=-0.991E-04 dE for cont linesearch -0.427E-06
 trial: gam= 0.40672 g(F)=  0.513E-03 g(S)=  0.000E+00 ort = 0.439E-04 (trialstep = 0.704E+00)
 search vector abs. value=  0.693E-03
 bond charge predicted
       N       E                     dE             d eps       ncg     rms          rms(c)
DAV:   1    -0.122282036256E+04   -0.37931E-03   -0.30120E-02  1157   0.110E-01    0.178E-01
DAV:   2    -0.122283632663E+04   -0.15964E-01   -0.37173E-02  1430   0.110E-01    0.114E+00
DAV:   3    -0.122282094152E+04    0.15385E-01   -0.26919E-02  1209   0.919E-02    0.292E-01
DAV:   4    -0.122282070545E+04    0.23607E-03   -0.91571E-04   936   0.176E-02    0.271E-01
DAV:   5    -0.122282045819E+04    0.24726E-03   -0.59612E-04   832   0.173E-02    0.180E-01
DAV:   6    -0.122282040298E+04    0.55211E-04   -0.23105E-04   728   0.120E-02
  30 F= -.12532040E+04 E0= -.12531373E+04  d E =-.300106E-03
 trial-energy change:   -0.000300  1 .order   -0.000226   -0.000374   -0.000077
 step:   0.8870(harm=  0.8870)  dis= 0.00197  next Energy= -1253.203985 (dE=-0.236E-03)
 bond charge predicted
       N       E                     dE             d eps       ncg     rms          rms(c)
DAV:   1    -0.122282033053E+04    0.12766E-03   -0.19924E-03  1144   0.297E-02    0.570E-02
DAV:   2    -0.122282112840E+04   -0.79787E-03   -0.87842E-04   884   0.168E-02    0.413E-01
DAV:   3    -0.122282062965E+04    0.49875E-03   -0.16744E-03   871   0.217E-02    0.257E-01
DAV:   4    -0.122282044657E+04    0.18309E-03   -0.35494E-04   728   0.949E-03    0.151E-01
DAV:   5    -0.122282033983E+04    0.10673E-03   -0.82260E-05   676   0.486E-03    0.679E-02
DAV:   6    -0.122282032931E+04    0.10518E-04   -0.39499E-05   676   0.425E-03
  31 F= -.12532040E+04 E0= -.12531356E+04  d E =-.206426E-03
 curvature:  -0.58 expect dE=-0.187E-03 dE for cont linesearch -0.221E-06
 trial: gam= 0.72218 g(F)=  0.323E-03 g(S)=  0.000E+00 ort = 0.163E-04 (trialstep = 0.726E+00)
 search vector abs. value=  0.708E-03
 bond charge predicted
       N       E                     dE             d eps       ncg     rms          rms(c)
DAV:   1    -0.122282059723E+04   -0.25740E-03   -0.37181E-02  1131   0.103E-01    0.106E-01
DAV:   2    -0.122282762404E+04   -0.70268E-02   -0.14105E-02  1144   0.707E-02    0.896E-01
DAV:   3    -0.122282084877E+04    0.67753E-02   -0.10087E-02  1079   0.565E-02    0.135E-01
DAV:   4    -0.122282077857E+04    0.70195E-04   -0.48525E-04   832   0.112E-02
  32 F= -.12532042E+04 E0= -.12531381E+04  d E =-.244921E-03
 trial-energy change:   -0.000245  1 .order   -0.000108   -0.000243    0.000026
 step:   0.6548(harm=  0.6548)  dis= 0.00127  next Energy= -1253.204065 (dE=-0.110E-03)
 bond charge predicted
       N       E                     dE             d eps       ncg     rms          rms(c)
DAV:   1    -0.122282062076E+04    0.22801E-03   -0.71306E-04   832   0.148E-02    0.736E-02
DAV:   2    -0.122282105463E+04   -0.43387E-03   -0.73004E-04   845   0.887E-03    0.312E-01
DAV:   3    -0.122282124777E+04   -0.19314E-03   -0.19127E-03   845   0.189E-02    0.401E-01
DAV:   4    -0.122282081983E+04    0.42794E-03   -0.10300E-03   780   0.149E-02    0.180E-01
DAV:   5    -0.122282065554E+04    0.16430E-03   -0.24013E-04   715   0.586E-03    0.874E-02
DAV:   6    -0.122282062089E+04    0.34647E-04   -0.79774E-05   689   0.524E-03
  33 F= -.12532041E+04 E0= -.12531359E+04  d E =-.107117E-03
 curvature:  -0.69 expect dE=-0.142E-03 dE for cont linesearch -0.287E-05
 ZBRENT: interpolating
 opt :   0.6973  next Energy= -1253.204201 (dE=-0.245E-03)
 bond charge predicted
       N       E                     dE             d eps       ncg     rms          rms(c)
DAV:   1    -0.122282061098E+04    0.44559E-04   -0.15362E-04   806   0.724E-03    0.444E-02
DAV:   2    -0.122282100598E+04   -0.39500E-03   -0.41199E-04   780   0.103E-02    0.297E-01
DAV:   3    -0.122282083681E+04    0.16917E-03   -0.96877E-04   793   0.166E-02    0.235E-01
DAV:   4    -0.122282066946E+04    0.16735E-03   -0.23183E-04   715   0.760E-03    0.105E-01
DAV:   5    -0.122282061665E+04    0.52815E-04   -0.50071E-05   676   0.343E-03
  34 F= -.12532040E+04 E0= -.12531348E+04  d E =-.909512E-04
 curvature:  -0.12 expect dE=-0.419E-04 dE for cont linesearch -0.568E-07
 trial: gam= 0.93701 g(F)=  0.339E-03 g(S)=  0.000E+00 ort =-0.180E-04 (trialstep = 0.550E+00)
 search vector abs. value=  0.926E-03
 bond charge predicted
       N       E                     dE             d eps       ncg     rms          rms(c)
DAV:   1    -0.122282088121E+04   -0.21174E-03   -0.26339E-02  1118   0.897E-02    0.884E-02
DAV:   2    -0.122282491399E+04   -0.40328E-02   -0.74578E-03  1053   0.550E-02    0.728E-01
DAV:   3    -0.122282102300E+04    0.38910E-02   -0.57289E-03  1040   0.440E-02    0.121E-01
DAV:   4    -0.122282095642E+04    0.66585E-04   -0.19309E-04   767   0.803E-03
  35 F= -.12532042E+04 E0= -.12531376E+04  d E =-.139151E-03
 trial-energy change:   -0.000139  1 .order   -0.000057   -0.000177    0.000063
 step:   0.4053(harm=  0.4053)  dis= 0.00095  next Energy= -1253.204112 (dE=-0.653E-04)
 bond charge predicted
       N       E                     dE             d eps       ncg     rms          rms(c)
DAV:   1    -0.122282083558E+04    0.18743E-03   -0.19715E-03   858   0.259E-02    0.720E-02
DAV:   2    -0.122282133884E+04   -0.50326E-03   -0.49046E-04   858   0.127E-02    0.332E-01
DAV:   3    -0.122282161091E+04   -0.27207E-03   -0.19917E-03   897   0.233E-02    0.452E-01
DAV:   4    -0.122282102607E+04    0.58484E-03   -0.81210E-04   819   0.151E-02    0.154E-01
DAV:   5    -0.122282088565E+04    0.14042E-03   -0.13941E-04   715   0.616E-03    0.907E-02
DAV:   6    -0.122282085397E+04    0.31683E-04   -0.49909E-05   676   0.439E-03
  36 F= -.12532041E+04 E0= -.12531361E+04  d E =-.893425E-04
 curvature:  -0.58 expect dE=-0.674E-04 dE for cont linesearch -0.225E-05
 trial: gam= 0.14076 g(F)=  0.116E-03 g(S)=  0.000E+00 ort = 0.599E-04 (trialstep = 0.521E+00)
 search vector abs. value=  0.151E-03
 reached required accuracy - stopping structural energy minimisation
