 vasp.5.4.4.18Apr17-6-g9f103f2a35 (build Oct 28 2020 13:00:36) gamma-only       
  
 executed on             LinuxIFC date 2020.12.03  21:33:07
 running on   52 total cores
 distrk:  each k-point on   52 cores,    1 groups
 distr:  one band on NCORES_PER_BAND=   4 cores,   13 groups


--------------------------------------------------------------------------------------------------------


 INCAR:
 POTCAR:    PAW_PBE C 08Apr2002                   
 POTCAR:    PAW_PBE Cr 06Sep2000                  
 POTCAR:    PAW_PBE H 15Jun2001                   
 POTCAR:    PAW_PBE Mo 08Apr2002                  
 POTCAR:    PAW_PBE S 06Sep2000                   
 POTCAR:    PAW_PBE C 08Apr2002                   
   VRHFIN =C: s2p2                                                              
   LEXCH  = PE                                                                  
   EATOM  =   147.1560 eV,   10.8157 Ry                                         
                                                                                
   TITEL  = PAW_PBE C 08Apr2002                                                 
   LULTRA =        F    use ultrasoft PP ?                                      
   IUNSCR =        1    unscreen: 0-lin 1-nonlin 2-no                           
   RPACOR =    1.200    partial core radius                                     
   POMASS =   12.011; ZVAL   =    4.000    mass and valenz                      
   RCORE  =    1.500    outmost cutoff radius                                   
   RWIGS  =    1.630; RWIGS  =    0.863    wigner-seitz radius (au A)           
   ENMAX  =  400.000; ENMIN  =  300.000 eV                                      
   ICORE  =        2    local potential                                         
   LCOR   =        T    correct aug charges                                     
   LPAW   =        T    paw PP                                                  
   EAUG   =  644.873                                                            
   DEXC   =    0.000                                                            
   RMAX   =    1.529    core radius for proj-oper                               
   RAUG   =    1.300    factor for augmentation sphere                          
   RDEP   =    1.501    radius for radial grids                                 
   RDEPT  =    1.300    core radius for aug-charge                              
                                                                                
   Atomic configuration                                                         
    4 entries                                                                   
     n  l   j            E        occ.                                          
     1  0  0.50      -273.3789   2.0000                                         
     2  0  0.50       -13.7508   2.0000                                         
     2  1  0.50        -5.2854   2.0000                                         
     3  2  1.50        -5.4423   0.0000                                         
   Description                                                                  
     l       E           TYP  RCUT    TYP  RCUT                                 
     0    -13.7508458     23  1.200                                             
     0     -8.2022199     23  1.200                                             
     1     -5.2854383     23  1.500                                             
     1     34.0145650     23  1.500                                             
     2     -5.4423304      7  1.500                                             
  local pseudopotential read in
  partial core-charges read in
  partial kinetic energy density read in
  atomic valenz-charges read in
  non local Contribution for L=           0  read in
    real space projection operators read in
  non local Contribution for L=           0  read in
    real space projection operators read in
  non local Contribution for L=           1  read in
    real space projection operators read in
  non local Contribution for L=           1  read in
    real space projection operators read in
    PAW grid and wavefunctions read in
 
   number of l-projection  operators is LMAX  =           4
   number of lm-projection operators is LMMAX =           8
 
 POTCAR:    PAW_PBE Cr 06Sep2000                  
   VRHFIN =Cr : d5 s1                                                           
   LEXCH  = PE                                                                  
   EATOM  =   276.8859 eV,   20.3505 Ry                                         
                                                                                
   TITEL  = PAW_PBE Cr 06Sep2000                                                
   LULTRA =        F    use ultrasoft PP ?                                      
   IUNSCR =        1    unscreen: 0-lin 1-nonlin 2-no                           
   RPACOR =    2.080    partial core radius                                     
   POMASS =   51.996; ZVAL   =    6.000    mass and valenz                      
   RCORE  =    2.500    outmost cutoff radius                                   
   RWIGS  =    2.500; RWIGS  =    1.323    wigner-seitz radius (au A)           
   ENMAX  =  227.080; ENMIN  =  170.310 eV                                      
   RCLOC  =    1.721    cutoff for local pot                                    
   LCOR   =        T    correct aug charges                                     
   LPAW   =        T    paw PP                                                  
   EAUG   =  402.108                                                            
   DEXC   =    0.000                                                            
   RMAX   =    2.552    core radius for proj-oper                               
   RAUG   =    1.300    factor for augmentation sphere                          
   RDEP   =    2.609    radius for radial grids                                 
   RDEPT  =    2.065    core radius for aug-charge                              
                                                                                
   Atomic configuration                                                         
    9 entries                                                                   
     n  l   j            E        occ.                                          
     1  0  0.50     -5880.4963   2.0000                                         
     2  0  0.50      -667.0865   2.0000                                         
     2  1  1.50      -560.6250   6.0000                                         
     3  0  0.50       -73.9860   2.0000                                         
     3  1  1.50       -45.4378   6.0000                                         
     3  2  2.50        -2.9137   5.0000                                         
     4  0  0.50        -4.0071   1.0000                                         
     4  1  0.50        -1.2789   0.0000                                         
     4  3  2.50        -1.3606   0.0000                                         
   Description                                                                  
     l       E           TYP  RCUT    TYP  RCUT                                 
     2     -2.9136677     23  2.500                                             
     2     -4.2742503     23  2.500                                             
     0     -4.0071322     23  2.500                                             
     0      9.4498801     23  2.500                                             
     1     -5.4423304     23  2.500                                             
     1     27.2116520     23  2.500                                             
  local pseudopotential read in
  partial core-charges read in
  partial kinetic energy density read in
  atomic valenz-charges read in
  non local Contribution for L=           2  read in
    real space projection operators read in
  non local Contribution for L=           2  read in
    real space projection operators read in
  non local Contribution for L=           0  read in
    real space projection operators read in
  non local Contribution for L=           0  read in
    real space projection operators read in
  non local Contribution for L=           1  read in
    real space projection operators read in
  non local Contribution for L=           1  read in
    real space projection operators read in
    PAW grid and wavefunctions read in
 
   number of l-projection  operators is LMAX  =           6
   number of lm-projection operators is LMMAX =          18
 
 POTCAR:    PAW_PBE H 15Jun2001                   
   VRHFIN =H: ultrasoft test                                                    
   LEXCH  = PE                                                                  
   EATOM  =    12.4884 eV,    0.9179 Ry                                         
                                                                                
   TITEL  = PAW_PBE H 15Jun2001                                                 
   LULTRA =        F    use ultrasoft PP ?                                      
   IUNSCR =        0    unscreen: 0-lin 1-nonlin 2-no                           
   RPACOR =    0.000    partial core radius                                     
   POMASS =    1.000; ZVAL   =    1.000    mass and valenz                      
   RCORE  =    1.100    outmost cutoff radius                                   
   RWIGS  =    0.700; RWIGS  =    0.370    wigner-seitz radius (au A)           
   ENMAX  =  250.000; ENMIN  =  200.000 eV                                      
   RCLOC  =    0.701    cutoff for local pot                                    
   LCOR   =        T    correct aug charges                                     
   LPAW   =        T    paw PP                                                  
   EAUG   =  400.000                                                            
   RMAX   =    1.123    core radius for proj-oper                               
   RAUG   =    1.200    factor for augmentation sphere                          
   RDEP   =    1.112    radius for radial grids                                 
   RDEPT  =    0.926    core radius for aug-charge                              
                                                                                
   Atomic configuration                                                         
    2 entries                                                                   
     n  l   j            E        occ.                                          
     1  0  0.50        -6.4927   1.0000                                         
     2  1  0.50        -3.4015   0.0000                                         
   Description                                                                  
     l       E           TYP  RCUT    TYP  RCUT                                 
     0     -6.4927494     23  1.100                                             
     0      6.8029130     23  1.100                                             
     1     -4.0817478     23  1.100                                             
  local pseudopotential read in
  atomic valenz-charges read in
  non local Contribution for L=           0  read in
    real space projection operators read in
  non local Contribution for L=           0  read in
    real space projection operators read in
  non local Contribution for L=           1  read in
    real space projection operators read in
    PAW grid and wavefunctions read in
 
   number of l-projection  operators is LMAX  =           3
   number of lm-projection operators is LMMAX =           5
 
 POTCAR:    PAW_PBE Mo 08Apr2002                  
   VRHFIN =Mo: 4p5s4d                                                           
   LEXCH  = PE                                                                  
   EATOM  =   217.5176 eV,   15.9871 Ry                                         
                                                                                
   TITEL  = PAW_PBE Mo 08Apr2002                                                
   LULTRA =        F    use ultrasoft PP ?                                      
   IUNSCR =        1    unscreen: 0-lin 1-nonlin 2-no                           
   RPACOR =    2.200    partial core radius                                     
   POMASS =   95.940; ZVAL   =    6.000    mass and valenz                      
   RCORE  =    2.750    outmost cutoff radius                                   
   RWIGS  =    2.750; RWIGS  =    1.455    wigner-seitz radius (au A)           
   ENMAX  =  224.584; ENMIN  =  168.438 eV                                      
   RCLOC  =    2.111    cutoff for local pot                                    
   LCOR   =        T    correct aug charges                                     
   LPAW   =        T    paw PP                                                  
   EAUG   =  345.278                                                            
   DEXC   =    0.000                                                            
   RMAX   =    2.821    core radius for proj-oper                               
   RAUG   =    1.300    factor for augmentation sphere                          
   RDEP   =    2.815    radius for radial grids                                 
   RDEPT  =    2.211    core radius for aug-charge                              
                                                                                
   Atomic configuration                                                         
   12 entries                                                                   
     n  l   j            E        occ.                                          
     1  0  0.50    -19819.0341   2.0000                                         
     2  0  0.50     -2799.0127   2.0000                                         
     2  1  1.50     -2502.0276   6.0000                                         
     3  0  0.50      -476.4448   2.0000                                         
     3  1  1.50      -379.1496   6.0000                                         
     3  2  2.50      -220.9367  10.0000                                         
     4  0  0.50       -64.3378   2.0000                                         
     4  1  1.50       -38.4773   6.0000                                         
     4  2  2.50        -3.7535   5.0000                                         
     5  0  0.50        -4.0862   1.0000                                         
     5  1  0.50        -2.7701   0.0000                                         
     4  3  2.50        -1.3606   0.0000                                         
   Description                                                                  
     l       E           TYP  RCUT    TYP  RCUT                                 
     2     -3.7534765     23  2.500                                             
     2     -5.1140591     23  2.500                                             
     0     -4.0861560     23  2.600                                             
     0     13.6058260     23  2.600                                             
     1      5.4423304     23  2.750                                             
     1     27.2116520     23  2.750                                             
  local pseudopotential read in
  partial core-charges read in
  partial kinetic energy density read in
  atomic valenz-charges read in
  non local Contribution for L=           2  read in
    real space projection operators read in
  non local Contribution for L=           2  read in
    real space projection operators read in
  non local Contribution for L=           0  read in
    real space projection operators read in
  non local Contribution for L=           0  read in
    real space projection operators read in
  non local Contribution for L=           1  read in
    real space projection operators read in
  non local Contribution for L=           1  read in
    real space projection operators read in
    PAW grid and wavefunctions read in
 
   number of l-projection  operators is LMAX  =           6
   number of lm-projection operators is LMMAX =          18
 
 POTCAR:    PAW_PBE S 06Sep2000                   
   VRHFIN =S : s2p4                                                             
   LEXCH  = PE                                                                  
   EATOM  =   276.8230 eV,   20.3459 Ry                                         
                                                                                
   TITEL  = PAW_PBE S 06Sep2000                                                 
   LULTRA =        F    use ultrasoft PP ?                                      
   IUNSCR =        1    unscreen: 0-lin 1-nonlin 2-no                           
   RPACOR =    1.500    partial core radius                                     
   POMASS =   32.066; ZVAL   =    6.000    mass and valenz                      
   RCORE  =    1.900    outmost cutoff radius                                   
   RWIGS  =    2.200; RWIGS  =    1.164    wigner-seitz radius (au A)           
   ENMAX  =  258.689; ENMIN  =  194.016 eV                                      
   ICORE  =        2    local potential                                         
   LCOR   =        T    correct aug charges                                     
   LPAW   =        T    paw PP                                                  
   EAUG   =  335.092                                                            
   DEXC   =    0.000                                                            
   RMAX   =    1.942    core radius for proj-oper                               
   RAUG   =    1.300    factor for augmentation sphere                          
   RDEP   =    1.954    radius for radial grids                                 
   RDEPT  =    1.744    core radius for aug-charge                              
                                                                                
   Atomic configuration                                                         
    6 entries                                                                   
     n  l   j            E        occ.                                          
     1  0  0.50     -2405.8406   2.0000                                         
     2  0  0.50      -211.7007   2.0000                                         
     2  1  1.50      -156.4958   6.0000                                         
     3  0  0.50       -17.2562   2.0000                                         
     3  1  0.50        -7.0085   4.0000                                         
     3  2  1.50        -6.8029   0.0000                                         
   Description                                                                  
     l       E           TYP  RCUT    TYP  RCUT                                 
     0    -17.2561641     23  1.900                                             
     0    -15.8743224     23  1.900                                             
     1     -7.0085400     23  1.900                                             
     1     -2.7779785     23  1.900                                             
     2     -6.8029130     23  1.900                                             
  local pseudopotential read in
  partial core-charges read in
  partial kinetic energy density read in
  atomic valenz-charges read in
  non local Contribution for L=           0  read in
    real space projection operators read in
  non local Contribution for L=           0  read in
    real space projection operators read in
  non local Contribution for L=           1  read in
    real space projection operators read in
  non local Contribution for L=           1  read in
    real space projection operators read in
    PAW grid and wavefunctions read in
 
   number of l-projection  operators is LMAX  =           4
   number of lm-projection operators is LMMAX =           8
 
 Optimization of the real space projectors (new method)

 maximal supplied QI-value         = 25.13
 optimisation between [QCUT,QGAM] = [ 10.05, 20.36] = [ 28.30,116.06] Ry 
 Optimized for a Real-space Cutoff    1.51 Angstroem

   l    n(q)    QCUT    max X(q) W(low)/X(q) W(high)/X(q)  e(spline) 
   0      9    10.053   115.676    0.19E-03    0.21E-03    0.38E-06
   0      9    10.053    87.132    0.19E-03    0.21E-03    0.38E-06
   1      9    10.053     4.429    0.87E-04    0.11E-03    0.39E-06
   1      9    10.053     2.733    0.59E-04    0.62E-04    0.43E-06
 Optimization of the real space projectors (new method)

 maximal supplied QI-value         = 15.12
 optimisation between [QCUT,QGAM] = [ 10.13, 20.41] = [ 28.73,116.64] Ry 
 Optimized for a Real-space Cutoff    1.55 Angstroem

   l    n(q)    QCUT    max X(q) W(low)/X(q) W(high)/X(q)  e(spline) 
   2      9    10.129    94.395    0.23E-03    0.29E-03    0.30E-06
   2      9    10.129    88.078    0.23E-03    0.29E-03    0.30E-06
   0      9    10.129    50.173    0.57E-04    0.58E-04    0.11E-06
   0      9    10.129    24.906    0.50E-04    0.51E-04    0.96E-07
   1      9    10.129    12.133    0.24E-03    0.21E-04    0.16E-06
   1      9    10.129     7.290    0.17E-03    0.12E-04    0.12E-06
 Optimization of the real space projectors (new method)

 maximal supplied QI-value         = 34.20
 optimisation between [QCUT,QGAM] = [  9.92, 20.18] = [ 27.55,114.04] Ry 
 Optimized for a Real-space Cutoff    1.34 Angstroem

   l    n(q)    QCUT    max X(q) W(low)/X(q) W(high)/X(q)  e(spline) 
   0      8     9.919    19.460    0.16E-03    0.20E-03    0.36E-06
   0      8     9.919    12.209    0.16E-03    0.20E-03    0.35E-06
   1      8     9.919     4.655    0.19E-03    0.46E-03    0.40E-06
 Optimization of the real space projectors (new method)

 maximal supplied QI-value         = 13.61
 optimisation between [QCUT,QGAM] = [ 10.20, 20.41] = [ 29.16,116.64] Ry 
 Optimized for a Real-space Cutoff    1.65 Angstroem

   l    n(q)    QCUT    max X(q) W(low)/X(q) W(high)/X(q)  e(spline) 
   2      9    10.205    80.908    0.21E-03    0.30E-03    0.60E-06
   2      9    10.205    79.000    0.21E-03    0.30E-03    0.60E-06
   0     10    10.205    52.066    0.39E-04    0.38E-04    0.19E-06
   0     10    10.205    24.514    0.33E-04    0.32E-04    0.16E-06
   1     10    10.205    16.033    0.64E-04    0.17E-03    0.19E-06
   1     10    10.205    11.179    0.49E-04    0.13E-03    0.15E-06
 Optimization of the real space projectors (new method)

 maximal supplied QI-value         = 19.84
 optimisation between [QCUT,QGAM] = [ 10.12, 20.44] = [ 28.68,116.96] Ry 
 Optimized for a Real-space Cutoff    1.42 Angstroem

   l    n(q)    QCUT    max X(q) W(low)/X(q) W(high)/X(q)  e(spline) 
   0      9    10.119   187.594    0.52E-04    0.93E-04    0.64E-07
   0      9    10.119   164.243    0.51E-04    0.92E-04    0.63E-07
   1      8    10.119    67.533    0.16E-03    0.17E-03    0.23E-06
   1      8    10.119    50.729    0.16E-03    0.16E-03    0.23E-06
  PAW_PBE C 08Apr2002                   :
 energy of atom  1       EATOM= -147.1560
 kinetic energy error for atom=    0.0288 (will be added to EATOM!!)
  PAW_PBE Cr 06Sep2000                  :
 energy of atom  2       EATOM= -276.8859
 kinetic energy error for atom=    0.0018 (will be added to EATOM!!)
  PAW_PBE H 15Jun2001                   :
 energy of atom  3       EATOM=  -12.4884
 kinetic energy error for atom=    0.0098 (will be added to EATOM!!)
  PAW_PBE Mo 08Apr2002                  :
 energy of atom  4       EATOM= -217.5176
 kinetic energy error for atom=    0.0025 (will be added to EATOM!!)
  PAW_PBE S 06Sep2000                   :
 energy of atom  5       EATOM= -276.8230
 kinetic energy error for atom=    0.0046 (will be added to EATOM!!)
 
 
 POSCAR:  C Cr  H Mo  S                          
  positions in cartesian coordinates
  No initial velocities read in
 exchange correlation table for  LEXCH =        8
   RHO(1)=    0.500       N(1)  =     2000
   RHO(2)=  100.500       N(2)  =     4000
 


--------------------------------------------------------------------------------------------------------


 ion  position               nearest neighbor table
   1  0.481  0.351  0.386-  18 1.09   2 1.42   3 1.43  11 2.20
   2  0.419  0.280  0.415-  17 1.09   1 1.42   5 1.43  11 2.18
   3  0.569  0.418  0.406-  19 1.09   1 1.43   4 1.44  11 2.15
   4  0.562  0.389  0.449-  20 1.09   3 1.44   5 1.44  11 2.09
   5  0.468  0.303  0.454-  12 1.09   2 1.43   4 1.44  11 2.11
   6  0.331  0.443  0.435-  14 1.09  10 1.44   8 1.44  11 2.11
   7  0.445  0.507  0.488-  15 1.09   9 1.43   8 1.44  11 2.15
   8  0.351  0.428  0.477-  13 1.09   7 1.44   6 1.44  11 2.10
   9  0.482  0.570  0.453-  16 1.09  10 1.42   7 1.43  11 2.20
  10  0.413  0.531  0.421-  21 1.09   9 1.42   6 1.44  11 2.18
  11  0.453  0.423  0.438-   4 2.09   8 2.10   5 2.11   6 2.11   3 2.15   7 2.15  10 2.18   2 2.18
                             1 2.20   9 2.20
  12  0.439  0.262  0.483-   5 1.09
  13  0.302  0.369  0.498-   8 1.09
  14  0.265  0.397  0.418-   6 1.09
  15  0.482  0.517  0.517-   7 1.09
  16  0.554  0.635  0.451-   9 1.09
  17  0.346  0.222  0.409-   2 1.09
  18  0.463  0.355  0.354-   1 1.09
  19  0.631  0.481  0.392-   3 1.09
  20  0.618  0.423  0.472-   4 1.09
  21  0.422  0.562  0.390-  10 1.09
  22  0.600  0.600  0.657-  97 2.43 148 2.43 144 2.43  98 2.43 149 2.43 145 2.43  56 3.18  27 3.18
                            61 3.18  44 3.18  38 3.18  47 3.18
  23  0.200  0.800  0.219- 126 2.43 162 2.43 121 2.43 139 2.43 163 2.43 122 2.43  26 3.18  49 3.18
                            51 3.18  64 3.18  54 3.18  70 3.18
  24  0.200  0.600  0.657- 164 2.43 127 2.43 123 2.43 128 2.43 165 2.43 124 2.43  46 3.18  33 3.18
                            47 3.18  63 3.18  34 3.18  66 3.18
  25  0.600  0.800  0.219-  92 2.43 146 2.43 112 2.43  94 2.43 147 2.43 143 2.43  35 3.18  58 3.18
                            29 3.18  36 3.18  50 3.18  49 3.18
  26  0.200  0.600  0.219- 166 2.43 129 2.43 126 2.43 130 2.43 167 2.43 139 2.43  49 3.18  36 3.18
                            23 3.18  62 3.18  28 3.18  64 3.18
  27  0.600  0.800  0.657-  96 2.43 144 2.43 110 2.43  93 2.43 145 2.43 170 2.43  22 3.18  56 3.18
                            31 3.18  47 3.18  48 3.18  46 3.18
  28  0.200  0.400  0.219- 133 2.43 142 2.43 129 2.43 141 2.43 134 2.43 130 2.43  32 3.18  42 3.18
                            36 3.18  59 3.18  26 3.18  62 3.18
  29  0.800  0.000  0.219-  72 2.43  84 2.43  92 2.43  94 2.43 108 2.43  86 2.43  50 3.18  25 3.18
                            59 3.18  58 3.18  52 3.18  55 3.18
  30  0.200  0.200  0.657- 140 2.43 135 2.43 131 2.43 136 2.43 125 2.43 132 2.43  44 3.18  41 3.18
                            34 3.18  57 3.18  53 3.18  60 3.18
  31  0.800  0.000  0.657-  80 2.43  85 2.43  96 2.43  93 2.43  82 2.43  81 2.43  48 3.18  27 3.18
                            60 3.18  56 3.18  71 3.18  57 3.18
  32  0.200  0.200  0.219- 113 2.43 137 2.43 133 2.43 114 2.43 138 2.43 134 2.43  42 3.18  39 3.18
                            28 3.18  55 3.18  54 3.18  59 3.18
  33  0.200  0.800  0.657- 123 2.43 160 2.43 119 2.43 124 2.43 161 2.43 120 2.43  24 3.18  46 3.18
                            37 3.18  66 3.18  53 3.18  69 3.18
  34  0.200  0.400  0.657- 131 2.43 168 2.43 127 2.43 132 2.43 169 2.43 128 2.43  30 3.18  44 3.18
                            47 3.18  60 3.18  24 3.18  63 3.18
  35  0.600  0.600  0.219- 100 2.43 150 2.43 146 2.43 102 2.43 151 2.43 147 2.43  58 3.18  25 3.18
                            67 3.18  42 3.18  40 3.18  36 3.18
  36  0.400  0.600  0.219- 166 2.43 146 2.43 142 2.43 167 2.43 141 2.43 147 2.43  26 3.18  49 3.18
                            28 3.18  25 3.18  42 3.18  35 3.18
  37  0.400  0.000  0.657- 115 2.43 156 2.43 160 2.43 111 2.43 161 2.43 116 2.43  53 3.18  33 3.18
                            43 3.18  46 3.18  41 3.18  48 3.18
  38  0.600  0.400  0.657- 105 2.43 152 2.43 148 2.43 106 2.43 153 2.43 149 2.43  43 3.18  65 3.18
                            61 3.18  41 3.18  22 3.18  44 3.18
  39  0.400  0.200  0.219- 113 2.43 154 2.43 117 2.43 114 2.43 118 2.43 155 2.43  32 3.18  42 3.18
                            54 3.18  40 3.18  51 3.18  45 3.18
  40  0.600  0.400  0.219-  91 2.43 154 2.43 150 2.43  90 2.43 155 2.43 151 2.43  45 3.18  68 3.18
                            67 3.18  39 3.18  35 3.18  42 3.18
  41  0.400  0.200  0.657- 140 2.43 152 2.43 115 2.43 125 2.43 116 2.43 153 2.43  30 3.18  44 3.18
                            53 3.18  38 3.18  37 3.18  43 3.18
  42  0.400  0.400  0.219- 113 2.43 142 2.43 150 2.43 114 2.43 151 2.43 141 2.43  32 3.18  28 3.18
                            39 3.18  35 3.18  36 3.18  40 3.18
  43  0.600  0.200  0.657-  73 2.43 156 2.43 152 2.43  74 2.43 111 2.43 153 2.43  65 3.18  38 3.18
                            71 3.18  37 3.18  48 3.18  41 3.18
  44  0.400  0.400  0.657- 140 2.43 148 2.43 168 2.43 149 2.43 125 2.43 169 2.43  30 3.18  34 3.18
                            41 3.18  22 3.18  47 3.18  38 3.18
  45  0.600  0.200  0.219-  77 2.43 158 2.43 154 2.43  78 2.43 159 2.43 155 2.43  68 3.18  52 3.18
                            40 3.18  51 3.18  50 3.18  39 3.18
  46  0.400  0.800  0.657- 110 2.43 160 2.43 164 2.43 165 2.43 170 2.43 161 2.43  24 3.18  33 3.18
                            47 3.18  48 3.18  37 3.18  27 3.18
  47  0.400  0.600  0.657- 164 2.43 144 2.43 168 2.43 165 2.43 145 2.43 169 2.43  24 3.18  46 3.18
                            34 3.18  27 3.18  44 3.18  22 3.18
  48  0.600  0.000  0.657-  80 2.43 110 2.43 156 2.43  81 2.43 170 2.43 111 2.43  31 3.18  71 3.18
                            46 3.18  27 3.18  43 3.18  37 3.18
  49  0.400  0.800  0.219- 112 2.43 162 2.43 166 2.43 143 2.43 167 2.43 163 2.43  26 3.18  23 3.18
                            36 3.18  50 3.18  51 3.18  25 3.18
  50  0.600  0.000  0.219-  84 2.43 112 2.43 158 2.43 143 2.43  86 2.43 159 2.43  29 3.18  52 3.18
                            49 3.18  25 3.18  45 3.18  51 3.18
  51  0.400  0.000  0.219- 117 2.43 158 2.43 162 2.43 159 2.43 163 2.43 118 2.43  54 3.18  23 3.18
                            45 3.18  49 3.18  39 3.18  50 3.18
  52  0.800  0.200  0.219-  77 2.43  87 2.43  84 2.43  78 2.43  86 2.43 104 2.43  45 3.18  68 3.18
                            50 3.18  62 3.18  29 3.18  59 3.18
  53  0.200  0.000  0.657- 115 2.43 119 2.43 135 2.43 120 2.43 116 2.43 136 2.43  37 3.18  41 3.18
                            69 3.18  33 3.18  30 3.18  57 3.18
  54  0.200  0.000  0.219- 117 2.43 121 2.43 137 2.43 122 2.43 118 2.43 138 2.43  51 3.18  39 3.18
                            70 3.18  32 3.18  23 3.18  55 3.18
  55  0.000  0.000  0.219-  83 2.43 137 2.43  72 2.43  89 2.43 138 2.43 108 2.43  32 3.18  58 3.18
                            59 3.18  70 3.18  54 3.18  29 3.18
  56  0.800  0.800  0.657-  96 2.43  97 2.43 171 2.43  98 2.43  93 2.43 157 2.43  22 3.18  27 3.18
                            61 3.18  57 3.18  31 3.18  69 3.18
  57  0.000  0.000  0.657- 135 2.43 171 2.43  85 2.43 157 2.43 136 2.43  82 2.43  30 3.18  56 3.18
                            60 3.18  69 3.18  53 3.18  31 3.18
  58  0.800  0.800  0.219-  92 2.43 100 2.43  83 2.43 102 2.43  94 2.43  89 2.43  35 3.18  25 3.18
                            67 3.18  55 3.18  29 3.18  70 3.18
  59  0.000  0.200  0.219- 133 2.43  72 2.43  87 2.43 108 2.43 134 2.43 104 2.43  62 3.18  28 3.18
                            29 3.18  55 3.18  32 3.18  52 3.18
  60  0.000  0.200  0.657- 131 2.43  85 2.43 103 2.43  82 2.43 132 2.43  88 2.43  63 3.18  34 3.18
                            31 3.18  57 3.18  30 3.18  71 3.18
  61  0.800  0.600  0.657-  97 2.43 105 2.43  76 2.43  98 2.43 106 2.43  75 2.43  22 3.18  56 3.18
                            38 3.18  69 3.18  65 3.18  66 3.18
  62  0.000  0.400  0.219-  87 2.43  95 2.43 129 2.43 104 2.43 130 2.43  79 2.43  59 3.18  52 3.18
                            26 3.18  64 3.18  28 3.18  68 3.18
  63  0.000  0.400  0.657- 101 2.43 103 2.43 127 2.43  88 2.43 128 2.43  99 2.43  60 3.18  71 3.18
                            24 3.18  66 3.18  34 3.18  65 3.18
  64  0.000  0.600  0.219- 109 2.43 126 2.43  95 2.43 107 2.43  79 2.43 139 2.43  70 3.18  23 3.18
                            68 3.18  62 3.18  26 3.18  67 3.18
  65  0.800  0.400  0.657-  73 2.43 105 2.43 101 2.43  74 2.43 106 2.43  99 2.43  43 3.18  38 3.18
                            71 3.18  66 3.18  61 3.18  63 3.18
  66  0.000  0.600  0.657-  76 2.43 123 2.43 101 2.43  75 2.43  99 2.43 124 2.43  69 3.18  33 3.18
                            65 3.18  63 3.18  61 3.18  24 3.18
  67  0.800  0.600  0.219- 100 2.43  91 2.43 109 2.43 102 2.43  90 2.43 107 2.43  35 3.18  58 3.18
                            40 3.18  70 3.18  68 3.18  64 3.18
  68  0.800  0.400  0.219-  77 2.43  91 2.43  95 2.43  78 2.43  90 2.43  79 2.43  45 3.18  40 3.18
                            52 3.18  64 3.18  67 3.18  62 3.18
  69  0.000  0.800  0.657-  76 2.43 119 2.43 171 2.43 120 2.43  75 2.43 157 2.43  66 3.18  61 3.18
                            53 3.18  57 3.18  56 3.18  33 3.18
  70  0.000  0.800  0.219-  83 2.43 109 2.43 121 2.43 107 2.43 122 2.43  89 2.43  64 3.18  67 3.18
                            54 3.18  55 3.18  23 3.18  58 3.18
  71  0.800  0.200  0.657-  73 2.43 103 2.43  80 2.43  74 2.43  88 2.43  81 2.43  43 3.18  65 3.18
                            48 3.18  63 3.18  31 3.18  60 3.18
  72  0.933  0.067  0.170-  29 2.43  59 2.43  55 2.43
  73  0.733  0.267  0.608-  71 2.43  43 2.43  65 2.43
  74  0.733  0.267  0.707-  71 2.43  65 2.43  43 2.43
  75  0.933  0.667  0.707-  66 2.43  69 2.43  61 2.43
  76  0.933  0.667  0.608-  66 2.43  69 2.43  61 2.43
  77  0.733  0.267  0.170-  52 2.43  45 2.43  68 2.43
  78  0.733  0.267  0.268-  52 2.43  45 2.43  68 2.43
  79  0.933  0.467  0.268-  64 2.43  62 2.43  68 2.43
  80  0.733  0.067  0.608-  31 2.43  48 2.43  71 2.43
  81  0.733  0.067  0.707-  48 2.43  71 2.43  31 2.43
  82  0.933  0.067  0.707-  31 2.43  60 2.43  57 2.43
  83  0.933  0.867  0.170-  55 2.43  70 2.43  58 2.43
  84  0.733  0.067  0.170-  29 2.43  50 2.43  52 2.43
  85  0.933  0.067  0.608-  31 2.43  60 2.43  57 2.43
  86  0.733  0.067  0.268-  50 2.43  52 2.43  29 2.43
  87  0.933  0.267  0.170-  52 2.43  62 2.43  59 2.43
  88  0.933  0.267  0.707-  63 2.43  71 2.43  60 2.43
  89  0.933  0.867  0.268-  55 2.43  70 2.43  58 2.43
  90  0.733  0.467  0.268-  40 2.43  67 2.43  68 2.43
  91  0.733  0.467  0.170-  40 2.43  67 2.43  68 2.43
  92  0.733  0.867  0.170-  25 2.43  29 2.43  58 2.43
  93  0.733  0.867  0.707-  27 2.43  31 2.43  56 2.43
  94  0.733  0.867  0.268-  25 2.43  29 2.43  58 2.43
  95  0.933  0.467  0.170-  62 2.43  64 2.43  68 2.43
  96  0.733  0.867  0.608-  27 2.43  31 2.43  56 2.43
  97  0.733  0.667  0.608-  61 2.43  22 2.43  56 2.43
  98  0.733  0.667  0.707-  61 2.43  56 2.43  22 2.43
  99  0.933  0.467  0.707-  66 2.43  63 2.43  65 2.43
 100  0.733  0.667  0.170-  67 2.43  35 2.43  58 2.43
 101  0.933  0.467  0.608-  63 2.43  66 2.43  65 2.43
 102  0.733  0.667  0.268-  67 2.43  58 2.43  35 2.43
 103  0.933  0.267  0.608-  71 2.43  63 2.43  60 2.43
 104  0.933  0.267  0.268-  52 2.43  62 2.43  59 2.43
 105  0.733  0.467  0.608-  38 2.43  61 2.43  65 2.43
 106  0.733  0.467  0.707-  38 2.43  61 2.43  65 2.43
 107  0.933  0.667  0.268-  64 2.43  70 2.43  67 2.43
 108  0.933  0.067  0.268-  29 2.43  59 2.43  55 2.43
 109  0.933  0.667  0.170-  64 2.43  70 2.43  67 2.43
 110  0.533  0.867  0.608-  46 2.43  48 2.43  27 2.43
 111  0.533  0.067  0.707-  37 2.43  43 2.43  48 2.43
 112  0.533  0.867  0.170-  49 2.43  50 2.43  25 2.43
 113  0.333  0.267  0.170-  39 2.43  32 2.43  42 2.43
 114  0.333  0.267  0.268-  39 2.43  32 2.43  42 2.43
 115  0.333  0.067  0.608-  37 2.43  41 2.43  53 2.43
 116  0.333  0.067  0.707-  41 2.43  53 2.43  37 2.43
 117  0.333  0.067  0.170-  39 2.43  51 2.43  54 2.43
 118  0.333  0.067  0.268-  39 2.43  54 2.43  51 2.43
 119  0.133  0.867  0.608-  53 2.43  69 2.43  33 2.43
 120  0.133  0.867  0.707-  53 2.43  69 2.43  33 2.43
 121  0.133  0.867  0.170-  54 2.43  70 2.43  23 2.43
 122  0.133  0.867  0.268-  54 2.43  70 2.43  23 2.43
 123  0.133  0.667  0.608-  66 2.43  33 2.43  24 2.43
 124  0.133  0.667  0.707-  33 2.43  66 2.43  24 2.43
 125  0.333  0.267  0.707-  41 2.43  30 2.43  44 2.43
 126  0.133  0.667  0.170-  64 2.43  23 2.43  26 2.43
 127  0.133  0.467  0.608-  24 2.43  63 2.43  34 2.43
 128  0.133  0.467  0.707-  24 2.43  63 2.43  34 2.43
 129  0.133  0.467  0.170-  26 2.43  62 2.43  28 2.43
 130  0.133  0.467  0.268-  26 2.43  62 2.43  28 2.43
 131  0.133  0.267  0.608-  60 2.43  34 2.43  30 2.43
 132  0.133  0.267  0.707-  34 2.43  60 2.43  30 2.43
 133  0.133  0.267  0.170-  59 2.43  28 2.43  32 2.43
 134  0.133  0.267  0.268-  28 2.43  59 2.43  32 2.43
 135  0.133  0.067  0.608-  30 2.43  57 2.43  53 2.43
 136  0.133  0.067  0.707-  30 2.43  57 2.43  53 2.43
 137  0.133  0.067  0.170-  32 2.43  55 2.43  54 2.43
 138  0.133  0.067  0.268-  32 2.43  55 2.43  54 2.43
 139  0.133  0.667  0.268-  23 2.43  64 2.43  26 2.43
 140  0.333  0.267  0.608-  41 2.43  30 2.43  44 2.43
 141  0.333  0.467  0.268-  28 2.43  36 2.43  42 2.43
 142  0.333  0.467  0.170-  28 2.43  36 2.43  42 2.43
 143  0.533  0.867  0.268-  49 2.43  50 2.43  25 2.43
 144  0.533  0.667  0.608-  47 2.43  27 2.43  22 2.43
 145  0.533  0.667  0.707-  27 2.43  47 2.43  22 2.43
 146  0.533  0.667  0.170-  36 2.43  25 2.43  35 2.43
 147  0.533  0.667  0.268-  25 2.43  36 2.43  35 2.43
 148  0.533  0.467  0.608-  22 2.43  44 2.43  38 2.43
 149  0.533  0.467  0.707-  22 2.43  44 2.43  38 2.43
 150  0.533  0.467  0.170-  35 2.43  42 2.43  40 2.43
 151  0.533  0.467  0.268-  35 2.43  42 2.43  40 2.43
 152  0.533  0.267  0.608-  41 2.43  38 2.43  43 2.43
 153  0.533  0.267  0.707-  38 2.43  41 2.43  43 2.43
 154  0.533  0.267  0.170-  39 2.43  40 2.43  45 2.43
 155  0.533  0.267  0.268-  39 2.43  40 2.43  45 2.43
 156  0.533  0.067  0.608-  37 2.43  43 2.43  48 2.43
 157  0.933  0.867  0.707-  57 2.43  69 2.43  56 2.43
 158  0.533  0.067  0.170-  45 2.43  51 2.43  50 2.43
 159  0.533  0.067  0.268-  45 2.43  51 2.43  50 2.43
 160  0.333  0.867  0.608-  33 2.43  37 2.43  46 2.43
 161  0.333  0.867  0.707-  33 2.43  37 2.43  46 2.43
 162  0.333  0.867  0.170-  23 2.43  49 2.43  51 2.43
 163  0.333  0.867  0.268-  23 2.43  51 2.43  49 2.43
 164  0.333  0.667  0.608-  47 2.43  24 2.43  46 2.43
 165  0.333  0.667  0.707-  47 2.43  46 2.43  24 2.43
 166  0.333  0.667  0.170-  36 2.43  26 2.43  49 2.43
 167  0.333  0.667  0.268-  36 2.43  26 2.43  49 2.43
 168  0.333  0.467  0.608-  34 2.43  44 2.43  47 2.43
 169  0.333  0.467  0.707-  34 2.43  47 2.43  44 2.43
 170  0.533  0.867  0.707-  46 2.43  48 2.43  27 2.43
 171  0.933  0.867  0.608-  57 2.43  69 2.43  56 2.43
 
  LATTYP: Found a hexagonal cell.
 ALAT       =    15.9000000000
 C/A-ratio  =     2.0364779874
  
  Lattice vectors:
  
 A1 = (  15.9000000000,   0.0000000000,   0.0000000000)
 A2 = (  -7.9500000000,  13.7698039202,   0.0000000000)
 A3 = (   0.0000000000,   0.0000000000,  32.3800000000)


Analysis of symmetry for initial positions (statically):
=====================================================================
 Subroutine PRICEL returns:
 Original cell was already a primitive cell.
 

 Routine SETGRP: Setting up the symmetry group for a 
 hexagonal supercell.


 Subroutine GETGRP returns: Found  1 space group operations
 (whereof  1 operations were pure point group operations)
 out of a pool of 24 trial point group operations.


The static configuration has the point symmetry C_1 .


Analysis of symmetry for dynamics (positions and initial velocities):
=====================================================================
 Subroutine PRICEL returns:
 Original cell was already a primitive cell.
 

 Routine SETGRP: Setting up the symmetry group for a 
 hexagonal supercell.


 Subroutine GETGRP returns: Found  1 space group operations
 (whereof  1 operations were pure point group operations)
 out of a pool of 24 trial point group operations.


The dynamic configuration has the point symmetry C_1 .


Analysis of constrained symmetry for selective dynamics:
=====================================================================
 Subroutine PRICEL returns:
 Original cell was already a primitive cell.
 

 Routine SETGRP: Setting up the symmetry group for a 
 hexagonal supercell.


 Subroutine GETGRP returns: Found  1 space group operations
 (whereof  1 operations were pure point group operations)
 out of a pool of 24 trial point group operations.


The constrained configuration has the point symmetry C_1 .


 Subroutine INISYM returns: Found  1 space group operations
 (whereof  1 operations are pure point group operations),
 and found     1 'primitive' translations

 
 
 KPOINTS: Gamma-point only                        
  k-points in reciprocal lattice
Space group operators:
 irot       det(A)        alpha          n_x          n_y          n_z        tau_x        tau_y        tau_z
    1     1.000000     0.000000     1.000000     0.000000     0.000000     0.000000     0.000000     0.000000


--------------------------------------------------------------------------------------------------------




 Dimension of arrays:
   k-points           NKPTS =      1   k-points in BZ     NKDIM =      1   number of bands    NBANDS=    585
   number of dos      NEDOS =    301   number of ions     NIONS =    171
   non local maximal  LDIM  =      6   non local SUM 2l+1 LMDIM =     18
   total plane-waves  NPLWV = ******
   max r-space proj   IRMAX =   6718   max aug-charges    IRDMAX=  23014
   dimension x,y,z NGX =   108 NGY =  108 NGZ =  216
   dimension x,y,z NGXF=   216 NGYF=  216 NGZF=  432
   support grid    NGXF=   216 NGYF=  216 NGZF=  432
   ions per type =              10   1  10  50 100
   NGX,Y,Z   is equivalent  to a cutoff of  11.29, 11.29, 11.09 a.u.
   NGXF,Y,Z  is equivalent  to a cutoff of  22.58, 22.58, 22.18 a.u.

 SYSTEM =  basalPlane                              
 POSCAR =   C Cr  H Mo  S                          

 Startparameter for this run:
   NWRITE =      2    write-flag & timer
   PREC   = accura    normal or accurate (medium, high low for compatibility)
   ISTART =      0    job   : 0-new  1-cont  2-samecut
   ICHARG =      2    charge: 1-file 2-atom 10-const
   ISPIN  =      1    spin polarized calculation?
   LNONCOLLINEAR =      F non collinear calculations
   LSORBIT =      F    spin-orbit coupling
   INIWAV =      1    electr: 0-lowe 1-rand  2-diag
   LASPH  =      F    aspherical Exc in radial PAW
   METAGGA=      F    non-selfconsistent MetaGGA calc.

 Electronic Relaxation 1
   ENCUT  =  400.0 eV  29.40 Ry    5.42 a.u.  25.93 25.93 52.80*2*pi/ulx,y,z
   ENINI  =  400.0     initial cutoff
   ENAUG  =  645.0 eV  augmentation charge cutoff
   NELM   =    200;   NELMIN=  2; NELMDL= -5     # of ELM steps 
   EDIFF  = 0.1E-03   stopping-criterion for ELM
   LREAL  =      T    real-space projection
   NLSPLINE    = F    spline interpolate recip. space projectors
   LCOMPAT=      F    compatible to vasp.4.4
   GGA_COMPAT  = T    GGA compatible to vasp.4.4-vasp.4.6
   LMAXPAW     = -100 max onsite density
   LMAXMIX     =    2 max onsite mixed and CHGCAR
   VOSKOWN=      0    Vosko Wilk Nusair interpolation
   ROPT   =   -0.00025  -0.00025  -0.00025  -0.00025
   ROPT   =   -0.00025
 Ionic relaxation
   EDIFFG = -.2E-01   stopping-criterion for IOM
   NSW    =  10000    number of steps for IOM
   NBLOCK =      1;   KBLOCK =  10000    inner block; outer block 
   IBRION =      2    ionic relax: 0-MD 1-quasi-New 2-CG
   NFREE  =      1    steps in history (QN), initial steepest desc. (CG)
   ISIF   =      2    stress and relaxation
   IWAVPR =     11    prediction:  0-non 1-charg 2-wave 3-comb
   ISYM   =      2    0-nonsym 1-usesym 2-fastsym
   LCORR  =      T    Harris-Foulkes like correction to forces

   POTIM  = 0.5000    time-step for ionic-motion
   TEIN   =    0.0    initial temperature
   TEBEG  =    0.0;   TEEND  =   0.0 temperature during run
   SMASS  =  -3.00    Nose mass-parameter (am)
   estimated Nose-frequenzy (Omega)   =  0.10E-29 period in steps =****** mass=  -0.578E-26a.u.
   SCALEE = 1.0000    scale energy and forces
   NPACO  =    256;   APACO  = 16.0  distance and # of slots for P.C.
   PSTRESS=    0.0 pullay stress

  Mass of Ions in am
   POMASS =  12.01 52.00  1.00 95.94 32.07
  Ionic Valenz
   ZVAL   =   4.00  6.00  1.00  6.00  6.00
  Atomic Wigner-Seitz radii
   RWIGS  =  -1.00 -1.00 -1.00 -1.00 -1.00
  virtual crystal weights 
   VCA    =   1.00  1.00  1.00  1.00  1.00
   NELECT =     956.0000    total number of electrons
   NUPDOWN=      -1.0000    fix difference up-down

 DOS related values:
   EMIN   =  10.00;   EMAX   =-10.00  energy-range for DOS
   EFERMI =   0.00
   ISMEAR =     0;   SIGMA  =   0.10  broadening in eV -4-tet -1-fermi 0-gaus

 Electronic relaxation 2 (details)
   IALGO  =     38    algorithm
   LDIAG  =      T    sub-space diagonalisation (order eigenvalues)
   LSUBROT=      F    optimize rotation matrix (better conditioning)
   TURBO    =      0    0=normal 1=particle mesh
   IRESTART =      0    0=no restart 2=restart with 2 vectors
   NREBOOT  =      0    no. of reboots
   NMIN     =      0    reboot dimension
   EREF     =   0.00    reference energy to select bands
   IMIX   =      4    mixing-type and parameters
     AMIX     =   0.40;   BMIX     =  1.00
     AMIX_MAG =   1.60;   BMIX_MAG =  1.00
     AMIN     =   0.10
     WC   =   100.;   INIMIX=   1;  MIXPRE=   1;  MAXMIX= -45

 Intra band minimization:
   WEIMIN = 0.0010     energy-eigenvalue tresh-hold
   EBREAK =  0.43E-07  absolut break condition
   DEPER  =   0.30     relativ break condition  

   TIME   =   0.40     timestep for ELM

  volume/ion in A,a.u.               =      41.46       279.77
  Fermi-wavevector in a.u.,A,eV,Ry     =   0.839512  1.586448  9.589119  0.704780
  Thomas-Fermi vector in A             =   1.953743
 
 Write flags
   LWAVE        =      F    write WAVECAR
   LDOWNSAMPLE  =      F    k-point downsampling of WAVECAR
   LCHARG       =      F    write CHGCAR
   LVTOT        =      F    write LOCPOT, total local potential
   LVHAR        =      F    write LOCPOT, Hartree potential only
   LELF         =      F    write electronic localiz. function (ELF)
   LORBIT       =      0    0 simple, 1 ext, 2 COOP (PROOUT), +10 PAW based schemes


 Dipole corrections
   LMONO  =      F    monopole corrections only (constant potential shift)
   LDIPOL =      F    correct potential (dipole corrections)
   IDIPOL =      0    1-x, 2-y, 3-z, 4-all directions 
   EPSILON=  1.0000000 bulk dielectric constant

 Exchange correlation treatment:
   GGA     =    --    GGA type
   LEXCH   =     8    internal setting for exchange type
   VOSKOWN=      0    Vosko Wilk Nusair interpolation
   LHFCALC =     F    Hartree Fock is set to
   LHFONE  =     F    Hartree Fock one center treatment
   AEXX    =    0.0000 exact exchange contribution

 Linear response parameters
   LEPSILON=     F    determine dielectric tensor
   LRPA    =     F    only Hartree local field effects (RPA)
   LNABLA  =     F    use nabla operator in PAW spheres
   LVEL    =     F    velocity operator in full k-point grid
   LINTERFAST=   F  fast interpolation
   KINTER  =     0    interpolate to denser k-point grid
   CSHIFT  =0.1000    complex shift for real part using Kramers Kronig
   OMEGAMAX=  -1.0    maximum frequency
   DEG_THRESHOLD= 0.2000000E-02 threshold for treating states as degnerate
   RTIME   =   -0.100 relaxation time in fs
  (WPLASMAI=    0.000 imaginary part of plasma frequency in eV, 0.658/RTIME)
   DFIELD  = 0.0000000 0.0000000 0.0000000 field for delta impulse in time
 
 Orbital magnetization related:
   ORBITALMAG=     F  switch on orbital magnetization
   LCHIMAG   =     F  perturbation theory with respect to B field
   DQ        =  0.001000  dq finite difference perturbation B field
   LLRAUG    =     F  two centre corrections for induced B field



--------------------------------------------------------------------------------------------------------


 conjugate gradient relaxation of ions
   using selective dynamics as specified on POSCAR
   WARNING: If single coordinates had been selected the selection of coordinates
            is made according to the corresponding   d i r e c t   coordinates!
            Don't support selection of single cartesian coordinates -- sorry ...
  !
 charge density and potential will be updated during run
 non-spin polarized calculation
 Variant of blocked Davidson
 Davidson routine will perform the subspace rotation
 perform sub-space diagonalisation
    after iterative eigenvector-optimisation
 modified Broyden-mixing scheme, WC =      100.0
 initial mixing is a Kerker type mixing with AMIX =  0.4000 and BMIX =      1.0000
 Hartree-type preconditioning will be used
 using additional bands          107
 real space projection scheme for non local part
 use partial core corrections
 calculate Harris-corrections to forces 
   (improved forces if not selfconsistent)
 use gradient corrections 
 use of overlap-Matrix (Vanderbilt PP)
 Gauss-broadening in eV      SIGMA  =   0.10


--------------------------------------------------------------------------------------------------------


  energy-cutoff  :      400.00
  volume of cell :     7089.27
      direct lattice vectors                 reciprocal lattice vectors
    15.900000000  0.000000000  0.000000000     0.062893082  0.036311338  0.000000000
    -7.950000000 13.769803920  0.000000000     0.000000000  0.072622675  0.000000000
     0.000000000  0.000000000 32.380000000     0.000000000  0.000000000  0.030883261

  length of vectors
    15.900000000 15.900000000 32.380000000     0.072622675  0.072622675  0.030883261


 
 k-points in units of 2pi/SCALE and weight: Gamma-point only                        
   0.00000000  0.00000000  0.00000000       1.000
 
 k-points in reciprocal lattice and weights: Gamma-point only                        
   0.00000000  0.00000000  0.00000000       1.000
 
 position of ions in fractional coordinates (direct lattice) 
   0.48133604  0.35074345  0.38597198
   0.41901282  0.28034247  0.41522943
   0.56915771  0.41799354  0.40636724
   0.56164575  0.38890725  0.44897138
   0.46768327  0.30303523  0.45435897
   0.33076385  0.44273915  0.43521782
   0.44492639  0.50739902  0.48802200
   0.35073127  0.42783702  0.47728676
   0.48215501  0.57044267  0.45321108
   0.41270908  0.53111797  0.42072155
   0.45250538  0.42308301  0.43763998
   0.43942424  0.26198140  0.48279235
   0.30231976  0.36882200  0.49756701
   0.26477767  0.39674907  0.41790386
   0.48208294  0.51714097  0.51733310
   0.55382103  0.63482458  0.45108713
   0.34561776  0.22150425  0.40923499
   0.46304821  0.35522001  0.35397105
   0.63053621  0.48057086  0.39215997
   0.61771957  0.42346437  0.47239618
   0.42167588  0.56164677  0.38987967
   0.60000000  0.60000000  0.65735022
   0.20000000  0.80000000  0.21911674
   0.20000000  0.60000000  0.65735022
   0.60000000  0.80000000  0.21911674
   0.20000000  0.60000000  0.21911674
   0.60000000  0.80000000  0.65735022
   0.20000000  0.40000000  0.21911674
   0.80000000  0.00000000  0.21911674
   0.20000000  0.20000000  0.65735022
   0.80000000  0.00000000  0.65735022
   0.20000000  0.20000000  0.21911674
   0.20000000  0.80000000  0.65735022
   0.20000000  0.40000000  0.65735022
   0.60000000  0.60000000  0.21911674
   0.40000000  0.60000000  0.21911674
   0.40000000  0.00000000  0.65735022
   0.60000000  0.40000000  0.65735022
   0.40000000  0.20000000  0.21911674
   0.60000000  0.40000000  0.21911674
   0.40000000  0.20000000  0.65735022
   0.40000000  0.40000000  0.21911674
   0.60000000  0.20000000  0.65735022
   0.40000000  0.40000000  0.65735022
   0.60000000  0.20000000  0.21911674
   0.40000000  0.80000000  0.65735022
   0.40000000  0.60000000  0.65735022
   0.60000000  0.00000000  0.65735022
   0.40000000  0.80000000  0.21911674
   0.60000000  0.00000000  0.21911674
   0.40000000  0.00000000  0.21911674
   0.80000000  0.20000000  0.21911674
   0.20000000  0.00000000  0.65735022
   0.20000000  0.00000000  0.21911674
   0.00000000  0.00000000  0.21911674
   0.80000000  0.80000000  0.65735022
   0.00000000  0.00000000  0.65735022
   0.80000000  0.80000000  0.21911674
   0.00000000  0.20000000  0.21911674
   0.00000000  0.20000000  0.65735022
   0.80000000  0.60000000  0.65735022
   0.00000000  0.40000000  0.21911674
   0.00000000  0.40000000  0.65735022
   0.00000000  0.60000000  0.21911674
   0.80000000  0.40000000  0.65735022
   0.00000000  0.60000000  0.65735022
   0.80000000  0.60000000  0.21911674
   0.80000000  0.40000000  0.21911674
   0.00000000  0.80000000  0.65735022
   0.00000000  0.80000000  0.21911674
   0.80000000  0.20000000  0.65735022
   0.93333333  0.06666667  0.16985794
   0.73333333  0.26666667  0.60809141
   0.73333333  0.26666667  0.70660902
   0.93333333  0.66666667  0.70660902
   0.93333333  0.66666667  0.60809141
   0.73333333  0.26666667  0.16985794
   0.73333333  0.26666667  0.26837554
   0.93333333  0.46666667  0.26837554
   0.73333333  0.06666667  0.60809141
   0.73333333  0.06666667  0.70660902
   0.93333333  0.06666667  0.70660902
   0.93333333  0.86666667  0.16985794
   0.73333333  0.06666667  0.16985794
   0.93333333  0.06666667  0.60809141
   0.73333333  0.06666667  0.26837554
   0.93333333  0.26666667  0.16985794
   0.93333333  0.26666667  0.70660902
   0.93333333  0.86666667  0.26837554
   0.73333333  0.46666667  0.26837554
   0.73333333  0.46666667  0.16985794
   0.73333333  0.86666667  0.16985794
   0.73333333  0.86666667  0.70660902
   0.73333333  0.86666667  0.26837554
   0.93333333  0.46666667  0.16985794
   0.73333333  0.86666667  0.60809141
   0.73333333  0.66666667  0.60809141
   0.73333333  0.66666667  0.70660902
   0.93333333  0.46666667  0.70660902
   0.73333333  0.66666667  0.16985794
   0.93333333  0.46666667  0.60809141
   0.73333333  0.66666667  0.26837554
   0.93333333  0.26666667  0.60809141
   0.93333333  0.26666667  0.26837554
   0.73333333  0.46666667  0.60809141
   0.73333333  0.46666667  0.70660902
   0.93333333  0.66666667  0.26837554
   0.93333333  0.06666667  0.26837554
   0.93333333  0.66666667  0.16985794
   0.53333333  0.86666667  0.60809141
   0.53333333  0.06666667  0.70660902
   0.53333333  0.86666667  0.16985794
   0.33333333  0.26666667  0.16985794
   0.33333333  0.26666667  0.26837554
   0.33333333  0.06666667  0.60809141
   0.33333333  0.06666667  0.70660902
   0.33333333  0.06666667  0.16985794
   0.33333333  0.06666667  0.26837554
   0.13333333  0.86666667  0.60809141
   0.13333333  0.86666667  0.70660902
   0.13333333  0.86666667  0.16985794
   0.13333333  0.86666667  0.26837554
   0.13333333  0.66666667  0.60809141
   0.13333333  0.66666667  0.70660902
   0.33333333  0.26666667  0.70660902
   0.13333333  0.66666667  0.16985794
   0.13333333  0.46666667  0.60809141
   0.13333333  0.46666667  0.70660902
   0.13333333  0.46666667  0.16985794
   0.13333333  0.46666667  0.26837554
   0.13333333  0.26666667  0.60809141
   0.13333333  0.26666667  0.70660902
   0.13333333  0.26666667  0.16985794
   0.13333333  0.26666667  0.26837554
   0.13333333  0.06666667  0.60809141
   0.13333333  0.06666667  0.70660902
   0.13333333  0.06666667  0.16985794
   0.13333333  0.06666667  0.26837554
   0.13333333  0.66666667  0.26837554
   0.33333333  0.26666667  0.60809141
   0.33333333  0.46666667  0.26837554
   0.33333333  0.46666667  0.16985794
   0.53333333  0.86666667  0.26837554
   0.53333333  0.66666667  0.60809141
   0.53333333  0.66666667  0.70660902
   0.53333333  0.66666667  0.16985794
   0.53333333  0.66666667  0.26837554
   0.53333333  0.46666667  0.60809141
   0.53333333  0.46666667  0.70660902
   0.53333333  0.46666667  0.16985794
   0.53333333  0.46666667  0.26837554
   0.53333333  0.26666667  0.60809141
   0.53333333  0.26666667  0.70660902
   0.53333333  0.26666667  0.16985794
   0.53333333  0.26666667  0.26837554
   0.53333333  0.06666667  0.60809141
   0.93333333  0.86666667  0.70660902
   0.53333333  0.06666667  0.16985794
   0.53333333  0.06666667  0.26837554
   0.33333333  0.86666667  0.60809141
   0.33333333  0.86666667  0.70660902
   0.33333333  0.86666667  0.16985794
   0.33333333  0.86666667  0.26837554
   0.33333333  0.66666667  0.60809141
   0.33333333  0.66666667  0.70660902
   0.33333333  0.66666667  0.16985794
   0.33333333  0.66666667  0.26837554
   0.33333333  0.46666667  0.60809141
   0.33333333  0.46666667  0.70660902
   0.53333333  0.86666667  0.70660902
   0.93333333  0.86666667  0.60809141
 
 position of ions in cartesian coordinates  (Angst):
   4.86483261  4.82966847 12.49777274
   4.43358120  3.86026083 13.44512879
   5.72655899  5.75568905 13.15817114
   5.83835479  5.35517658 14.53769333
   5.02703394  4.17273563 14.71214351
   1.73936900  6.09643131 14.09235298
   3.04050736  6.98678508 15.80215239
   2.17532278  5.89123192 15.45454535
   3.13124533  7.85488378 14.67497492
   2.33968643  7.31339035 13.62296371
   3.83132565  5.82577013 14.17078250
   4.90409332  3.60743257 15.63281645
   1.87474930  5.07860659 16.11121966
   1.05580980  5.46315696 13.53172706
   3.55384801  7.12092971 16.75124585
   3.75889899  8.74141001 14.60620133
   3.73436362  3.05007008 13.25102897
   4.53846750  4.89130988 11.46158268
   6.20498736  6.61736649 12.69813990
   6.45519941  5.83102131 15.29618841
   2.23955458  7.73376593 12.62430376
   4.77000000  8.26188235 21.28500000
  -3.18000000 11.01584314  7.09500000
  -1.59000000  8.26188235 21.28500000
   3.18000000 11.01584314  7.09500000
  -1.59000000  8.26188235  7.09500000
   3.18000000 11.01584314 21.28500000
   0.00000000  5.50792157  7.09500000
  12.72000000  0.00000000  7.09500000
   1.59000000  2.75396078 21.28500000
  12.72000000  0.00000000 21.28500000
   1.59000000  2.75396078  7.09500000
  -3.18000000 11.01584314 21.28500000
   0.00000000  5.50792157 21.28500000
   4.77000000  8.26188235  7.09500000
   1.59000000  8.26188235  7.09500000
   6.36000000  0.00000000 21.28500000
   6.36000000  5.50792157 21.28500000
   4.77000000  2.75396078  7.09500000
   6.36000000  5.50792157  7.09500000
   4.77000000  2.75396078 21.28500000
   3.18000000  5.50792157  7.09500000
   7.95000000  2.75396078 21.28500000
   3.18000000  5.50792157 21.28500000
   7.95000000  2.75396078  7.09500000
  -0.00000000 11.01584314 21.28500000
   1.59000000  8.26188235 21.28500000
   9.54000000  0.00000000 21.28500000
  -0.00000000 11.01584314  7.09500000
   9.54000000  0.00000000  7.09500000
   6.36000000  0.00000000  7.09500000
  11.13000000  2.75396078  7.09500000
   3.18000000  0.00000000 21.28500000
   3.18000000  0.00000000  7.09500000
   0.00000000  0.00000000  7.09500000
   6.36000000 11.01584314 21.28500000
   0.00000000  0.00000000 21.28500000
   6.36000000 11.01584314  7.09500000
  -1.59000000  2.75396078  7.09500000
  -1.59000000  2.75396078 21.28500000
   7.95000000  8.26188235 21.28500000
  -3.18000000  5.50792157  7.09500000
  -3.18000000  5.50792157 21.28500000
  -4.77000000  8.26188235  7.09500000
   9.54000000  5.50792157 21.28500000
  -4.77000000  8.26188235 21.28500000
   7.95000000  8.26188235  7.09500000
   9.54000000  5.50792157  7.09500000
  -6.36000000 11.01584314 21.28500000
  -6.36000000 11.01584314  7.09500000
  11.13000000  2.75396078 21.28500000
  14.31000000  0.91798693  5.50000000
   9.54000000  3.67194771 19.69000000
   9.54000000  3.67194771 22.88000000
   9.54000000  9.17986928 22.88000000
   9.54000000  9.17986928 19.69000000
   9.54000000  3.67194771  5.50000000
   9.54000000  3.67194771  8.69000000
  11.13000000  6.42590850  8.69000000
  11.13000000  0.91798693 19.69000000
  11.13000000  0.91798693 22.88000000
  14.31000000  0.91798693 22.88000000
   7.95000000 11.93383006  5.50000000
  11.13000000  0.91798693  5.50000000
  14.31000000  0.91798693 19.69000000
  11.13000000  0.91798693  8.69000000
  12.72000000  3.67194771  5.50000000
  12.72000000  3.67194771 22.88000000
   7.95000000 11.93383006  8.69000000
   7.95000000  6.42590850  8.69000000
   7.95000000  6.42590850  5.50000000
   4.77000000 11.93383006  5.50000000
   4.77000000 11.93383006 22.88000000
   4.77000000 11.93383006  8.69000000
  11.13000000  6.42590850  5.50000000
   4.77000000 11.93383006 19.69000000
   6.36000000  9.17986928 19.69000000
   6.36000000  9.17986928 22.88000000
  11.13000000  6.42590850 22.88000000
   6.36000000  9.17986928  5.50000000
  11.13000000  6.42590850 19.69000000
   6.36000000  9.17986928  8.69000000
  12.72000000  3.67194771 19.69000000
  12.72000000  3.67194771  8.69000000
   7.95000000  6.42590850 19.69000000
   7.95000000  6.42590850 22.88000000
   9.54000000  9.17986928  8.69000000
  14.31000000  0.91798693  8.69000000
   9.54000000  9.17986928  5.50000000
   1.59000000 11.93383006 19.69000000
   7.95000000  0.91798693 22.88000000
   1.59000000 11.93383006  5.50000000
   3.18000000  3.67194771  5.50000000
   3.18000000  3.67194771  8.69000000
   4.77000000  0.91798693 19.69000000
   4.77000000  0.91798693 22.88000000
   4.77000000  0.91798693  5.50000000
   4.77000000  0.91798693  8.69000000
  -4.77000000 11.93383006 19.69000000
  -4.77000000 11.93383006 22.88000000
  -4.77000000 11.93383006  5.50000000
  -4.77000000 11.93383006  8.69000000
  -3.18000000  9.17986928 19.69000000
  -3.18000000  9.17986928 22.88000000
   3.18000000  3.67194771 22.88000000
  -3.18000000  9.17986928  5.50000000
  -1.59000000  6.42590850 19.69000000
  -1.59000000  6.42590850 22.88000000
  -1.59000000  6.42590850  5.50000000
  -1.59000000  6.42590850  8.69000000
  -0.00000000  3.67194771 19.69000000
  -0.00000000  3.67194771 22.88000000
  -0.00000000  3.67194771  5.50000000
  -0.00000000  3.67194771  8.69000000
   1.59000000  0.91798693 19.69000000
   1.59000000  0.91798693 22.88000000
   1.59000000  0.91798693  5.50000000
   1.59000000  0.91798693  8.69000000
  -3.18000000  9.17986928  8.69000000
   3.18000000  3.67194771 19.69000000
   1.59000000  6.42590850  8.69000000
   1.59000000  6.42590850  5.50000000
   1.59000000 11.93383006  8.69000000
   3.18000000  9.17986928 19.69000000
   3.18000000  9.17986928 22.88000000
   3.18000000  9.17986928  5.50000000
   3.18000000  9.17986928  8.69000000
   4.77000000  6.42590850 19.69000000
   4.77000000  6.42590850 22.88000000
   4.77000000  6.42590850  5.50000000
   4.77000000  6.42590850  8.69000000
   6.36000000  3.67194771 19.69000000
   6.36000000  3.67194771 22.88000000
   6.36000000  3.67194771  5.50000000
   6.36000000  3.67194771  8.69000000
   7.95000000  0.91798693 19.69000000
   7.95000000 11.93383006 22.88000000
   7.95000000  0.91798693  5.50000000
   7.95000000  0.91798693  8.69000000
  -1.59000000 11.93383006 19.69000000
  -1.59000000 11.93383006 22.88000000
  -1.59000000 11.93383006  5.50000000
  -1.59000000 11.93383006  8.69000000
   0.00000000  9.17986928 19.69000000
   0.00000000  9.17986928 22.88000000
   0.00000000  9.17986928  5.50000000
   0.00000000  9.17986928  8.69000000
   1.59000000  6.42590850 19.69000000
   1.59000000  6.42590850 22.88000000
   1.59000000 11.93383006 22.88000000
   7.95000000 11.93383006 19.69000000
 


--------------------------------------------------------------------------------------------------------


 use parallel FFT for orbitals z direction half grid
 k-point  1 :   0.0000 0.0000 0.0000  plane waves:   64319

 maximum and minimum number of plane-waves per node :     16081    16079

 maximum number of plane-waves:     64319
 maximum index in each direction: 
   IXMAX=   25   IYMAX=   25   IZMAX=   52
   IXMIN=  -25   IYMIN=  -25   IZMIN=    0


 real space projection operators:
  total allocation   :      76630.88 KBytes
  max/ min on nodes  :      19171.23      19147.00


 parallel 3D FFT for wavefunctions:
    minimum data exchange during FFTs selected (reduces bandwidth)
 parallel 3D FFT for charge:
    minimum data exchange during FFTs selected (reduces bandwidth)


 total amount of memory used by VASP MPI-rank0   156590. kBytes
=======================================================================

   base      :      30000. kBytes
   nonlr-proj:      23537. kBytes
   fftplans  :      28265. kBytes
   grid      :      62703. kBytes
   one-center:        334. kBytes
   wavefun   :      11751. kBytes
 
     INWAV:  cpu time    0.0000: real time    0.0000
 Broyden mixing: mesh for mixing (old mesh)
   NGX = 51   NGY = 51   NGZ =105
  (NGX  =216   NGY  =216   NGZ  =432)
  gives a total of 273105 points

 initial charge density was supplied:
 charge density of overlapping atoms calculated
 number of electron     956.0000000 magnetization 
 keeping initial charge density in first step


--------------------------------------------------------------------------------------------------------


 Maximum index for non-local projection operator         1630
 Maximum index for augmentation-charges         1579 (set IRDMAX)


--------------------------------------------------------------------------------------------------------


 First call to EWALD:  gamma=   0.092
 Maximum number of real-space cells 4x 4x 2
 Maximum number of reciprocal cells 2x 2x 4

    FEWALD:  cpu time    0.0085: real time    0.0085


--------------------------------------- Iteration      1(   1)  ---------------------------------------


    POTLOK:  cpu time    0.3986: real time    0.6599
    SETDIJ:  cpu time    0.0176: real time    0.0176
     EDDAV:  cpu time   11.5776: real time   11.8772
       DOS:  cpu time    0.0005: real time    0.0005
    --------------------------------------------
      LOOP:  cpu time   11.9943: real time   12.5552

 eigenvalue-minimisations  :  1209
 total energy-change (2. order) : 0.7627437E+04  (-0.3642434E+05)
 number of electron     956.0000000 magnetization 
 augmentation part      956.0000000 magnetization 

 Free energy of the ion-electron system (eV)
  ---------------------------------------------------
  alpha Z        PSCENC =      1150.89500911
  Ewald energy   TEWEN  =     87000.86954715
  -Hartree energ DENC   =   -124974.54783693
  -exchange      EXHF   =         0.00000000
  -V(xc)+E(xc)   XCENC  =     -1684.56753771
  PAW double counting   =     36411.78182824   -32520.45026120
  entropy T*S    EENTRO =        -0.29417737
  eigenvalues    EBANDS =      1813.21064302
  atomic energy  EATOM  =     40430.53995508
  Solvation  Ediel_sol  =         0.00000000
  ---------------------------------------------------
  free energy    TOTEN  =      7627.43716938 eV

  energy without entropy =     7627.73134675  energy(sigma->0) =     7627.58425807


--------------------------------------------------------------------------------------------------------




--------------------------------------- Iteration      1(   2)  ---------------------------------------


     EDDAV:  cpu time   13.5647: real time   13.6882
       DOS:  cpu time    0.0005: real time    0.0005
    --------------------------------------------
      LOOP:  cpu time   13.5653: real time   13.6888

 eigenvalue-minimisations  :  1612
 total energy-change (2. order) :-0.7900313E+04  (-0.7655924E+04)
 number of electron     956.0000000 magnetization 
 augmentation part      956.0000000 magnetization 

 Free energy of the ion-electron system (eV)
  ---------------------------------------------------
  alpha Z        PSCENC =      1150.89500911
  Ewald energy   TEWEN  =     87000.86954715
  -Hartree energ DENC   =   -124974.54783693
  -exchange      EXHF   =         0.00000000
  -V(xc)+E(xc)   XCENC  =     -1684.56753771
  PAW double counting   =     36411.78182824   -32520.45026120
  entropy T*S    EENTRO =        -0.11025084
  eigenvalues    EBANDS =     -6087.28622304
  atomic energy  EATOM  =     40430.53995508
  Solvation  Ediel_sol  =         0.00000000
  ---------------------------------------------------
  free energy    TOTEN  =      -272.87577014 eV

  energy without entropy =     -272.76551930  energy(sigma->0) =     -272.82064472


--------------------------------------------------------------------------------------------------------




--------------------------------------- Iteration      1(   3)  ---------------------------------------


     EDDAV:  cpu time   11.9025: real time   12.8947
       DOS:  cpu time    0.0005: real time    0.0005
    --------------------------------------------
      LOOP:  cpu time   11.9030: real time   12.8952

 eigenvalue-minimisations  :  1378
 total energy-change (2. order) :-0.9896283E+03  (-0.9752985E+03)
 number of electron     956.0000000 magnetization 
 augmentation part      956.0000000 magnetization 

 Free energy of the ion-electron system (eV)
  ---------------------------------------------------
  alpha Z        PSCENC =      1150.89500911
  Ewald energy   TEWEN  =     87000.86954715
  -Hartree energ DENC   =   -124974.54783693
  -exchange      EXHF   =         0.00000000
  -V(xc)+E(xc)   XCENC  =     -1684.56753771
  PAW double counting   =     36411.78182824   -32520.45026120
  entropy T*S    EENTRO =        -0.00000055
  eigenvalues    EBANDS =     -7077.02476499
  atomic energy  EATOM  =     40430.53995508
  Solvation  Ediel_sol  =         0.00000000
  ---------------------------------------------------
  free energy    TOTEN  =     -1262.50406180 eV

  energy without entropy =    -1262.50406126  energy(sigma->0) =    -1262.50406153


--------------------------------------------------------------------------------------------------------




--------------------------------------- Iteration      1(   4)  ---------------------------------------


     EDDAV:  cpu time   14.7317: real time   15.4075
       DOS:  cpu time    0.0004: real time    0.0004
    --------------------------------------------
      LOOP:  cpu time   14.7321: real time   15.4078

 eigenvalue-minimisations  :  1794
 total energy-change (2. order) :-0.5860593E+02  (-0.5827102E+02)
 number of electron     956.0000000 magnetization 
 augmentation part      956.0000000 magnetization 

 Free energy of the ion-electron system (eV)
  ---------------------------------------------------
  alpha Z        PSCENC =      1150.89500911
  Ewald energy   TEWEN  =     87000.86954715
  -Hartree energ DENC   =   -124974.54783693
  -exchange      EXHF   =         0.00000000
  -V(xc)+E(xc)   XCENC  =     -1684.56753771
  PAW double counting   =     36411.78182824   -32520.45026120
  entropy T*S    EENTRO =        -0.00000000
  eigenvalues    EBANDS =     -7135.63069974
  atomic energy  EATOM  =     40430.53995508
  Solvation  Ediel_sol  =         0.00000000
  ---------------------------------------------------
  free energy    TOTEN  =     -1321.10999600 eV

  energy without entropy =    -1321.10999600  energy(sigma->0) =    -1321.10999600


--------------------------------------------------------------------------------------------------------




--------------------------------------- Iteration      1(   5)  ---------------------------------------


     EDDAV:  cpu time   14.8148: real time   15.4987
       DOS:  cpu time    0.0003: real time    0.0003
    CHARGE:  cpu time    1.0385: real time    1.0459
    MIXING:  cpu time    0.1245: real time    0.1328
    --------------------------------------------
      LOOP:  cpu time   15.9781: real time   16.6777

 eigenvalue-minimisations  :  1807
 total energy-change (2. order) :-0.2043175E+01  (-0.2031677E+01)
 number of electron     955.9999995 magnetization 
 augmentation part      -44.8790899 magnetization 

 Broyden mixing:
  rms(total) = 0.16943E+02    rms(broyden)= 0.16943E+02
  rms(prec ) = 0.17046E+02
  weight for this iteration     100.00

 Free energy of the ion-electron system (eV)
  ---------------------------------------------------
  alpha Z        PSCENC =      1150.89500911
  Ewald energy   TEWEN  =     87000.86954715
  -Hartree energ DENC   =   -124974.54783693
  -exchange      EXHF   =         0.00000000
  -V(xc)+E(xc)   XCENC  =     -1684.56753771
  PAW double counting   =     36411.78182824   -32520.45026120
  entropy T*S    EENTRO =        -0.00000000
  eigenvalues    EBANDS =     -7137.67387457
  atomic energy  EATOM  =     40430.53995508
  Solvation  Ediel_sol  =         0.00000000
  ---------------------------------------------------
  free energy    TOTEN  =     -1323.15317084 eV

  energy without entropy =    -1323.15317084  energy(sigma->0) =    -1323.15317084


--------------------------------------------------------------------------------------------------------




--------------------------------------- Iteration      1(   6)  ---------------------------------------


    POTLOK:  cpu time    0.4440: real time    0.5404
    SETDIJ:  cpu time    0.0209: real time    0.0209
     EDDAV:  cpu time   13.1481: real time   13.3309
       DOS:  cpu time    0.0006: real time    0.0006
    CHARGE:  cpu time    1.0440: real time    1.0516
    MIXING:  cpu time    0.0110: real time    0.0241
    --------------------------------------------
      LOOP:  cpu time   14.6685: real time   14.9686

 eigenvalue-minimisations  :  1560
 total energy-change (2. order) : 0.4663945E+02  (-0.9375934E+02)
 number of electron     956.0000002 magnetization 
 augmentation part      -10.5168074 magnetization 

 Broyden mixing:
  rms(total) = 0.91305E+01    rms(broyden)= 0.91301E+01
  rms(prec ) = 0.93080E+01
  weight for this iteration     100.00

 eigenvalues of (default mixing * dielectric matrix)
  average eigenvalue GAMMA=   0.9608
  0.9608

 Free energy of the ion-electron system (eV)
  ---------------------------------------------------
  alpha Z        PSCENC =      1150.89500911
  Ewald energy   TEWEN  =     87000.86954715
  -Hartree energ DENC   =   -124985.88953073
  -exchange      EXHF   =         0.00000000
  -V(xc)+E(xc)   XCENC  =     -1635.13266630
  PAW double counting   =     51788.93292996   -47937.40591787
  entropy T*S    EENTRO =        -0.11289491
  eigenvalues    EBANDS =     -7089.21014846
  atomic energy  EATOM  =     40430.53995508
  Solvation  Ediel_sol  =         0.00000000
  ---------------------------------------------------
  free energy    TOTEN  =     -1276.51371698 eV

  energy without entropy =    -1276.40082206  energy(sigma->0) =    -1276.45726952


--------------------------------------------------------------------------------------------------------




--------------------------------------- Iteration      1(   7)  ---------------------------------------


    POTLOK:  cpu time    0.4117: real time    0.7895
    SETDIJ:  cpu time    0.0206: real time    0.0206
     EDDAV:  cpu time   14.5237: real time   14.6373
       DOS:  cpu time    0.0006: real time    0.0006
    CHARGE:  cpu time    1.1482: real time    1.1565
    MIXING:  cpu time    0.0097: real time    0.0097
    --------------------------------------------
      LOOP:  cpu time   16.1144: real time   16.6143

 eigenvalue-minimisations  :  1768
 total energy-change (2. order) :-0.2029662E+02  (-0.1246837E+03)
 number of electron     955.9999994 magnetization 
 augmentation part      -30.1494652 magnetization 

 Broyden mixing:
  rms(total) = 0.54828E+01    rms(broyden)= 0.54827E+01
  rms(prec ) = 0.56647E+01
  weight for this iteration     100.00

 eigenvalues of (default mixing * dielectric matrix)
  average eigenvalue GAMMA=   1.1219
  1.7036  0.5402

 Free energy of the ion-electron system (eV)
  ---------------------------------------------------
  alpha Z        PSCENC =      1150.89500911
  Ewald energy   TEWEN  =     87000.86954715
  -Hartree energ DENC   =   -125384.87651557
  -exchange      EXHF   =         0.00000000
  -V(xc)+E(xc)   XCENC  =     -1644.69734795
  PAW double counting   =     64551.84789458   -60732.73640162
  entropy T*S    EENTRO =        -0.42837951
  eigenvalues    EBANDS =     -6668.22410226
  atomic energy  EATOM  =     40430.53995508
  Solvation  Ediel_sol  =         0.00000000
  ---------------------------------------------------
  free energy    TOTEN  =     -1296.81034099 eV

  energy without entropy =    -1296.38196147  energy(sigma->0) =    -1296.59615123


--------------------------------------------------------------------------------------------------------




--------------------------------------- Iteration      1(   8)  ---------------------------------------


    POTLOK:  cpu time    0.8093: real time    1.9842
    SETDIJ:  cpu time    0.0211: real time    0.0212
     EDDAV:  cpu time   12.5341: real time   12.6313
       DOS:  cpu time    0.0005: real time    0.0005
    CHARGE:  cpu time    1.1431: real time    1.1514
    MIXING:  cpu time    0.0101: real time    0.0101
    --------------------------------------------
      LOOP:  cpu time   14.5183: real time   15.7988

 eigenvalue-minimisations  :  1456
 total energy-change (2. order) : 0.6411857E+02  (-0.6276874E+01)
 number of electron     955.9999993 magnetization 
 augmentation part      -29.9925500 magnetization 

 Broyden mixing:
  rms(total) = 0.30759E+01    rms(broyden)= 0.30758E+01
  rms(prec ) = 0.32043E+01
  weight for this iteration     100.00

 eigenvalues of (default mixing * dielectric matrix)
  average eigenvalue GAMMA=   1.1673
  2.1109  0.6956  0.6956

 Free energy of the ion-electron system (eV)
  ---------------------------------------------------
  alpha Z        PSCENC =      1150.89500911
  Ewald energy   TEWEN  =     87000.86954715
  -Hartree energ DENC   =   -125419.03242766
  -exchange      EXHF   =         0.00000000
  -V(xc)+E(xc)   XCENC  =     -1633.98819958
  PAW double counting   =     76819.55772727   -73009.45586082
  entropy T*S    EENTRO =        -0.21584222
  eigenvalues    EBANDS =     -6571.86167737
  atomic energy  EATOM  =     40430.53995508
  Solvation  Ediel_sol  =         0.00000000
  ---------------------------------------------------
  free energy    TOTEN  =     -1232.69176904 eV

  energy without entropy =    -1232.47592682  energy(sigma->0) =    -1232.58384793


--------------------------------------------------------------------------------------------------------




--------------------------------------- Iteration      1(   9)  ---------------------------------------


    POTLOK:  cpu time    0.4525: real time    2.8489
    SETDIJ:  cpu time    0.0203: real time    0.0204
     EDDAV:  cpu time   14.1405: real time   14.2470
       DOS:  cpu time    0.0005: real time    0.0005
    CHARGE:  cpu time    1.0426: real time    1.0496
    MIXING:  cpu time    0.0102: real time    0.0103
    --------------------------------------------
      LOOP:  cpu time   15.6666: real time   18.1768

 eigenvalue-minimisations  :  1703
 total energy-change (2. order) :-0.6289037E+01  (-0.1977903E+02)
 number of electron     956.0000002 magnetization 
 augmentation part      -20.2879456 magnetization 

 Broyden mixing:
  rms(total) = 0.42088E+01    rms(broyden)= 0.42085E+01
  rms(prec ) = 0.44968E+01
  weight for this iteration     100.00

 eigenvalues of (default mixing * dielectric matrix)
  average eigenvalue GAMMA=   0.9647
  2.1689  0.6714  0.5092  0.5092

 Free energy of the ion-electron system (eV)
  ---------------------------------------------------
  alpha Z        PSCENC =      1150.89500911
  Ewald energy   TEWEN  =     87000.86954715
  -Hartree energ DENC   =   -125470.49021256
  -exchange      EXHF   =         0.00000000
  -V(xc)+E(xc)   XCENC  =     -1623.48043681
  PAW double counting   =     82051.16598135   -78242.85026934
  entropy T*S    EENTRO =        -0.20896832
  eigenvalues    EBANDS =     -6535.42141170
  atomic energy  EATOM  =     40430.53995508
  Solvation  Ediel_sol  =         0.00000000
  ---------------------------------------------------
  free energy    TOTEN  =     -1238.98080604 eV

[...]
   -.251E+01 -.323E+01 0.712E+03   0.251E+01 0.323E+01 -.716E+03   -.830E-03 -.214E-02 0.510E+01   0.180E-03 0.952E-05 -.139E-02
   -.119E+02 -.207E+02 -.195E+03   0.119E+02 0.207E+02 0.200E+03   -.601E-03 -.527E-02 -.500E+01   0.101E-02 0.449E-03 -.101E-01
   -.286E+02 0.240E+02 0.238E+03   0.286E+02 -.240E+02 -.243E+03   -.104E-02 0.130E-02 0.504E+01   0.158E-02 -.152E-02 0.777E-02
   -.643E+01 0.541E+01 -.704E+03   0.643E+01 -.541E+01 0.708E+03   -.704E-03 0.422E-03 -.510E+01   0.165E-03 -.221E-03 0.134E-02
   -.624E+01 0.532E+01 0.706E+03   0.624E+01 -.532E+01 -.711E+03   -.159E-02 0.232E-02 0.510E+01   0.215E-03 -.185E-03 -.983E-03
   -.320E+02 0.274E+02 -.225E+03   0.320E+02 -.274E+02 0.229E+03   -.626E-02 0.622E-02 -.509E+01   0.149E-02 -.131E-02 -.748E-02
   -.121E+02 0.123E+02 0.279E+03   0.121E+02 -.123E+02 -.284E+03   0.242E-03 0.251E-03 0.509E+01   0.807E-03 -.917E-03 0.489E-02
   -.156E+01 -.137E+01 -.692E+03   0.156E+01 0.137E+01 0.696E+03   -.120E-02 0.996E-03 -.510E+01   -.115E-03 0.629E-04 0.927E-03
   -.388E+01 0.412E+01 0.695E+03   0.388E+01 -.412E+01 -.699E+03   0.426E-03 0.873E-03 0.510E+01   0.922E-04 -.159E-04 -.661E-03
   -.149E+02 0.162E+02 -.277E+03   0.149E+02 -.162E+02 0.282E+03   0.946E-03 0.858E-03 -.510E+01   0.555E-03 -.508E-03 -.506E-02
   0.547E+01 0.914E+00 0.286E+03   -.547E+01 -.915E+00 -.290E+03   0.573E-03 0.116E-02 0.509E+01   0.874E-04 -.333E-03 0.451E-02
   0.165E+01 0.204E+00 -.692E+03   -.165E+01 -.204E+00 0.697E+03   0.153E-02 -.138E-03 -.510E+01   0.112E-03 -.111E-03 0.755E-03
   0.104E+01 0.138E+01 0.692E+03   -.105E+01 -.138E+01 -.697E+03   0.917E-03 0.444E-04 0.510E+01   -.499E-04 -.304E-04 -.634E-03
   0.367E+01 0.425E+01 -.286E+03   -.368E+01 -.425E+01 0.290E+03   0.119E-02 0.115E-03 -.509E+01   -.156E-03 -.979E-04 -.469E-02
   0.270E+02 -.231E+02 0.262E+03   -.270E+02 0.231E+02 -.266E+03   0.350E-02 -.139E-02 0.511E+01   -.895E-03 0.944E-03 0.565E-02
   0.633E+01 -.536E+01 -.699E+03   -.633E+01 0.536E+01 0.703E+03   0.220E-02 -.139E-02 -.509E+01   0.521E-04 0.756E-04 0.954E-03
   0.553E+01 -.457E+01 0.697E+03   -.553E+01 0.457E+01 -.702E+03   0.137E-02 -.980E-03 0.510E+01   -.214E-03 0.183E-03 -.874E-03
   0.225E+02 -.190E+02 -.266E+03   -.225E+02 0.190E+02 0.271E+03   0.304E-03 -.428E-03 -.506E+01   -.116E-02 0.105E-02 -.583E-02
   0.348E+02 -.454E+01 0.206E+03   -.348E+02 0.454E+01 -.210E+03   0.429E-02 0.301E-02 0.508E+01   -.206E-02 0.970E-03 0.885E-02
   0.656E+01 -.112E+01 -.710E+03   -.656E+01 0.112E+01 0.714E+03   0.135E-02 0.348E-03 -.509E+01   -.465E-03 0.212E-03 0.157E-02
   0.102E+01 -.509E+01 -.694E+03   -.102E+01 0.509E+01 0.699E+03   0.126E-02 -.437E-03 -.510E+01   0.225E-03 -.197E-04 0.800E-03
   -.519E+01 -.500E+01 0.287E+03   0.519E+01 0.500E+01 -.292E+03   -.149E-02 0.106E-02 0.508E+01   0.716E-04 0.250E-03 0.454E-02
 -----------------------------------------------------------------------------------------------
   -.121E+00 -.154E+01 0.253E+01   0.195E-13 0.564E-12 -.438E-11   0.122E+00 0.155E+01 -.254E+01   -.262E-03 -.408E-02 0.517E-02
 
 
 POSITION                                       TOTAL-FORCE (eV/Angst)
 -----------------------------------------------------------------------------------
      4.86925      4.82600     12.49777        -0.011439      0.001249     -0.064888
      4.43578      3.85871     13.44513         0.004641      0.000897     -0.031868
      5.72792      5.75330     13.15817         0.003474     -0.007292     -0.016177
      5.83794      5.35402     14.53769         0.003167      0.000650     -0.001085
      5.02713      4.17195     14.71214        -0.004210     -0.007320      0.004435
      1.73959      6.09781     14.09235        -0.000889     -0.005392      0.005387
      3.03906      6.98980     15.80215         0.009700      0.003804      0.015940
      2.17647      5.89256     15.45455        -0.004122      0.004549      0.016362
      3.12704      7.85721     14.67497        -0.001370     -0.003125      0.006180
      2.33701      7.31520     13.62296         0.007805      0.010910      0.056379
      3.82996      5.82455     14.17078         0.011515      0.007529      0.016357
      4.90240      3.60774     15.63282        -0.005072     -0.004359      0.021540
      1.87726      5.07911     16.11122         0.006866      0.000165      0.016710
      1.05812      5.46328     13.53173        -0.009747     -0.013175     -0.008129
      3.55613      7.12080     16.75125        -0.008601      0.004665     -0.005295
      3.75705      8.74141     14.60620        -0.007724      0.015495     -0.007322
      3.73438      3.05067     13.25103        -0.003151     -0.011068     -0.012112
      4.53900      4.89239     11.46158         0.017281     -0.007968      0.011126
      6.20411      6.61643     12.69814         0.002313     -0.004070     -0.002902
      6.45337      5.83075     15.29619         0.000598      0.003246      0.023653
      2.23912      7.73320     12.62430        -0.009937      0.008728     -0.038832
      4.76997      8.26246     21.28500        -0.000757     -0.003003     -0.002070
     -3.18000     11.01584      7.09500        -0.000331     -0.000088      0.002522
     -1.58969      8.26182     21.28500        -0.001244     -0.000145     -0.001108
      3.18000     11.01584      7.09500         0.000817      0.002392      0.004688
     -1.59000      8.26188      7.09500         0.001914     -0.000769      0.003659
      3.18007     11.01583     21.28500        -0.000348     -0.000506     -0.003538
      0.00000      5.50792      7.09500        -0.000180     -0.001909      0.005005
     12.72000      0.00000      7.09500        -0.001549      0.000044      0.003018
      1.58991      2.75393     21.28500        -0.000575      0.000622     -0.002212
     12.72001      0.00012     21.28500        -0.000057     -0.000520     -0.000934
      1.59000      2.75396      7.09500        -0.004369      0.000745      0.003566
     -3.18002     11.01587     21.28500         0.000280     -0.000349     -0.001070
      0.00025      5.50807     21.28500        -0.001567     -0.001122     -0.001254
      4.77000      8.26188      7.09500        -0.001522      0.003539      0.002448
      1.59000      8.26188      7.09500        -0.000565     -0.000072      0.003508
      6.35978     -0.00003     21.28500         0.001563      0.000028     -0.002291
      6.36008      5.50780     21.28500        -0.002579      0.001720     -0.008214
      4.77000      2.75396      7.09500         0.006124      0.002647      0.006531
      6.36000      5.50792      7.09500         0.003372     -0.009088      0.005542
      4.76987      2.75405     21.28500        -0.000080     -0.000043     -0.005053
      3.18000      5.50792      7.09500        -0.001727      0.002288      0.005127
      7.95012      2.75396     21.28500        -0.000349     -0.000630     -0.004325
      3.17928      5.50783     21.28500         0.003397      0.001233     -0.004566
      7.95000      2.75396      7.09500        -0.001939      0.003282      0.001485
      0.00020     11.01562     21.28500        -0.000463      0.000993     -0.000686
      1.58993      8.26161     21.28500         0.000288      0.001012     -0.006139
      9.54041     -0.00000     21.28500        -0.001718     -0.000204     -0.001342
     -0.00000     11.01584      7.09500         0.001317     -0.001031      0.003231
      9.54000      0.00000      7.09500        -0.000066     -0.000806      0.000206
      6.36000      0.00000      7.09500         0.002593      0.001404      0.000908
     11.13000      2.75396      7.09500         0.002741     -0.001113      0.003698
      3.17992      0.00012     21.28500        -0.000049     -0.000554     -0.001461
      3.18000      0.00000      7.09500         0.000151      0.001347      0.001751
      0.00000      0.00000      7.09500        -0.001402      0.000587     -0.005180
      6.35992     11.01597     21.28500        -0.000007      0.000333     -0.001710
     -0.00011      0.00006     21.28500         0.000270     -0.000134     -0.007193
      6.36000     11.01584      7.09500        -0.002185      0.000394      0.003640
     -1.59000      2.75396      7.09500        -0.001476      0.000745      0.003545
     -1.59012      2.75386     21.28500         0.001366      0.000654     -0.002640
      7.94990      8.26198     21.28500         0.000311     -0.000539     -0.003920
     -3.18000      5.50792      7.09500         0.000583      0.000206      0.000930
     -3.17970      5.50752     21.28500        -0.001084      0.001926     -0.000546
     -4.77000      8.26188      7.09500         0.001962     -0.001354     -0.000041
      9.54003      5.50774     21.28500         0.000661      0.000665     -0.003131
     -4.77012      8.26216     21.28500         0.001155     -0.001657     -0.001159
      7.95000      8.26188      7.09500        -0.002654      0.000873      0.003022
      9.54000      5.50792      7.09500        -0.001971     -0.003334      0.003167
     -6.36012     11.01588     21.28500         0.000331      0.000441     -0.000378
     -6.36000     11.01584      7.09500         0.000604     -0.000328      0.001832
     11.13019      2.75383     21.28500        -0.000470      0.000284     -0.002518
     14.31000      0.91799      5.50000         0.000246     -0.000233      0.585258
      9.54017      3.67180     19.69000         0.000186     -0.000137      0.585469
      9.54007      3.67186     22.88000         0.000461     -0.000314     -0.585751
      9.53989      9.17995     22.88000        -0.000299      0.000098     -0.585296
      9.54004      9.17997     19.69000        -0.000544      0.000059      0.585478
      9.54000      3.67195      5.50000        -0.000366     -0.000147      0.585029
      9.54000      3.67195      8.69000         0.000200     -0.000678     -0.583118
     11.13000      6.42591      8.69000        -0.001028     -0.000874     -0.585672
     11.13006      0.91800     19.69000         0.000559     -0.000078      0.584052
     11.13013      0.91799     22.88000         0.000361     -0.000035     -0.583557
     14.30996      0.91801     22.88000         0.000080      0.000082     -0.584858
      7.95000     11.93383      5.50000        -0.000255      0.000292      0.585535
     11.13000      0.91799      5.50000        -0.000364     -0.000200      0.585346
     14.30990      0.91797     19.69000         0.000325      0.000345      0.584963
     11.13000      0.91799      8.69000        -0.001098      0.000686     -0.585413
     12.72000      3.67195      5.50000         0.000053      0.000286      0.585182
     12.72008      3.67177     22.88000         0.000342     -0.000348     -0.584036
      7.95000     11.93383      8.69000         0.000174     -0.000272     -0.585826
      7.95000      6.42591      8.69000        -0.001766     -0.001132     -0.577040
      7.95000      6.42591      5.50000        -0.000176     -0.000522      0.585702
      4.77000     11.93383      5.50000         0.000367      0.000119      0.585315
      4.76994     11.93389     22.88000        -0.000078      0.000131     -0.585502
      4.77000     11.93383      8.69000         0.000814      0.001636     -0.585855
     11.13000      6.42591      5.50000        -0.000394     -0.000316      0.585337
      4.76994     11.93399     19.69000        -0.000323     -0.000289      0.584636
      6.35998      9.18009     19.69000        -0.000157      0.000517      0.582182
      6.35996      9.18000     22.88000         0.000165      0.000738     -0.585096
     11.13004      6.42588     22.88000         0.000682     -0.000075     -0.588090
      6.36000      9.17987      5.50000        -0.001205     -0.000247      0.586545
     11.13022      6.42589     19.69000         0.000418     -0.000104      0.587882
      6.36000      9.17987      8.69000         0.000734     -0.000436     -0.582677
     12.72001      3.67188     19.69000         0.000651     -0.000566      0.584026
     12.72000      3.67195      8.69000        -0.001217      0.000127     -0.585158
      7.95013      6.42581     19.69000        -0.000753     -0.000088      0.582595
      7.94994      6.42581     22.88000        -0.000122     -0.000166     -0.587767
      9.54000      9.17987      8.69000         0.000622     -0.000326     -0.585176
     14.31000      0.91799      8.69000        -0.001032     -0.000101     -0.585823
      9.54000      9.17987      5.50000         0.000379      0.000013      0.585627
      1.59002     11.93383     19.69000         0.000764     -0.000417      0.585057
      7.95006      0.91797     22.88000         0.000178     -0.000541     -0.587360
      1.59000     11.93383      5.50000         0.000258      0.000280      0.585271
      3.18000      3.67195      5.50000         0.000157      0.000833      0.585768
      3.18000      3.67195      8.69000         0.006204      0.000903     -0.568895
      4.76999      0.91797     19.69000        -0.000507      0.000621      0.583846
      4.76991      0.91807     22.88000        -0.000202      0.000406     -0.585928
      4.77000      0.91799      5.50000         0.000269     -0.000323      0.585445
      4.77000      0.91799      8.69000         0.001354      0.000461     -0.581266
     -4.77000     11.93379     19.69000        -0.000197      0.000349      0.586486
     -4.77006     11.93388     22.88000        -0.000130      0.000097     -0.586064
     -4.77000     11.93383      5.50000        -0.000311      0.000168      0.585371
     -4.77000     11.93383      8.69000        -0.000160      0.000470     -0.585396
     -3.17981      9.17984     19.69000        -0.000008     -0.000038      0.586685
     -3.17999      9.17988     22.88000         0.000411     -0.000131     -0.586562
      3.17985      3.67194     22.88000        -0.000760     -0.000114     -0.585735
     -3.18000      9.17987      5.50000        -0.000142     -0.000169      0.584867
     -1.58986      6.42591     19.69000         0.000415     -0.000440      0.583085
     -1.58988      6.42573     22.88000         0.000376      0.000041     -0.585732
     -1.59000      6.42591      5.50000        -0.000288     -0.000350      0.585431
     -1.59000      6.42591      8.69000        -0.000886     -0.000233     -0.584860
      0.00014      3.67228     19.69000        -0.000656     -0.000620      0.580463
     -0.00006      3.67197     22.88000         0.000080      0.000009     -0.586634
     -0.00000      3.67195      5.50000         0.000698     -0.000718      0.585986
     -0.00000      3.67195      8.69000        -0.001194     -0.000809     -0.584056
      1.58992      0.91794     19.69000        -0.000425      0.000252      0.585652
      1.58994      0.91805     22.88000        -0.000536     -0.000186     -0.586072
      1.59000      0.91799      5.50000        -0.000502      0.000662      0.586324
      1.59000      0.91799      8.69000         0.000348     -0.000905     -0.585019
     -3.18000      9.17987      8.69000        -0.000332     -0.000011     -0.585157
      3.17962      3.67226     19.69000        -0.000120     -0.000831      0.572116
      1.59000      6.42591      8.69000         0.000636      0.001075     -0.574171
      1.59000      6.42591      5.50000         0.000968     -0.000556      0.586208
      1.59000     11.93383      8.69000        -0.000594      0.001481     -0.585462
      3.17965      9.17930     19.69000         0.000304      0.001868      0.571882
      3.18003      9.17989     22.88000        -0.000553      0.000041     -0.584639
      3.18000      9.17987      5.50000         0.001094     -0.000652      0.586039
      3.18000      9.17987      8.69000        -0.000668     -0.000980     -0.579052
      4.76913      6.42636     19.69000         0.001176     -0.000439      0.573473
      4.76986      6.42597     22.88000        -0.000581      0.000459     -0.590568
      4.77000      6.42591      5.50000         0.000005     -0.000617      0.585413
      4.77000      6.42591      8.69000         0.003294     -0.003117     -0.570570
      6.36000      3.67183     19.69000        -0.000302      0.000567      0.578377
      6.36003      3.67198     22.88000        -0.000213      0.000024     -0.587636
      6.36000      3.67195      5.50000        -0.000649      0.000876      0.583598
      6.36000      3.67195      8.69000        -0.003034      0.001387     -0.570274
      7.95014      0.91788     19.69000         0.000033     -0.000370      0.587182
      7.94992     11.93386     22.88000        -0.000259      0.000559     -0.585964
      7.95000      0.91799      5.50000         0.000206      0.000655      0.585122
      7.95000      0.91799      8.69000         0.000139      0.001337     -0.583780
     -1.58990     11.93365     19.69000         0.000231      0.000019      0.586571
     -1.59002     11.93383     22.88000         0.000552     -0.000388     -0.586532
     -1.59000     11.93383      5.50000        -0.000087      0.000330      0.585241
     -1.59000     11.93383      8.69000        -0.000229      0.000937     -0.585550
      0.00009      9.17973     19.69000         0.000195     -0.000039      0.579567
      0.00011      9.17980     22.88000         0.000352     -0.000414     -0.582701
      0.00000      9.17987      5.50000        -0.000079      0.000190      0.586333
      0.00000      9.17987      8.69000        -0.000363      0.000281     -0.583184
      1.59001      6.42592     19.69000        -0.001154     -0.000117      0.563856
      1.59005      6.42582     22.88000        -0.000748      0.000071     -0.580371
      1.59022     11.93385     22.88000         0.000252     -0.000279     -0.586171
      7.94996     11.93389     19.69000        -0.000334      0.000426      0.586391
 -----------------------------------------------------------------------------------
    total drift:                                0.001138      0.000791     -0.004937


--------------------------------------------------------------------------------------------------------



  FREE ENERGIE OF THE ION-ELECTRON SYSTEM (eV)
  ---------------------------------------------------
  free  energy   TOTEN  =     -1253.20413619 eV

  energy  without entropy=    -1253.06808060  energy(sigma->0) =    -1253.13610840
 
 d Force = 0.3975820E-05[-0.865E-05, 0.166E-04]  d Energy =-0.4980821E-04 0.538E-04
 d Force =-0.3121598E+00[-0.312E+00,-0.312E+00]  d Ewald  =-0.3121600E+00 0.143E-06


--------------------------------------------------------------------------------------------------------


    POTLOK:  cpu time    0.4179: real time    0.4203


--------------------------------------------------------------------------------------------------------




--------------------------------------------------------------------------------------------------------


  
 reached required accuracy - stopping structural energy minimisation
     LOOP+:  cpu time   74.7434: real time   80.3476
    4ORBIT:  cpu time    0.0000: real time    0.0000

 total amount of memory used by VASP MPI-rank0   156590. kBytes
=======================================================================

   base      :      30000. kBytes
   nonlr-proj:      23537. kBytes
   fftplans  :      28265. kBytes
   grid      :      62703. kBytes
   one-center:        334. kBytes
   wavefun   :      11751. kBytes
 
  
  
 General timing and accounting informations for this job:
 ========================================================
  
                  Total CPU time used (sec):     3868.594
                            User time (sec):     3846.826
                          System time (sec):       21.768
                         Elapsed time (sec):     4094.204
  
                   Maximum memory used (kb):      318904.
                   Average memory used (kb):           0.
  
                          Minor page faults:      2814374
                          Major page faults:           62
                 Voluntary context switches:         2054
