<?xml version="1.0" encoding="ISO-8859-1"?>
<modeling>
 <generator>
  <i name="program" type="string">vasp </i>
  <i name="version" type="string">5.4.4.18Apr17-6-g9f103f2a35  </i>
  <i name="subversion" type="string">(build Oct 28 2020 13:00:36) gamma-only         parallel </i>
  <i name="platform" type="string">LinuxIFC </i>
  <i name="date" type="string">2020 12 03 </i>
  <i name="time" type="string">21:33:07 </i>
 </generator>
 <incar>
  <i type="string" name="SYSTEM"> basalPlane</i>
  <i type="int" name="ISTART">     0</i>
  <i type="string" name="PREC">accurate  !=accurate, max(enmax) no wra</i>
  <i type="string" name="ALGO"> Normal    !=Normal, blocked Davidson it</i>
  <i type="int" name="NSIM">     4</i>
  <i type="int" name="ISPIN">     1</i>
  <i type="int" name="ICHARG">     2</i>
  <i type="int" name="INIWAV">     1</i>
  <i type="int" name="NELM">   200</i>
  <i type="int" name="NELMDL">    -5</i>
  <i type="int" name="NELMIN">     2</i>
  <i type="int" name="IBRION">     2</i>
  <i name="EDIFF">      0.00010000</i>
  <i name="EDIFFG">     -0.02000000</i>
  <i type="int" name="NSW"> 10000</i>
  <i type="int" name="ISIF">     2</i>
  <i type="int" name="ISYM">     2</i>
  <i name="ENCUT">    400.00000000</i>
  <i name="ENAUG">    645.00000000</i>
  <i type="string" name="LREAL"> Auto     !=Auto projection operators ev</i>
  <i type="logical" name="LPLANE"> T  </i>
  <i type="int" name="ISMEAR">     0</i>
  <i name="SIGMA">      0.10000000</i>
  <i type="int" name="NWRITE">     2</i>
  <i type="logical" name="LWAVE"> F  </i>
  <i type="logical" name="LCHARG"> F  </i>
  <i type="int" name="LORBIT">     0</i>
  <i type="logical" name="LELF"> F  </i>
  <i type="logical" name="LSCALU"> F  </i>
  <v type="int" name="KPOINT_BSE">    -1     0     0     0</v>
  <i type="int" name="NELM">   200</i>
 </incar>
 <structure name="primitive_cell" >
  <crystal>
   <varray name="basis" >
    <v>      15.90000000       0.00000000       0.00000000 </v>
    <v>      -7.95000000      13.76980392       0.00000000 </v>
    <v>       0.00000000       0.00000000      32.38000000 </v>
   </varray>
   <i name="volume">   7089.27338987 </i>
   <varray name="rec_basis" >
    <v>       0.06289308       0.03631134       0.00000000 </v>
    <v>       0.00000000       0.07262268       0.00000000 </v>
    <v>       0.00000000       0.00000000       0.03088326 </v>
   </varray>
  </crystal>
  <varray name="positions" >
   <v>       0.48133604       0.35074345       0.38597198 </v>
   <v>       0.46304821       0.35522001       0.35397105 </v>
   <v>       0.41901282       0.28034247       0.41522943 </v>
   <v>      -0.43084229       0.41799354       0.40636724 </v>
   <v>       0.45250538       0.42308301       0.43763998 </v>
   <v>       0.34561776       0.22150425       0.40923499 </v>
   <v>      -0.36946379       0.48057086       0.39215997 </v>
   <v>       0.46768327       0.30303523       0.45435897 </v>
   <v>      -0.43835425       0.38890725       0.44897138 </v>
   <v>       0.43942424       0.26198140       0.48279235 </v>
   <v>      -0.38228043       0.42346437       0.47239618 </v>
   <v>       0.41270908      -0.46888203       0.42072155 </v>
   <v>       0.33076385       0.44273915       0.43521782 </v>
   <v>       0.42167588      -0.43835323       0.38987967 </v>
   <v>       0.26477767       0.39674907       0.41790386 </v>
   <v>       0.48215501      -0.42955733       0.45321108 </v>
   <v>      -0.46666667       0.46666667       0.26837554 </v>
   <v>       0.35073127       0.42783702       0.47728676 </v>
   <v>      -0.46666667       0.26666667       0.26837554 </v>
   <v>       0.33333333       0.26666667       0.26837554 </v>
   <v>       0.44492639      -0.49260098       0.48802200 </v>
   <v>      -0.44617897      -0.36517542       0.45108713 </v>
   <v>       0.30231976       0.36882200       0.49756701 </v>
   <v>       0.48208294      -0.48285903      -0.48266690 </v>
   <v>      -0.26666667       0.46666667       0.26837554 </v>
   <v>       0.33333333       0.46666667       0.26837554 </v>
   <v>       0.33333333       0.06666667       0.26837554 </v>
   <v>      -0.40000000       0.40000000       0.21911674 </v>
   <v>       0.40000000       0.40000000       0.21911674 </v>
   <v>       0.40000000       0.20000000       0.21911674 </v>
   <v>      -0.26666667      -0.33333333       0.26837554 </v>
   <v>      -0.46666667      -0.33333333       0.26837554 </v>
   <v>      -0.26666667       0.26666667       0.26837554 </v>
   <v>      -0.46666667       0.06666667       0.26837554 </v>
   <v>       0.13333333       0.26666667       0.26837554 </v>
   <v>       0.13333333       0.06666667       0.26837554 </v>
   <v>      -0.40000000      -0.40000000       0.21911674 </v>
   <v>      -0.40000000       0.20000000       0.21911674 </v>
   <v>       0.20000000       0.20000000       0.21911674 </v>
   <v>      -0.20000000      -0.40000000       0.21911674 </v>
   <v>      -0.20000000       0.40000000       0.21911674 </v>
   <v>      -0.46666667       0.46666667       0.16985794 </v>
   <v>       0.40000000      -0.40000000       0.21911674 </v>
   <v>      -0.46666667       0.26666667       0.16985794 </v>
   <v>       0.33333333       0.26666667       0.16985794 </v>
   <v>       0.20000000       0.40000000       0.21911674 </v>
   <v>      -0.46666667       0.46666667      -0.39190859 </v>
   <v>       0.40000000       0.00000000       0.21911674 </v>
   <v>      -0.06666667      -0.33333333       0.26837554 </v>
   <v>      -0.46666667       0.26666667      -0.39190859 </v>
   <v>       0.20000000       0.00000000       0.21911674 </v>
   <v>       0.33333333       0.26666667      -0.39190859 </v>
   <v>      -0.06666667       0.46666667       0.26837554 </v>
   <v>       0.33333333      -0.33333333       0.26837554 </v>
   <v>       0.13333333       0.46666667       0.26837554 </v>
   <v>      -0.26666667       0.46666667       0.16985794 </v>
   <v>       0.33333333      -0.13333333       0.26837554 </v>
   <v>       0.13333333      -0.13333333       0.26837554 </v>
   <v>       0.33333333       0.46666667       0.16985794 </v>
   <v>      -0.26666667       0.46666667      -0.39190859 </v>
   <v>       0.33333333       0.06666667       0.16985794 </v>
   <v>      -0.26666667      -0.13333333       0.26837554 </v>
   <v>       0.33333333       0.46666667      -0.39190859 </v>
   <v>       0.33333333       0.06666667      -0.39190859 </v>
   <v>      -0.26666667       0.06666667       0.26837554 </v>
   <v>      -0.20000000      -0.20000000       0.21911674 </v>
   <v>      -0.26666667      -0.33333333       0.16985794 </v>
   <v>      -0.40000000      -0.20000000       0.21911674 </v>
   <v>      -0.46666667      -0.33333333       0.16985794 </v>
   <v>      -0.06666667       0.06666667       0.26837554 </v>
   <v>      -0.26666667       0.26666667       0.16985794 </v>
   <v>      -0.20000000       0.20000000       0.21911674 </v>
   <v>      -0.26666667      -0.33333333      -0.39190859 </v>
   <v>      -0.46666667      -0.33333333      -0.39190859 </v>
   <v>      -0.46666667       0.06666667       0.16985794 </v>
   <v>       0.13333333       0.26666667       0.16985794 </v>
   <v>      -0.40000000       0.00000000       0.21911674 </v>
   <v>      -0.06666667      -0.13333333       0.26837554 </v>
   <v>      -0.26666667       0.26666667      -0.39190859 </v>
   <v>       0.13333333       0.06666667       0.16985794 </v>
   <v>       0.00000000       0.20000000       0.21911674 </v>
   <v>      -0.46666667      -0.13333333       0.26837554 </v>
   <v>       0.00000000       0.00000000       0.21911674 </v>
   <v>      -0.46666667       0.06666667      -0.39190859 </v>
   <v>       0.13333333       0.26666667      -0.39190859 </v>
   <v>      -0.06666667       0.26666667       0.26837554 </v>
   <v>       0.13333333       0.06666667      -0.39190859 </v>
   <v>      -0.40000000       0.40000000      -0.34264978 </v>
   <v>       0.00000000      -0.40000000       0.21911674 </v>
   <v>       0.40000000       0.40000000      -0.34264978 </v>
   <v>       0.40000000       0.20000000      -0.34264978 </v>
   <v>       0.20000000      -0.40000000       0.21911674 </v>
   <v>       0.20000000      -0.20000000       0.21911674 </v>
   <v>      -0.40000000      -0.40000000      -0.34264978 </v>
   <v>       0.00000000      -0.20000000       0.21911674 </v>
   <v>      -0.06666667      -0.33333333       0.16985794 </v>
   <v>      -0.06666667       0.46666667       0.16985794 </v>
   <v>      -0.40000000       0.20000000      -0.34264978 </v>
   <v>       0.40000000      -0.20000000       0.21911674 </v>
   <v>       0.00000000       0.40000000       0.21911674 </v>
   <v>       0.33333333      -0.33333333       0.16985794 </v>
   <v>       0.20000000       0.20000000      -0.34264978 </v>
   <v>      -0.06666667      -0.33333333      -0.39190859 </v>
   <v>       0.13333333       0.46666667       0.16985794 </v>
   <v>      -0.06666667       0.46666667      -0.39190859 </v>
   <v>       0.33333333      -0.33333333      -0.39190859 </v>
   <v>       0.13333333      -0.33333333       0.26837554 </v>
   <v>       0.33333333      -0.13333333       0.16985794 </v>
   <v>       0.13333333       0.46666667      -0.39190859 </v>
   <v>       0.13333333      -0.13333333       0.16985794 </v>
   <v>       0.33333333      -0.13333333      -0.39190859 </v>
   <v>      -0.20000000      -0.40000000      -0.34264978 </v>
   <v>       0.13333333      -0.13333333      -0.39190859 </v>
   <v>      -0.26666667      -0.13333333       0.16985794 </v>
   <v>      -0.20000000       0.40000000      -0.34264978 </v>
   <v>       0.40000000      -0.40000000      -0.34264978 </v>
   <v>       0.20000000       0.40000000      -0.34264978 </v>
   <v>      -0.26666667      -0.13333333      -0.39190859 </v>
   <v>       0.40000000       0.00000000      -0.34264978 </v>
   <v>       0.20000000       0.00000000      -0.34264978 </v>
   <v>      -0.26666667       0.06666667       0.16985794 </v>
   <v>      -0.06666667       0.06666667       0.16985794 </v>
   <v>      -0.26666667       0.06666667      -0.39190859 </v>
   <v>      -0.06666667       0.06666667      -0.39190859 </v>
   <v>      -0.06666667      -0.13333333       0.16985794 </v>
   <v>      -0.20000000       0.00000000       0.21911674 </v>
   <v>      -0.46666667      -0.13333333       0.16985794 </v>
   <v>      -0.46666667       0.46666667      -0.29339098 </v>
   <v>      -0.46666667       0.26666667      -0.29339098 </v>
   <v>      -0.06666667      -0.13333333      -0.39190859 </v>
   <v>       0.33333333       0.26666667      -0.29339098 </v>
   <v>      -0.06666667       0.26666667       0.16985794 </v>
   <v>      -0.46666667      -0.13333333      -0.39190859 </v>
   <v>      -0.06666667       0.26666667      -0.39190859 </v>
   <v>      -0.20000000      -0.20000000      -0.34264978 </v>
   <v>      -0.40000000      -0.20000000      -0.34264978 </v>
   <v>      -0.26666667       0.46666667      -0.29339098 </v>
   <v>      -0.20000000       0.20000000      -0.34264978 </v>
   <v>       0.33333333       0.46666667      -0.29339098 </v>
   <v>      -0.40000000       0.00000000      -0.34264978 </v>
   <v>       0.33333333       0.06666667      -0.29339098 </v>
   <v>       0.00000000       0.20000000      -0.34264978 </v>
   <v>       0.00000000       0.00000000      -0.34264978 </v>
   <v>       0.00000000      -0.40000000      -0.34264978 </v>
   <v>      -0.26666667      -0.33333333      -0.29339098 </v>
   <v>      -0.46666667      -0.33333333      -0.29339098 </v>
   <v>       0.13333333      -0.33333333       0.16985794 </v>
   <v>       0.20000000      -0.40000000      -0.34264978 </v>
   <v>      -0.26666667       0.26666667      -0.29339098 </v>
   <v>       0.13333333      -0.33333333      -0.39190859 </v>
   <v>      -0.46666667       0.06666667      -0.29339098 </v>
   <v>       0.13333333       0.26666667      -0.29339098 </v>
   <v>       0.13333333       0.06666667      -0.29339098 </v>
   <v>       0.20000000      -0.20000000      -0.34264978 </v>
   <v>       0.00000000      -0.20000000      -0.34264978 </v>
   <v>       0.40000000      -0.20000000      -0.34264978 </v>
   <v>       0.00000000       0.40000000      -0.34264978 </v>
   <v>      -0.06666667      -0.33333333      -0.29339098 </v>
   <v>      -0.06666667       0.46666667      -0.29339098 </v>
   <v>       0.33333333      -0.33333333      -0.29339098 </v>
   <v>       0.13333333       0.46666667      -0.29339098 </v>
   <v>       0.33333333      -0.13333333      -0.29339098 </v>
   <v>       0.13333333      -0.13333333      -0.29339098 </v>
   <v>      -0.20000000       0.00000000      -0.34264978 </v>
   <v>      -0.26666667      -0.13333333      -0.29339098 </v>
   <v>      -0.26666667       0.06666667      -0.29339098 </v>
   <v>      -0.06666667       0.06666667      -0.29339098 </v>
   <v>      -0.06666667      -0.13333333      -0.29339098 </v>
   <v>      -0.46666667      -0.13333333      -0.29339098 </v>
   <v>      -0.06666667       0.26666667      -0.29339098 </v>
   <v>       0.13333333      -0.33333333      -0.29339098 </v>
  </varray>
 </structure>
 <varray name="primitive_index" >
  <v type="int" >        1 </v>
  <v type="int" >       18 </v>
  <v type="int" >        2 </v>
  <v type="int" >        3 </v>
  <v type="int" >       11 </v>
  <v type="int" >       17 </v>
  <v type="int" >       19 </v>
  <v type="int" >        5 </v>
  <v type="int" >        4 </v>
  <v type="int" >       12 </v>
  <v type="int" >       20 </v>
  <v type="int" >       10 </v>
  <v type="int" >        6 </v>
  <v type="int" >       21 </v>
  <v type="int" >       14 </v>
  <v type="int" >        9 </v>
  <v type="int" >      151 </v>
  <v type="int" >        8 </v>
  <v type="int" >      155 </v>
  <v type="int" >      114 </v>
  <v type="int" >        7 </v>
  <v type="int" >       16 </v>
  <v type="int" >       13 </v>
  <v type="int" >       15 </v>
  <v type="int" >       90 </v>
  <v type="int" >      141 </v>
  <v type="int" >      118 </v>
  <v type="int" >       40 </v>
  <v type="int" >       42 </v>
  <v type="int" >       39 </v>
  <v type="int" >      102 </v>
  <v type="int" >      147 </v>
  <v type="int" >       78 </v>
  <v type="int" >      159 </v>
  <v type="int" >      134 </v>
  <v type="int" >      138 </v>
  <v type="int" >       35 </v>
  <v type="int" >       45 </v>
  <v type="int" >       32 </v>
  <v type="int" >       67 </v>
  <v type="int" >       68 </v>
  <v type="int" >      150 </v>
  <v type="int" >       36 </v>
  <v type="int" >      154 </v>
  <v type="int" >      113 </v>
  <v type="int" >       28 </v>
  <v type="int" >      148 </v>
  <v type="int" >       51 </v>
  <v type="int" >      107 </v>
  <v type="int" >      152 </v>
  <v type="int" >       54 </v>
  <v type="int" >      140 </v>
  <v type="int" >       79 </v>
  <v type="int" >      167 </v>
  <v type="int" >      130 </v>
  <v type="int" >       91 </v>
  <v type="int" >      163 </v>
  <v type="int" >      122 </v>
  <v type="int" >      142 </v>
  <v type="int" >      105 </v>
  <v type="int" >      117 </v>
  <v type="int" >       94 </v>
  <v type="int" >      168 </v>
  <v type="int" >      115 </v>
  <v type="int" >       86 </v>
  <v type="int" >       58 </v>
  <v type="int" >      100 </v>
  <v type="int" >       25 </v>
  <v type="int" >      146 </v>
  <v type="int" >      108 </v>
  <v type="int" >       77 </v>
  <v type="int" >       52 </v>
  <v type="int" >       97 </v>
  <v type="int" >      144 </v>
  <v type="int" >      158 </v>
  <v type="int" >      133 </v>
  <v type="int" >       50 </v>
  <v type="int" >       89 </v>
  <v type="int" >       73 </v>
  <v type="int" >      137 </v>
  <v type="int" >       59 </v>
  <v type="int" >      143 </v>
  <v type="int" >       55 </v>
  <v type="int" >      156 </v>
  <v type="int" >      131 </v>
  <v type="int" >      104 </v>
  <v type="int" >      135 </v>
  <v type="int" >       38 </v>
  <v type="int" >       64 </v>
  <v type="int" >       44 </v>
  <v type="int" >       41 </v>
  <v type="int" >       26 </v>
  <v type="int" >       23 </v>
  <v type="int" >       22 </v>
  <v type="int" >       70 </v>
  <v type="int" >      109 </v>
  <v type="int" >       95 </v>
  <v type="int" >       43 </v>
  <v type="int" >       49 </v>
  <v type="int" >       62 </v>
  <v type="int" >      166 </v>
  <v type="int" >       30 </v>
  <v type="int" >       76 </v>
  <v type="int" >      129 </v>
  <v type="int" >      101 </v>
  <v type="int" >      164 </v>
  <v type="int" >      139 </v>
  <v type="int" >      162 </v>
  <v type="int" >      127 </v>
  <v type="int" >      121 </v>
  <v type="int" >      160 </v>
  <v type="int" >       61 </v>
  <v type="int" >      119 </v>
  <v type="int" >       92 </v>
  <v type="int" >       65 </v>
  <v type="int" >       47 </v>
  <v type="int" >       34 </v>
  <v type="int" >       96 </v>
  <v type="int" >       37 </v>
  <v type="int" >       53 </v>
  <v type="int" >       84 </v>
  <v type="int" >       72 </v>
  <v type="int" >       80 </v>
  <v type="int" >       85 </v>
  <v type="int" >       83 </v>
  <v type="int" >       29 </v>
  <v type="int" >      112 </v>
  <v type="int" >      149 </v>
  <v type="int" >      153 </v>
  <v type="int" >      171 </v>
  <v type="int" >      125 </v>
  <v type="int" >       87 </v>
  <v type="int" >      110 </v>
  <v type="int" >      103 </v>
  <v type="int" >       56 </v>
  <v type="int" >       27 </v>
  <v type="int" >      106 </v>
  <v type="int" >       71 </v>
  <v type="int" >      169 </v>
  <v type="int" >       48 </v>
  <v type="int" >      116 </v>
  <v type="int" >       60 </v>
  <v type="int" >       57 </v>
  <v type="int" >       66 </v>
  <v type="int" >       98 </v>
  <v type="int" >      145 </v>
  <v type="int" >      126 </v>
  <v type="int" >       24 </v>
  <v type="int" >       74 </v>
  <v type="int" >      123 </v>
  <v type="int" >      111 </v>
  <v type="int" >      132 </v>
  <v type="int" >      136 </v>
  <v type="int" >       33 </v>
  <v type="int" >       69 </v>
  <v type="int" >       46 </v>
  <v type="int" >       63 </v>
  <v type="int" >       75 </v>
  <v type="int" >       99 </v>
  <v type="int" >      165 </v>
  <v type="int" >      128 </v>
  <v type="int" >      161 </v>
  <v type="int" >      120 </v>
  <v type="int" >       31 </v>
  <v type="int" >       93 </v>
  <v type="int" >       81 </v>
  <v type="int" >       82 </v>
  <v type="int" >      157 </v>
  <v type="int" >      170 </v>
  <v type="int" >       88 </v>
  <v type="int" >      124 </v>
 </varray>
 <kpoints>
  <varray name="kpointlist" >
   <v>       0.00000000       0.00000000       0.00000000 </v>
  </varray>
  <varray name="weights" >
   <v>       1.00000000 </v>
  </varray>
 </kpoints>
 <parameters>
  <separator name="general" >
   <i type="string" name="SYSTEM">basalPlane</i>
   <i type="logical" name="LCOMPAT"> F  </i>
  </separator>
  <separator name="electronic" >
   <i type="string" name="PREC">accura</i>
   <i name="ENMAX">    400.00000000</i>
   <i name="ENAUG">    645.00000000</i>
   <i name="EDIFF">      0.00010000</i>
   <i type="int" name="IALGO">    38</i>
   <i type="int" name="IWAVPR">    11</i>
   <i type="int" name="NBANDS">   585</i>
   <i name="NELECT">    956.00000000</i>
   <i type="int" name="TURBO">     0</i>
   <i type="int" name="IRESTART">     0</i>
   <i type="int" name="NREBOOT">     0</i>
   <i type="int" name="NMIN">     0</i>
   <i name="EREF">      0.00000000</i>
   <separator name="electronic smearing" >
    <i type="int" name="ISMEAR">     0</i>
    <i name="SIGMA">      0.10000000</i>
    <i name="KSPACING">      0.50000000</i>
    <i type="logical" name="KGAMMA"> T  </i>
   </separator>
   <separator name="electronic projectors" >
    <i type="logical" name="LREAL"> T  </i>
    <v name="ROPT">     -0.00025000     -0.00025000     -0.00025000     -0.00025000     -0.00025000</v>
    <i type="int" name="LMAXPAW">  -100</i>
    <i type="int" name="LMAXMIX">     2</i>
    <i type="logical" name="NLSPLINE"> F  </i>
   </separator>
   <separator name="electronic startup" >
    <i type="int" name="ISTART">     0</i>
    <i type="int" name="ICHARG">     2</i>
    <i type="int" name="INIWAV">     1</i>
   </separator>
   <separator name="electronic spin" >
    <i type="int" name="ISPIN">     1</i>
    <i type="logical" name="LNONCOLLINEAR"> F  </i>
    <v name="MAGMOM">      1.00000000      1.00000000      1.00000000      1.00000000      1.00000000      1.00000000      1.00000000      1.00000000      1.00000000      1.00000000      1.00000000      1.00000000      1.00000000      1.00000000      1.00000000      1.00000000      1.00000000      1.00000000      1.00000000      1.00000000
      1.00000000      1.00000000      1.00000000      1.00000000      1.00000000      1.00000000      1.00000000      1.00000000      1.00000000      1.00000000      1.00000000      1.00000000      1.00000000      1.00000000      1.00000000      1.00000000      1.00000000      1.00000000      1.00000000      1.00000000
      1.00000000      1.00000000      1.00000000      1.00000000      1.00000000      1.00000000      1.00000000      1.00000000      1.00000000      1.00000000      1.00000000      1.00000000      1.00000000      1.00000000      1.00000000      1.00000000      1.00000000      1.00000000      1.00000000      1.00000000
      1.00000000      1.00000000      1.00000000      1.00000000      1.00000000      1.00000000      1.00000000      1.00000000      1.00000000      1.00000000      1.00000000      1.00000000      1.00000000      1.00000000      1.00000000      1.00000000      1.00000000      1.00000000      1.00000000      1.00000000
      1.00000000      1.00000000      1.00000000      1.00000000      1.00000000      1.00000000      1.00000000      1.00000000      1.00000000      1.00000000      1.00000000      1.00000000      1.00000000      1.00000000      1.00000000      1.00000000      1.00000000      1.00000000      1.00000000      1.00000000
      1.00000000      1.00000000      1.00000000      1.00000000      1.00000000      1.00000000      1.00000000      1.00000000      1.00000000      1.00000000      1.00000000      1.00000000      1.00000000      1.00000000      1.00000000      1.00000000      1.00000000      1.00000000      1.00000000      1.00000000
      1.00000000      1.00000000      1.00000000      1.00000000      1.00000000      1.00000000      1.00000000      1.00000000      1.00000000      1.00000000      1.00000000      1.00000000      1.00000000      1.00000000      1.00000000      1.00000000      1.00000000      1.00000000      1.00000000      1.00000000
      1.00000000      1.00000000      1.00000000      1.00000000      1.00000000      1.00000000      1.00000000      1.00000000      1.00000000      1.00000000      1.00000000      1.00000000      1.00000000      1.00000000      1.00000000      1.00000000      1.00000000      1.00000000      1.00000000      1.00000000
      1.00000000      1.00000000      1.00000000      1.00000000      1.00000000      1.00000000      1.00000000      1.00000000      1.00000000      1.00000000      1.00000000</v>
    <i name="NUPDOWN">     -1.00000000</i>
    <i type="logical" name="LSORBIT"> F  </i>
    <v name="SAXIS">      0.00000000      0.00000000      1.00000000</v>
    <i type="logical" name="LSPIRAL"> F  </i>
    <v name="QSPIRAL">      0.00000000      0.00000000      0.00000000</v>
    <i type="logical" name="LZEROZ"> F  </i>
   </separator>
   <separator name="electronic exchange-correlation" >
    <i type="logical" name="LASPH"> F  </i>
    <i type="logical" name="LMETAGGA"> F  </i>
   </separator>
   <separator name="electronic convergence" >
    <i type="int" name="NELM">   200</i>
    <i type="int" name="NELMDL">    -5</i>
    <i type="int" name="NELMIN">     2</i>
    <i name="ENINI">    400.00000000</i>
    <separator name="electronic convergence detail" >
     <i type="logical" name="LDIAG"> T  </i>
     <i type="logical" name="LSUBROT"> F  </i>
     <i name="WEIMIN">      0.00100000</i>
     <i name="EBREAK">      0.00000004</i>
     <i name="DEPER">      0.30000000</i>
     <i type="int" name="NRMM">     4</i>
     <i name="TIME">      0.40000000</i>
    </separator>
   </separator>
   <separator name="electronic mixer" >
    <i name="AMIX">      0.40000000</i>
    <i name="BMIX">      1.00000000</i>
    <i name="AMIN">      0.10000000</i>
    <i name="AMIX_MAG">      1.60000000</i>
    <i name="BMIX_MAG">      1.00000000</i>
    <separator name="electronic mixer details" >
     <i type="int" name="IMIX">     4</i>
     <i type="logical" name="MIXFIRST"> F  </i>
     <i type="int" name="MAXMIX">   -45</i>
     <i name="WC">    100.00000000</i>
     <i type="int" name="INIMIX">     1</i>
     <i type="int" name="MIXPRE">     1</i>
     <i type="int" name="MREMOVE">     5</i>
    </separator>
   </separator>
   <separator name="electronic dipolcorrection" >
    <i type="logical" name="LDIPOL"> F  </i>
    <i type="logical" name="LMONO"> F  </i>
    <i type="int" name="IDIPOL">     0</i>
    <i name="EPSILON">      1.00000000</i>
    <v name="DIPOL">   -100.00000000   -100.00000000   -100.00000000</v>
    <i name="EFIELD">      0.00000000</i>
   </separator>
  </separator>
  <separator name="grids" >
   <i type="int" name="NGX">   108</i>
   <i type="int" name="NGY">   108</i>
   <i type="int" name="NGZ">   216</i>
   <i type="int" name="NGXF">   216</i>
   <i type="int" name="NGYF">   216</i>
   <i type="int" name="NGZF">   432</i>
   <i type="logical" name="ADDGRID"> F  </i>
  </separator>
  <separator name="ionic" >
   <i type="int" name="NSW"> 10000</i>
   <i type="int" name="IBRION">     2</i>
   <i type="int" name="MDALGO">     0</i>
   <i type="int" name="ISIF">     2</i>
   <i name="PSTRESS">      0.00000000</i>
   <i name="EDIFFG">     -0.02000000</i>
   <i type="int" name="NFREE">     1</i>
   <i name="POTIM">      0.50000000</i>
   <i name="SMASS">     -3.00000000</i>
   <i name="SCALEE">      1.00000000</i>
  </separator>
  <separator name="ionic md" >
   <i name="TEBEG">      0.00010000</i>
   <i name="TEEND">      0.00010000</i>
   <i type="int" name="NBLOCK">     1</i>
   <i type="int" name="KBLOCK"> 10000</i>
   <i type="int" name="NPACO">   256</i>
   <i name="APACO">     16.00000000</i>
  </separator>
  <separator name="symmetry" >
   <i type="int" name="ISYM">     2</i>
   <i name="SYMPREC">      0.00001000</i>
  </separator>
  <separator name="dos" >
   <i type="int" name="LORBIT">     0</i>
   <v name="RWIGS">     -1.00000000     -1.00000000     -1.00000000     -1.00000000     -1.00000000</v>
   <i type="int" name="NEDOS">   301</i>
   <i name="EMIN">     10.00000000</i>
   <i name="EMAX">    -10.00000000</i>
   <i name="EFERMI">      0.00000000</i>
  </separator>
  <separator name="writing" >
   <i type="int" name="NWRITE">     2</i>
   <i type="logical" name="LWAVE"> F  </i>
   <i type="logical" name="LDOWNSAMPLE"> F  </i>
   <i type="logical" name="LCHARG"> F  </i>
   <i type="logical" name="LPARD"> F  </i>
   <i type="logical" name="LVTOT"> F  </i>
   <i type="logical" name="LVHAR"> F  </i>
   <i type="logical" name="LELF"> F  </i>
   <i type="logical" name="LOPTICS"> F  </i>
   <v name="STM">      0.00000000      0.00000000      0.00000000      0.00000000      0.00000000      0.00000000      0.00000000</v>
  </separator>
  <separator name="performance" >
   <i type="int" name="NPAR">    13</i>
   <i type="int" name="NSIM">     4</i>
   <i type="int" name="NBLK">    -1</i>
   <i type="logical" name="LPLANE"> T  </i>
   <i type="logical" name="LSCALAPACK"> T  </i>
   <i type="logical" name="LSCAAWARE"> F  </i>
   <i type="logical" name="LSCALU"> F  </i>
   <i type="logical" name="LASYNC"> F  </i>
   <i type="logical" name="LORBITALREAL"> F  </i>
  </separator>
  <separator name="miscellaneous" >
   <i type="int" name="IDIOT">     3</i>
   <i type="int" name="ISPECIAL">     0</i>
   <i type="logical" name="LMUSIC"> F  </i>
   <v name="POMASS">     12.01100000     51.99600000      1.00000000     95.94000000     32.06600000</v>
   <v name="DARWINR">      0.00000000      0.00000000      0.00000000      0.00000000      0.00000000</v>
   <v name="DARWINV">      1.00000000      1.00000000      1.00000000      1.00000000      1.00000000</v>
   <i type="logical" name="LCORR"> T  </i>
  </separator>
  <i type="logical" name="GGA_COMPAT"> T  </i>
  <i type="logical" name="LBERRY"> F  </i>
  <i type="int" name="ICORELEVEL">     0</i>
  <i type="logical" name="LDAU"> F  </i>
  <i type="int" name="I_CONSTRAINED_M">     0</i>
  <separator name="electronic exchange-correlation" >
   <i type="string" name="GGA">--</i>
   <i type="int" name="VOSKOWN">     0</i>
   <i type="logical" name="LHFCALC"> F  </i>
   <i type="string" name="PRECFOCK"></i>
   <i type="logical" name="LSYMGRAD"> F  </i>
   <i type="logical" name="LHFONE"> F  </i>
   <i type="logical" name="LRHFCALC"> F  </i>
   <i type="logical" name="LTHOMAS"> F  </i>
   <i type="logical" name="LMODELHF"> F  </i>
   <i name="ENCUT4O">     -1.00000000</i>
   <i type="int" name="EXXOEP">     0</i>
   <i type="int" name="FOURORBIT">     0</i>
   <i name="AEXX">      0.00000000</i>
   <i name="HFALPHA">      0.00000000</i>
   <i name="MCALPHA">      0.00000000</i>
   <i name="ALDAX">      1.00000000</i>
   <i name="AGGAX">      1.00000000</i>
   <i name="ALDAC">      1.00000000</i>
   <i name="AGGAC">      1.00000000</i>
   <i type="int" name="NKREDX">     1</i>
   <i type="int" name="NKREDY">     1</i>
   <i type="int" name="NKREDZ">     1</i>
   <i type="logical" name="SHIFTRED"> F  </i>
   <i type="logical" name="ODDONLY"> F  </i>
   <i type="logical" name="EVENONLY"> F  </i>
   <i type="int" name="LMAXFOCK">     0</i>
   <i type="int" name="NMAXFOCKAE">     0</i>
   <i type="logical" name="LFOCKAEDFT"> F  </i>
   <i name="HFSCREEN">      0.00000000</i>
   <i name="HFSCREENC">      0.00000000</i>
   <i type="int" name="NBANDSGWLOW">     0</i>
  </separator>
  <separator name="vdW DFT" >
   <i type="logical" name="LUSE_VDW"> F  </i>
   <i name="Zab_VDW">     -0.84910000</i>
   <i name="PARAM1">      0.12340000</i>
   <i name="PARAM2">      1.00000000</i>
   <i name="PARAM3">      0.00000000</i>
  </separator>
  <separator name="model GW" >
   <i type="int" name="MODEL_GW">     0</i>
   <i name="MODEL_EPS0">     24.87464347</i>
   <i name="MODEL_ALPHA">      1.00000000</i>
  </separator>
  <separator name="linear response parameters" >
   <i type="logical" name="LEPSILON"> F  </i>
   <i type="logical" name="LRPA"> F  </i>
   <i type="logical" name="LNABLA"> F  </i>
   <i type="logical" name="LVEL"> F  </i>
   <i type="int" name="KINTER">     0</i>
   <i name="CSHIFT">      0.10000000</i>
   <i name="OMEGAMAX">     -1.00000000</i>
   <i name="DEG_THRESHOLD">      0.00200000</i>
   <i name="RTIME">     -0.10000000</i>
   <i name="WPLASMAI">      0.00000000</i>
   <v name="DFIELD">      0.00000000      0.00000000      0.00000000</v>
   <v name="WPLASMA">      0.00000000      0.00000000      0.00000000      0.00000000      0.00000000      0.00000000      0.00000000      0.00000000      0.00000000</v>
  </separator>
  <separator name="orbital magnetization" >
   <i type="logical" name="NUCIND"> F  </i>
   <v name="MAGPOS">      0.00000000      0.00000000      0.00000000</v>
   <i type="logical" name="LNICSALL"> T  </i>
   <i type="logical" name="ORBITALMAG"> F  </i>
   <i type="logical" name="LMAGBLOCH"> F  </i>
   <i type="logical" name="LCHIMAG"> F  </i>
   <i type="logical" name="LGAUGE"> T  </i>
   <i type="int" name="MAGATOM">     0</i>
   <v name="MAGDIPOL">      0.00000000      0.00000000      0.00000000</v>
   <v name="AVECCONST">      0.00000000      0.00000000      0.00000000</v>
  </separator>
  <separator name="response functions" >
   <i type="logical" name="LADDER"> F  </i>
   <i type="logical" name="LRPAFORCE"> F  </i>
   <i type="logical" name="LFXC"> F  </i>
   <i type="logical" name="LHARTREE"> T  </i>
   <i type="int" name="IBSE">     0</i>
   <v type="int" name="KPOINT">    -1     0     0     0</v>
   <i type="logical" name="LTCTE"> F  </i>
   <i type="logical" name="LTETE"> F  </i>
   <i type="logical" name="LTRIPLET"> F  </i>
   <i type="logical" name="LFXCEPS"> F  </i>
   <i type="logical" name="LFXHEG"> F  </i>
   <i type="int" name="NATURALO">     2</i>
   <i type="logical" name="L2ORDER"> F  </i>
   <i type="logical" name="LMP2LT"> F  </i>
   <i type="logical" name="LUSEW"> F  </i>
   <i name="ENCUTGW">     -2.00000000</i>
   <i name="ENCUTGWSOFT">     -2.00000000</i>
   <i name="ENCUTLF">     -1.00000000</i>
   <i type="int" name="LMAXMP2">    -1</i>
   <i name="SCISSOR">      0.00000000</i>
   <i type="int" name="NOMEGA">     0</i>
   <i type="int" name="NOMEGAR">     0</i>
   <i type="int" name="NBANDSGW">    -1</i>
   <i type="int" name="NBANDSO">    -1</i>
   <i type="int" name="NBANDSV">    -1</i>
   <i type="int" name="NELM">   200</i>
   <i type="int" name="NELMHF">     1</i>
   <i type="int" name="DIM">     3</i>
   <i type="int" name="ANTIRES">     0</i>
   <i name="OMEGAMAX">    -30.00000000</i>
   <i name="OMEGAMIN">    -30.00000000</i>
   <i name="OMEGATL">   -200.00000000</i>
   <i type="int" name="OMEGAGRID">   140</i>
   <i name="CSHIFT">     -0.10000000</i>
   <i type="logical" name="SELFENERGY"> F  </i>
   <i type="logical" name="LSPECTRAL"> F  </i>
   <i type="logical" name="LSPECTRALGW"> F  </i>
   <i type="logical" name="LSINGLES"> F  </i>
   <i type="logical" name="LFERMIGW"> F  </i>
   <i type="logical" name="ODDONLYGW"> F  </i>
   <i type="logical" name="EVENONLYGW"> F  </i>
   <i type="int" name="NKREDLFX">     1</i>
   <i type="int" name="NKREDLFY">     1</i>
   <i type="int" name="NKREDLFZ">     1</i>
   <i type="int" name="MAXMEM">  2800</i>
   <i type="int" name="TELESCOPE">     0</i>
   <i type="int" name="TAUPAR">     1</i>
   <i type="int" name="OMEGAPAR">    -1</i>
   <i name="LAMBDA">      1.00000000</i>
  </separator>
  <separator name="External order field" >
   <i name="OFIELD_KAPPA">      0.00000000</i>
   <v name="OFIELD_K">      0.00000000      0.00000000      0.00000000</v>
   <i name="OFIELD_Q6_NEAR">      0.00000000</i>
   <i name="OFIELD_Q6_FAR">      0.00000000</i>
   <i name="OFIELD_A">      0.00000000</i>
  </separator>
 </parameters>
 <atominfo>
  <atoms>     171 </atoms>
  <types>       5 </types>
  <array name="atoms" >
   <dimension dim="1">ion</dimension>
   <field type="string">element</field>
   <field type="int">atomtype</field>
   <set>
    <rc><c>C </c><c>   1</c></rc>
    <rc><c>C </c><c>   1</c></rc>
    <rc><c>C </c><c>   1</c></rc>
    <rc><c>C </c><c>   1</c></rc>
    <rc><c>C </c><c>   1</c></rc>
    <rc><c>C </c><c>   1</c></rc>
    <rc><c>C </c><c>   1</c></rc>
    <rc><c>C </c><c>   1</c></rc>
    <rc><c>C </c><c>   1</c></rc>
    <rc><c>C </c><c>   1</c></rc>
    <rc><c>Cr</c><c>   2</c></rc>
    <rc><c>H </c><c>   3</c></rc>
    <rc><c>H </c><c>   3</c></rc>
    <rc><c>H </c><c>   3</c></rc>
    <rc><c>H </c><c>   3</c></rc>
    <rc><c>H </c><c>   3</c></rc>
    <rc><c>H </c><c>   3</c></rc>
    <rc><c>H </c><c>   3</c></rc>
    <rc><c>H </c><c>   3</c></rc>
    <rc><c>H </c><c>   3</c></rc>
    <rc><c>H </c><c>   3</c></rc>
    <rc><c>Mo</c><c>   4</c></rc>
    <rc><c>Mo</c><c>   4</c></rc>
    <rc><c>Mo</c><c>   4</c></rc>
    <rc><c>Mo</c><c>   4</c></rc>
    <rc><c>Mo</c><c>   4</c></rc>
    <rc><c>Mo</c><c>   4</c></rc>
    <rc><c>Mo</c><c>   4</c></rc>
    <rc><c>Mo</c><c>   4</c></rc>
    <rc><c>Mo</c><c>   4</c></rc>
    <rc><c>Mo</c><c>   4</c></rc>
    <rc><c>Mo</c><c>   4</c></rc>
    <rc><c>Mo</c><c>   4</c></rc>
    <rc><c>Mo</c><c>   4</c></rc>
    <rc><c>Mo</c><c>   4</c></rc>
    <rc><c>Mo</c><c>   4</c></rc>
    <rc><c>Mo</c><c>   4</c></rc>
    <rc><c>Mo</c><c>   4</c></rc>
    <rc><c>Mo</c><c>   4</c></rc>
    <rc><c>Mo</c><c>   4</c></rc>
    <rc><c>Mo</c><c>   4</c></rc>
    <rc><c>Mo</c><c>   4</c></rc>
    <rc><c>Mo</c><c>   4</c></rc>
    <rc><c>Mo</c><c>   4</c></rc>
    <rc><c>Mo</c><c>   4</c></rc>
    <rc><c>Mo</c><c>   4</c></rc>
    <rc><c>Mo</c><c>   4</c></rc>
    <rc><c>Mo</c><c>   4</c></rc>
    <rc><c>Mo</c><c>   4</c></rc>
    <rc><c>Mo</c><c>   4</c></rc>
    <rc><c>Mo</c><c>   4</c></rc>
    <rc><c>Mo</c><c>   4</c></rc>
    <rc><c>Mo</c><c>   4</c></rc>
    <rc><c>Mo</c><c>   4</c></rc>
    <rc><c>Mo</c><c>   4</c></rc>
    <rc><c>Mo</c><c>   4</c></rc>
    <rc><c>Mo</c><c>   4</c></rc>
    <rc><c>Mo</c><c>   4</c></rc>
    <rc><c>Mo</c><c>   4</c></rc>
    <rc><c>Mo</c><c>   4</c></rc>
    <rc><c>Mo</c><c>   4</c></rc>
    <rc><c>Mo</c><c>   4</c></rc>
    <rc><c>Mo</c><c>   4</c></rc>
    <rc><c>Mo</c><c>   4</c></rc>
    <rc><c>Mo</c><c>   4</c></rc>
    <rc><c>Mo</c><c>   4</c></rc>
    <rc><c>Mo</c><c>   4</c></rc>
    <rc><c>Mo</c><c>   4</c></rc>
    <rc><c>Mo</c><c>   4</c></rc>
    <rc><c>Mo</c><c>   4</c></rc>
    <rc><c>Mo</c><c>   4</c></rc>
    <rc><c>S </c><c>   5</c></rc>
    <rc><c>S </c><c>   5</c></rc>
    <rc><c>S </c><c>   5</c></rc>
    <rc><c>S </c><c>   5</c></rc>
    <rc><c>S </c><c>   5</c></rc>
    <rc><c>S </c><c>   5</c></rc>
    <rc><c>S </c><c>   5</c></rc>
    <rc><c>S </c><c>   5</c></rc>
    <rc><c>S </c><c>   5</c></rc>
    <rc><c>S </c><c>   5</c></rc>
    <rc><c>S </c><c>   5</c></rc>
    <rc><c>S </c><c>   5</c></rc>
    <rc><c>S </c><c>   5</c></rc>
    <rc><c>S </c><c>   5</c></rc>
    <rc><c>S </c><c>   5</c></rc>
    <rc><c>S </c><c>   5</c></rc>
    <rc><c>S </c><c>   5</c></rc>
    <rc><c>S </c><c>   5</c></rc>
    <rc><c>S </c><c>   5</c></rc>
    <rc><c>S </c><c>   5</c></rc>
    <rc><c>S </c><c>   5</c></rc>
    <rc><c>S </c><c>   5</c></rc>
    <rc><c>S </c><c>   5</c></rc>
    <rc><c>S </c><c>   5</c></rc>
    <rc><c>S </c><c>   5</c></rc>
    <rc><c>S </c><c>   5</c></rc>
    <rc><c>S </c><c>   5</c></rc>
    <rc><c>S </c><c>   5</c></rc>
    <rc><c>S </c><c>   5</c></rc>
    <rc><c>S </c><c>   5</c></rc>
    <rc><c>S </c><c>   5</c></rc>
    <rc><c>S </c><c>   5</c></rc>
    <rc><c>S </c><c>   5</c></rc>
    <rc><c>S </c><c>   5</c></rc>
    <rc><c>S </c><c>   5</c></rc>
    <rc><c>S </c><c>   5</c></rc>
    <rc><c>S </c><c>   5</c></rc>
    <rc><c>S </c><c>   5</c></rc>
    <rc><c>S </c><c>   5</c></rc>
    <rc><c>S </c><c>   5</c></rc>
    <rc><c>S </c><c>   5</c></rc>
    <rc><c>S </c><c>   5</c></rc>
    <rc><c>S </c><c>   5</c></rc>
    <rc><c>S </c><c>   5</c></rc>
    <rc><c>S </c><c>   5</c></rc>
    <rc><c>S </c><c>   5</c></rc>
    <rc><c>S </c><c>   5</c></rc>
    <rc><c>S </c><c>   5</c></rc>
    <rc><c>S </c><c>   5</c></rc>
    <rc><c>S </c><c>   5</c></rc>
    <rc><c>S </c><c>   5</c></rc>
    <rc><c>S </c><c>   5</c></rc>
    <rc><c>S </c><c>   5</c></rc>
    <rc><c>S </c><c>   5</c></rc>
    <rc><c>S </c><c>   5</c></rc>
    <rc><c>S </c><c>   5</c></rc>
    <rc><c>S </c><c>   5</c></rc>
    <rc><c>S </c><c>   5</c></rc>
    <rc><c>S </c><c>   5</c></rc>
    <rc><c>S </c><c>   5</c></rc>
    <rc><c>S </c><c>   5</c></rc>
    <rc><c>S </c><c>   5</c></rc>
    <rc><c>S </c><c>   5</c></rc>
    <rc><c>S </c><c>   5</c></rc>
    <rc><c>S </c><c>   5</c></rc>
    <rc><c>S </c><c>   5</c></rc>
    <rc><c>S </c><c>   5</c></rc>
    <rc><c>S </c><c>   5</c></rc>
    <rc><c>S </c><c>   5</c></rc>
    <rc><c>S </c><c>   5</c></rc>
    <rc><c>S </c><c>   5</c></rc>
    <rc><c>S </c><c>   5</c></rc>
    <rc><c>S </c><c>   5</c></rc>
    <rc><c>S </c><c>   5</c></rc>
    <rc><c>S </c><c>   5</c></rc>
    <rc><c>S </c><c>   5</c></rc>
    <rc><c>S </c><c>   5</c></rc>
    <rc><c>S </c><c>   5</c></rc>
    <rc><c>S </c><c>   5</c></rc>
    <rc><c>S </c><c>   5</c></rc>
    <rc><c>S </c><c>   5</c></rc>
    <rc><c>S </c><c>   5</c></rc>
    <rc><c>S </c><c>   5</c></rc>
    <rc><c>S </c><c>   5</c></rc>
    <rc><c>S </c><c>   5</c></rc>
    <rc><c>S </c><c>   5</c></rc>
    <rc><c>S </c><c>   5</c></rc>
    <rc><c>S </c><c>   5</c></rc>
    <rc><c>S </c><c>   5</c></rc>
    <rc><c>S </c><c>   5</c></rc>
    <rc><c>S </c><c>   5</c></rc>
    <rc><c>S </c><c>   5</c></rc>
    <rc><c>S </c><c>   5</c></rc>
    <rc><c>S </c><c>   5</c></rc>
    <rc><c>S </c><c>   5</c></rc>
    <rc><c>S </c><c>   5</c></rc>
    <rc><c>S </c><c>   5</c></rc>
    <rc><c>S </c><c>   5</c></rc>
    <rc><c>S </c><c>   5</c></rc>
    <rc><c>S </c><c>   5</c></rc>
   </set>
  </array>
  <array name="atomtypes" >
   <dimension dim="1">type</dimension>
   <field type="int">atomspertype</field>
   <field type="string">element</field>
   <field>mass</field>
   <field>valence</field>
   <field type="string">pseudopotential</field>
   <set>
    <rc><c>  10</c><c>C </c><c>     12.01100000</c><c>      4.00000000</c><c>  PAW_PBE C 08Apr2002                   </c></rc>
    <rc><c>   1</c><c>Cr</c><c>     51.99600000</c><c>      6.00000000</c><c>  PAW_PBE Cr 06Sep2000                  </c></rc>
    <rc><c>  10</c><c>H </c><c>      1.00000000</c><c>      1.00000000</c><c>  PAW_PBE H 15Jun2001                   </c></rc>
    <rc><c>  50</c><c>Mo</c><c>     95.94000000</c><c>      6.00000000</c><c>  PAW_PBE Mo 08Apr2002                  </c></rc>
    <rc><c> 100</c><c>S </c><c>     32.06600000</c><c>      6.00000000</c><c>  PAW_PBE S 06Sep2000                   </c></rc>
   </set>
  </array>
 </atominfo>
 <structure name="initialpos" >
  <crystal>
   <varray name="basis" >
    <v>      15.90000000       0.00000000       0.00000000 </v>
    <v>      -7.95000000      13.76980392       0.00000000 </v>
    <v>       0.00000000       0.00000000      32.38000000 </v>
   </varray>
   <i name="volume">   7089.27338987 </i>
   <varray name="rec_basis" >
    <v>       0.06289308       0.03631134       0.00000000 </v>
    <v>       0.00000000       0.07262268       0.00000000 </v>
    <v>       0.00000000       0.00000000       0.03088326 </v>
   </varray>
  </crystal>
  <varray name="positions" >
   <v>       0.48133604       0.35074345       0.38597198 </v>
   <v>       0.41901282       0.28034247       0.41522943 </v>
   <v>       0.56915771       0.41799354       0.40636724 </v>
   <v>       0.56164575       0.38890725       0.44897138 </v>
   <v>       0.46768327       0.30303523       0.45435897 </v>
   <v>       0.33076385       0.44273915       0.43521782 </v>
   <v>       0.44492639       0.50739902       0.48802200 </v>
   <v>       0.35073127       0.42783702       0.47728676 </v>
   <v>       0.48215501       0.57044267       0.45321108 </v>
   <v>       0.41270908       0.53111797       0.42072155 </v>
   <v>       0.45250538       0.42308301       0.43763998 </v>
   <v>       0.43942424       0.26198140       0.48279235 </v>
   <v>       0.30231976       0.36882200       0.49756701 </v>
   <v>       0.26477767       0.39674907       0.41790386 </v>
   <v>       0.48208294       0.51714097       0.51733310 </v>
   <v>       0.55382103       0.63482458       0.45108713 </v>
   <v>       0.34561776       0.22150425       0.40923499 </v>
   <v>       0.46304821       0.35522001       0.35397105 </v>
   <v>       0.63053621       0.48057086       0.39215997 </v>
   <v>       0.61771957       0.42346437       0.47239618 </v>
   <v>       0.42167588       0.56164677       0.38987967 </v>
   <v>       0.60000000       0.60000000       0.65735022 </v>
   <v>       0.20000000       0.80000000       0.21911674 </v>
   <v>       0.20000000       0.60000000       0.65735022 </v>
   <v>       0.60000000       0.80000000       0.21911674 </v>
   <v>       0.20000000       0.60000000       0.21911674 </v>
   <v>       0.60000000       0.80000000       0.65735022 </v>
   <v>       0.20000000       0.40000000       0.21911674 </v>
   <v>       0.80000000       0.00000000       0.21911674 </v>
   <v>       0.20000000       0.20000000       0.65735022 </v>
   <v>       0.80000000       0.00000000       0.65735022 </v>
   <v>       0.20000000       0.20000000       0.21911674 </v>
   <v>       0.20000000       0.80000000       0.65735022 </v>
   <v>       0.20000000       0.40000000       0.65735022 </v>
   <v>       0.60000000       0.60000000       0.21911674 </v>
   <v>       0.40000000       0.60000000       0.21911674 </v>
   <v>       0.40000000       0.00000000       0.65735022 </v>
   <v>       0.60000000       0.40000000       0.65735022 </v>
   <v>       0.40000000       0.20000000       0.21911674 </v>
   <v>       0.60000000       0.40000000       0.21911674 </v>
   <v>       0.40000000       0.20000000       0.65735022 </v>
   <v>       0.40000000       0.40000000       0.21911674 </v>
   <v>       0.60000000       0.20000000       0.65735022 </v>
   <v>       0.40000000       0.40000000       0.65735022 </v>
   <v>       0.60000000       0.20000000       0.21911674 </v>
   <v>       0.40000000       0.80000000       0.65735022 </v>
   <v>       0.40000000       0.60000000       0.65735022 </v>
   <v>       0.60000000       0.00000000       0.65735022 </v>
   <v>       0.40000000       0.80000000       0.21911674 </v>
   <v>       0.60000000       0.00000000       0.21911674 </v>
   <v>       0.40000000       0.00000000       0.21911674 </v>
   <v>       0.80000000       0.20000000       0.21911674 </v>
   <v>       0.20000000       0.00000000       0.65735022 </v>
   <v>       0.20000000       0.00000000       0.21911674 </v>
   <v>       0.00000000       0.00000000       0.21911674 </v>
   <v>       0.80000000       0.80000000       0.65735022 </v>
   <v>       0.00000000       0.00000000       0.65735022 </v>
   <v>       0.80000000       0.80000000       0.21911674 </v>
   <v>       0.00000000       0.20000000       0.21911674 </v>
   <v>       0.00000000       0.20000000       0.65735022 </v>
   <v>       0.80000000       0.60000000       0.65735022 </v>
   <v>       0.00000000       0.40000000       0.21911674 </v>
   <v>       0.00000000       0.40000000       0.65735022 </v>
   <v>       0.00000000       0.60000000       0.21911674 </v>
   <v>       0.80000000       0.40000000       0.65735022 </v>
   <v>       0.00000000       0.60000000       0.65735022 </v>
   <v>       0.80000000       0.60000000       0.21911674 </v>
   <v>       0.80000000       0.40000000       0.21911674 </v>
   <v>       0.00000000       0.80000000       0.65735022 </v>
   <v>       0.00000000       0.80000000       0.21911674 </v>
   <v>       0.80000000       0.20000000       0.65735022 </v>
   <v>       0.93333333       0.06666667       0.16985794 </v>
   <v>       0.73333333       0.26666667       0.60809141 </v>
   <v>       0.73333333       0.26666667       0.70660902 </v>
   <v>       0.93333333       0.66666667       0.70660902 </v>
   <v>       0.93333333       0.66666667       0.60809141 </v>
   <v>       0.73333333       0.26666667       0.16985794 </v>
   <v>       0.73333333       0.26666667       0.26837554 </v>
   <v>       0.93333333       0.46666667       0.26837554 </v>
   <v>       0.73333333       0.06666667       0.60809141 </v>
   <v>       0.73333333       0.06666667       0.70660902 </v>
   <v>       0.93333333       0.06666667       0.70660902 </v>
   <v>       0.93333333       0.86666667       0.16985794 </v>
   <v>       0.73333333       0.06666667       0.16985794 </v>
   <v>       0.93333333       0.06666667       0.60809141 </v>
   <v>       0.73333333       0.06666667       0.26837554 </v>
   <v>       0.93333333       0.26666667       0.16985794 </v>
   <v>       0.93333333       0.26666667       0.70660902 </v>
   <v>       0.93333333       0.86666667       0.26837554 </v>
   <v>       0.73333333       0.46666667       0.26837554 </v>
   <v>       0.73333333       0.46666667       0.16985794 </v>
   <v>       0.73333333       0.86666667       0.16985794 </v>
   <v>       0.73333333       0.86666667       0.70660902 </v>
   <v>       0.73333333       0.86666667       0.26837554 </v>
   <v>       0.93333333       0.46666667       0.16985794 </v>
   <v>       0.73333333       0.86666667       0.60809141 </v>
   <v>       0.73333333       0.66666667       0.60809141 </v>
   <v>       0.73333333       0.66666667       0.70660902 </v>
   <v>       0.93333333       0.46666667       0.70660902 </v>
   <v>       0.73333333       0.66666667       0.16985794 </v>
   <v>       0.93333333       0.46666667       0.60809141 </v>
   <v>       0.73333333       0.66666667       0.26837554 </v>
   <v>       0.93333333       0.26666667       0.60809141 </v>
   <v>       0.93333333       0.26666667       0.26837554 </v>
   <v>       0.73333333       0.46666667       0.60809141 </v>
   <v>       0.73333333       0.46666667       0.70660902 </v>
   <v>       0.93333333       0.66666667       0.26837554 </v>
   <v>       0.93333333       0.06666667       0.26837554 </v>
   <v>       0.93333333       0.66666667       0.16985794 </v>
   <v>       0.53333333       0.86666667       0.60809141 </v>
   <v>       0.53333333       0.06666667       0.70660902 </v>
   <v>       0.53333333       0.86666667       0.16985794 </v>
   <v>       0.33333333       0.26666667       0.16985794 </v>
   <v>       0.33333333       0.26666667       0.26837554 </v>
   <v>       0.33333333       0.06666667       0.60809141 </v>
   <v>       0.33333333       0.06666667       0.70660902 </v>
   <v>       0.33333333       0.06666667       0.16985794 </v>
   <v>       0.33333333       0.06666667       0.26837554 </v>
   <v>       0.13333333       0.86666667       0.60809141 </v>
   <v>       0.13333333       0.86666667       0.70660902 </v>
   <v>       0.13333333       0.86666667       0.16985794 </v>
   <v>       0.13333333       0.86666667       0.26837554 </v>
   <v>       0.13333333       0.66666667       0.60809141 </v>
   <v>       0.13333333       0.66666667       0.70660902 </v>
   <v>       0.33333333       0.26666667       0.70660902 </v>
   <v>       0.13333333       0.66666667       0.16985794 </v>
   <v>       0.13333333       0.46666667       0.60809141 </v>
   <v>       0.13333333       0.46666667       0.70660902 </v>
   <v>       0.13333333       0.46666667       0.16985794 </v>
   <v>       0.13333333       0.46666667       0.26837554 </v>
   <v>       0.13333333       0.26666667       0.60809141 </v>
   <v>       0.13333333       0.26666667       0.70660902 </v>
   <v>       0.13333333       0.26666667       0.16985794 </v>
   <v>       0.13333333       0.26666667       0.26837554 </v>
   <v>       0.13333333       0.06666667       0.60809141 </v>
   <v>       0.13333333       0.06666667       0.70660902 </v>
   <v>       0.13333333       0.06666667       0.16985794 </v>
   <v>       0.13333333       0.06666667       0.26837554 </v>
   <v>       0.13333333       0.66666667       0.26837554 </v>
   <v>       0.33333333       0.26666667       0.60809141 </v>
   <v>       0.33333333       0.46666667       0.26837554 </v>
   <v>       0.33333333       0.46666667       0.16985794 </v>
   <v>       0.53333333       0.86666667       0.26837554 </v>
   <v>       0.53333333       0.66666667       0.60809141 </v>
   <v>       0.53333333       0.66666667       0.70660902 </v>
   <v>       0.53333333       0.66666667       0.16985794 </v>
   <v>       0.53333333       0.66666667       0.26837554 </v>
   <v>       0.53333333       0.46666667       0.60809141 </v>
   <v>       0.53333333       0.46666667       0.70660902 </v>
   <v>       0.53333333       0.46666667       0.16985794 </v>
   <v>       0.53333333       0.46666667       0.26837554 </v>
   <v>       0.53333333       0.26666667       0.60809141 </v>
   <v>       0.53333333       0.26666667       0.70660902 </v>
   <v>       0.53333333       0.26666667       0.16985794 </v>
   <v>       0.53333333       0.26666667       0.26837554 </v>
   <v>       0.53333333       0.06666667       0.60809141 </v>
   <v>       0.93333333       0.86666667       0.70660902 </v>
   <v>       0.53333333       0.06666667       0.16985794 </v>
   <v>       0.53333333       0.06666667       0.26837554 </v>
   <v>       0.33333333       0.86666667       0.60809141 </v>
   <v>       0.33333333       0.86666667       0.70660902 </v>
   <v>       0.33333333       0.86666667       0.16985794 </v>
   <v>       0.33333333       0.86666667       0.26837554 </v>
   <v>       0.33333333       0.66666667       0.60809141 </v>
   <v>       0.33333333       0.66666667       0.70660902 </v>
   <v>       0.33333333       0.66666667       0.16985794 </v>
   <v>       0.33333333       0.66666667       0.26837554 </v>
   <v>       0.33333333       0.46666667       0.60809141 </v>
   <v>       0.33333333       0.46666667       0.70660902 </v>
   <v>       0.53333333       0.86666667       0.70660902 </v>
   <v>       0.93333333       0.86666667       0.60809141 </v>
  </varray>
  <varray name="selective"  type="logical" >
   <v type="logical" >  T  T  F </v>
   <v type="logical" >  T  T  F </v>
   <v type="logical" >  T  T  F </v>
   <v type="logical" >  T  T  F </v>
   <v type="logical" >  T  T  F </v>
   <v type="logical" >  T  T  F </v>
   <v type="logical" >  T  T  F </v>
   <v type="logical" >  T  T  F </v>
   <v type="logical" >  T  T  F </v>
   <v type="logical" >  T  T  F </v>
   <v type="logical" >  T  T  F </v>
   <v type="logical" >  T  T  F </v>
   <v type="logical" >  T  T  F </v>
   <v type="logical" >  T  T  F </v>
   <v type="logical" >  T  T  F </v>
   <v type="logical" >  T  T  F </v>
   <v type="logical" >  T  T  F </v>
   <v type="logical" >  T  T  F </v>
   <v type="logical" >  T  T  F </v>
   <v type="logical" >  T  T  F </v>
   <v type="logical" >  T  T  F </v>
   <v type="logical" >  T  T  F </v>
   <v type="logical" >  F  F  F </v>
   <v type="logical" >  T  T  F </v>
   <v type="logical" >  F  F  F </v>
   <v type="logical" >  F  F  F </v>
   <v type="logical" >  T  T  F </v>
   <v type="logical" >  F  F  F </v>
   <v type="logical" >  F  F  F </v>
   <v type="logical" >  T  T  F </v>
   <v type="logical" >  T  T  F </v>
   <v type="logical" >  F  F  F </v>
   <v type="logical" >  T  T  F </v>
   <v type="logical" >  T  T  F </v>
   <v type="logical" >  F  F  F </v>
   <v type="logical" >  F  F  F </v>
   <v type="logical" >  T  T  F </v>
   <v type="logical" >  T  T  F </v>
   <v type="logical" >  F  F  F </v>
   <v type="logical" >  F  F  F </v>
   <v type="logical" >  T  T  F </v>
   <v type="logical" >  F  F  F </v>
   <v type="logical" >  T  T  F </v>
   <v type="logical" >  T  T  F </v>
   <v type="logical" >  F  F  F </v>
   <v type="logical" >  T  T  F </v>
   <v type="logical" >  T  T  F </v>
   <v type="logical" >  T  T  F </v>
   <v type="logical" >  F  F  F </v>
   <v type="logical" >  F  F  F </v>
   <v type="logical" >  F  F  F </v>
   <v type="logical" >  F  F  F </v>
   <v type="logical" >  T  T  F </v>
   <v type="logical" >  F  F  F </v>
   <v type="logical" >  F  F  F </v>
   <v type="logical" >  T  T  F </v>
   <v type="logical" >  T  T  F </v>
   <v type="logical" >  F  F  F </v>
   <v type="logical" >  F  F  F </v>
   <v type="logical" >  T  T  F </v>
   <v type="logical" >  T  T  F </v>
   <v type="logical" >  F  F  F </v>
   <v type="logical" >  T  T  F </v>
   <v type="logical" >  F  F  F </v>
   <v type="logical" >  T  T  F </v>
   <v type="logical" >  T  T  F </v>
   <v type="logical" >  F  F  F </v>
   <v type="logical" >  F  F  F </v>
   <v type="logical" >  T  T  F </v>
   <v type="logical" >  F  F  F </v>
   <v type="logical" >  T  T  F </v>
   <v type="logical" >  F  F  F </v>
   <v type="logical" >  T  T  F </v>
   <v type="logical" >  T  T  F </v>
   <v type="logical" >  T  T  F </v>
   <v type="logical" >  T  T  F </v>
   <v type="logical" >  F  F  F </v>
   <v type="logical" >  F  F  F </v>
   <v type="logical" >  F  F  F </v>
   <v type="logical" >  T  T  F </v>
   <v type="logical" >  T  T  F </v>
   <v type="logical" >  T  T  F </v>
   <v type="logical" >  F  F  F </v>
   <v type="logical" >  F  F  F </v>
   <v type="logical" >  T  T  F </v>
   <v type="logical" >  F  F  F </v>
   <v type="logical" >  F  F  F </v>
   <v type="logical" >  T  T  F </v>
   <v type="logical" >  F  F  F </v>
   <v type="logical" >  F  F  F </v>
   <v type="logical" >  F  F  F </v>
   <v type="logical" >  F  F  F </v>
   <v type="logical" >  T  T  F </v>
   <v type="logical" >  F  F  F </v>
   <v type="logical" >  F  F  F </v>
   <v type="logical" >  T  T  F </v>
   <v type="logical" >  T  T  F </v>
   <v type="logical" >  T  T  F </v>
   <v type="logical" >  T  T  F </v>
   <v type="logical" >  F  F  F </v>
   <v type="logical" >  T  T  F </v>
   <v type="logical" >  F  F  F </v>
   <v type="logical" >  T  T  F </v>
   <v type="logical" >  F  F  F </v>
   <v type="logical" >  T  T  F </v>
   <v type="logical" >  T  T  F </v>
   <v type="logical" >  F  F  F </v>
   <v type="logical" >  F  F  F </v>
   <v type="logical" >  F  F  F </v>
   <v type="logical" >  T  T  F </v>
   <v type="logical" >  T  T  F </v>
   <v type="logical" >  F  F  F </v>
   <v type="logical" >  F  F  F </v>
   <v type="logical" >  F  F  F </v>
   <v type="logical" >  T  T  F </v>
   <v type="logical" >  T  T  F </v>
   <v type="logical" >  F  F  F </v>
   <v type="logical" >  F  F  F </v>
   <v type="logical" >  T  T  F </v>
   <v type="logical" >  T  T  F </v>
   <v type="logical" >  F  F  F </v>
   <v type="logical" >  F  F  F </v>
   <v type="logical" >  T  T  F </v>
   <v type="logical" >  T  T  F </v>
   <v type="logical" >  T  T  F </v>
   <v type="logical" >  F  F  F </v>
   <v type="logical" >  T  T  F </v>
   <v type="logical" >  T  T  F </v>
   <v type="logical" >  F  F  F </v>
   <v type="logical" >  F  F  F </v>
   <v type="logical" >  T  T  F </v>
   <v type="logical" >  T  T  F </v>
   <v type="logical" >  F  F  F </v>
   <v type="logical" >  F  F  F </v>
   <v type="logical" >  T  T  F </v>
   <v type="logical" >  T  T  F </v>
   <v type="logical" >  F  F  F </v>
   <v type="logical" >  F  F  F </v>
   <v type="logical" >  F  F  F </v>
   <v type="logical" >  T  T  F </v>
   <v type="logical" >  F  F  F </v>
   <v type="logical" >  F  F  F </v>
   <v type="logical" >  F  F  F </v>
   <v type="logical" >  T  T  F </v>
   <v type="logical" >  T  T  F </v>
   <v type="logical" >  F  F  F </v>
   <v type="logical" >  F  F  F </v>
   <v type="logical" >  T  T  F </v>
   <v type="logical" >  T  T  F </v>
   <v type="logical" >  F  F  F </v>
   <v type="logical" >  F  F  F </v>
   <v type="logical" >  T  T  F </v>
   <v type="logical" >  T  T  F </v>
   <v type="logical" >  F  F  F </v>
   <v type="logical" >  F  F  F </v>
   <v type="logical" >  T  T  F </v>
   <v type="logical" >  T  T  F </v>
   <v type="logical" >  F  F  F </v>
   <v type="logical" >  F  F  F </v>
   <v type="logical" >  T  T  F </v>
   <v type="logical" >  T  T  F </v>
   <v type="logical" >  F  F  F </v>
   <v type="logical" >  F  F  F </v>
   <v type="logical" >  T  T  F </v>
   <v type="logical" >  T  T  F </v>
   <v type="logical" >  F  F  F </v>
   <v type="logical" >  F  F  F </v>
   <v type="logical" >  T  T  F </v>
   <v type="logical" >  T  T  F </v>
   <v type="logical" >  T  T  F </v>
   <v type="logical" >  T  T  F </v>
  </varray>
  <nose>
   <v>      -3.00000000       0.00000000       0.00010000       0.00010000 </v>
  </nose>
 </structure>
 <calculation>
  <scstep>
   <time name="dav">   11.58   11.88</time>
   <time name="total">   11.99   12.56</time>
   <energy>
    <i name="alphaZ">   1150.89500911 </i>
    <i name="ewald">  87000.86954715 </i>
    <i name="hartreedc">-124974.54783693 </i>
    <i name="XCdc">  -1684.56753771 </i>
    <i name="pawpsdc">  36411.78182824 </i>
    <i name="pawaedc"> -32520.45026120 </i>
    <i name="eentropy">     -0.29417737 </i>
    <i name="bandstr">   1813.21064302 </i>
    <i name="atom">  40430.53995508 </i>
    <i name="e_fr_energy">   7627.43716938 </i>
    <i name="e_wo_entrp">   7627.73134675 </i>
    <i name="e_0_energy">   7627.58425807 </i>
   </energy>
  </scstep>
  <scstep>
   <time name="dav">   13.56   13.69</time>
   <time name="total">   13.57   13.69</time>
   <energy>
    <i name="e_fr_energy">   -272.87577014 </i>
    <i name="e_wo_entrp">   -272.76551930 </i>
    <i name="e_0_energy">   -272.82064472 </i>
   </energy>
  </scstep>
  <scstep>
   <time name="dav">   11.90   12.89</time>
   <time name="total">   11.90   12.90</time>
   <energy>
    <i name="e_fr_energy">  -1262.50406180 </i>
    <i name="e_wo_entrp">  -1262.50406126 </i>
    <i name="e_0_energy">  -1262.50406153 </i>
   </energy>
  </scstep>
  <scstep>
   <time name="dav">   14.73   15.41</time>
   <time name="total">   14.73   15.41</time>
   <energy>
    <i name="e_fr_energy">  -1321.10999600 </i>
    <i name="e_wo_entrp">  -1321.10999600 </i>
    <i name="e_0_energy">  -1321.10999600 </i>
   </energy>
  </scstep>
  <scstep>
   <time name="dav">   14.81   15.50</time>
   <time name="total">   15.98   16.68</time>
   <energy>
    <i name="e_fr_energy">  -1323.15317084 </i>
    <i name="e_wo_entrp">  -1323.15317084 </i>
    <i name="e_0_energy">  -1323.15317084 </i>
   </energy>
  </scstep>
  <scstep>
   <time name="dav">   13.15   13.33</time>
   <time name="total">   14.67   14.97</time>
   <energy>
    <i name="e_fr_energy">  -1276.51371698 </i>
    <i name="e_wo_entrp">  -1276.40082206 </i>
    <i name="e_0_energy">  -1276.45726952 </i>
   </energy>
  </scstep>
  <scstep>
   <time name="dav">   14.52   14.64</time>
   <time name="total">   16.11   16.61</time>
   <energy>
    <i name="e_fr_energy">  -1296.81034099 </i>
    <i name="e_wo_entrp">  -1296.38196147 </i>
    <i name="e_0_energy">  -1296.59615123 </i>
   </energy>
  </scstep>
  <scstep>
   <time name="dav">   12.53   12.63</time>
   <time name="total">   14.52   15.80</time>
   <energy>
    <i name="e_fr_energy">  -1232.69176904 </i>
    <i name="e_wo_entrp">  -1232.47592682 </i>
    <i name="e_0_energy">  -1232.58384793 </i>
   </energy>
  </scstep>
  <scstep>
   <time name="dav">   14.14   14.25</time>
   <time name="total">   15.67   18.18</time>
   <energy>
    <i name="e_fr_energy">  -1238.98080604 </i>
    <i name="e_wo_entrp">  -1238.77183772 </i>
    <i name="e_0_energy">  -1238.87632188 </i>
   </energy>
  </scstep>
  <scstep>
   <time name="dav">   14.58   14.74</time>
   <time name="total">   16.41   17.13</time>
   <energy>
    <i name="e_fr_energy">  -1223.00640414 </i>
    <i name="e_wo_entrp">  -1222.69083924 </i>
    <i name="e_0_energy">  -1222.84862169 </i>
   </energy>
  </scstep>
  <scstep>
   <time name="dav">   13.48   13.60</time>
   <time name="total">   14.95   15.13</time>
   <energy>
    <i name="e_fr_energy">  -1224.74870195 </i>
    <i name="e_wo_entrp">  -1224.72585081 </i>
    <i name="e_0_energy">  -1224.73727638 </i>
   </energy>
  </scstep>
  <scstep>
   <time name="dav">   14.14   14.26</time>
   <time name="total">   15.69   16.26</time>
   <energy>
    <i name="e_fr_energy">  -1224.62438365 </i>
    <i name="e_wo_entrp">  -1224.56683984 </i>
    <i name="e_0_energy">  -1224.59561175 </i>
   </energy>
  </scstep>
  <scstep>
   <time name="dav">   12.72   12.82</time>
   <time name="total">   14.34   15.13</time>
   <energy>
    <i name="e_fr_energy">  -1224.94039244 </i>
    <i name="e_wo_entrp">  -1224.58268868 </i>
    <i name="e_0_energy">  -1224.76154056 </i>
   </energy>
  </scstep>
  <scstep>
   <time name="dav">   13.96   14.07</time>
   <time name="total">   15.68   16.34</time>
   <energy>
    <i name="e_fr_energy">  -1223.57917846 </i>
    <i name="e_wo_entrp">  -1223.49899558 </i>
    <i name="e_0_energy">  -1223.53908702 </i>
   </energy>
  </scstep>
  <scstep>
   <time name="dav">   13.93   14.04</time>
   <time name="total">   15.38   15.73</time>
   <energy>
    <i name="e_fr_energy">  -1223.83093708 </i>
    <i name="e_wo_entrp">  -1223.69602821 </i>
    <i name="e_0_energy">  -1223.76348264 </i>
   </energy>
  </scstep>
  <scstep>
   <time name="dav">   14.53   14.65</time>
   <time name="total">   15.98   16.34</time>
   <energy>
    <i name="e_fr_energy">  -1224.34557766 </i>
    <i name="e_wo_entrp">  -1224.29411867 </i>
    <i name="e_0_energy">  -1224.31984817 </i>
   </energy>
  </scstep>
  <scstep>
   <time name="dav">   13.87   13.98</time>
   <time name="total">   15.36   16.38</time>
   <energy>
    <i name="e_fr_energy">  -1224.81689358 </i>
    <i name="e_wo_entrp">  -1224.71346390 </i>
    <i name="e_0_energy">  -1224.76517874 </i>
   </energy>
  </scstep>
  <scstep>
   <time name="dav">   13.68   13.79</time>
   <time name="total">   15.35   15.93</time>
   <energy>
    <i name="e_fr_energy">  -1225.43188734 </i>
    <i name="e_wo_entrp">  -1225.41907591 </i>
    <i name="e_0_energy">  -1225.42548162 </i>
   </energy>
  </scstep>
  <scstep>
   <time name="dav">   12.99   13.09</time>
   <time name="total">   14.43   14.79</time>
   <energy>
    <i name="e_fr_energy">  -1225.83720542 </i>
    <i name="e_wo_entrp">  -1225.75945468 </i>
    <i name="e_0_energy">  -1225.79833005 </i>
   </energy>
  </scstep>
  <scstep>
   <time name="dav">   14.51   14.61</time>
   <time name="total">   15.97   16.13</time>
   <energy>
    <i name="e_fr_energy">  -1225.26021802 </i>
    <i name="e_wo_entrp">  -1225.25965297 </i>
    <i name="e_0_energy">  -1225.25993549 </i>
   </energy>
  </scstep>
  <scstep>
   <time name="dav">   14.37   14.48</time>
   <time name="total">   16.27   18.17</time>
   <energy>
    <i name="e_fr_energy">  -1225.10626706 </i>
    <i name="e_wo_entrp">  -1224.88922213 </i>
    <i name="e_0_energy">  -1224.99774460 </i>
   </energy>
  </scstep>
  <scstep>
   <time name="dav">   13.42   13.53</time>
   <time name="total">   15.26   16.08</time>
   <energy>
    <i name="e_fr_energy">  -1225.04350145 </i>
    <i name="e_wo_entrp">  -1225.03444961 </i>
    <i name="e_0_energy">  -1225.03897553 </i>
   </energy>
  </scstep>
  <scstep>
   <time name="dav">   13.71   13.82</time>
   <time name="total">   15.22   17.44</time>
   <energy>
    <i name="e_fr_energy">  -1224.64493062 </i>
    <i name="e_wo_entrp">  -1224.55336218 </i>
    <i name="e_0_energy">  -1224.59914640 </i>
   </energy>
  </scstep>
  <scstep>
   <time name="dav">   13.59   13.71</time>
   <time name="total">   15.30   15.87</time>
   <energy>
    <i name="e_fr_energy">  -1224.48026230 </i>
    <i name="e_wo_entrp">  -1224.46914761 </i>
    <i name="e_0_energy">  -1224.47470495 </i>
   </energy>
  </scstep>
  <scstep>
   <time name="dav">   13.46   13.56</time>
   <time name="total">   14.98   15.22</time>
   <energy>
    <i name="e_fr_energy">  -1224.44477519 </i>
    <i name="e_wo_entrp">  -1224.42165542 </i>
    <i name="e_0_energy">  -1224.43321530 </i>
   </energy>
  </scstep>
  <scstep>
   <time name="dav">   13.27   13.37</time>
   <time name="total">   14.76   15.03</time>
   <energy>
    <i name="e_fr_energy">  -1224.34891690 </i>
    <i name="e_wo_entrp">  -1224.34519424 </i>
    <i name="e_0_energy">  -1224.34705557 </i>
   </energy>
  </scstep>
  <scstep>
   <time name="dav">   13.17   13.28</time>
   <time name="total">   14.69   15.84</time>
   <energy>
    <i name="e_fr_energy">  -1224.23056820 </i>
    <i name="e_wo_entrp">  -1224.22909663 </i>
    <i name="e_0_energy">  -1224.22983241 </i>
   </energy>
  </scstep>
  <scstep>
   <time name="dav">   12.25   12.41</time>
   <time name="total">   13.74   14.53</time>
   <energy>
    <i name="e_fr_energy">  -1224.27909786 </i>
    <i name="e_wo_entrp">  -1224.27397262 </i>
    <i name="e_0_energy">  -1224.27653524 </i>
   </energy>
  </scstep>
  <scstep>
   <time name="dav">   13.14   13.24</time>
   <time name="total">   14.66   16.94</time>
   <energy>
    <i name="e_fr_energy">  -1224.36731352 </i>
    <i name="e_wo_entrp">  -1224.32475947 </i>
    <i name="e_0_energy">  -1224.34603650 </i>
   </energy>
  </scstep>
  <scstep>
   <time name="dav">   13.05   13.16</time>
   <time name="total">   14.61   15.15</time>
   <energy>
    <i name="e_fr_energy">  -1224.37131208 </i>
    <i name="e_wo_entrp">  -1224.28071540 </i>
    <i name="e_0_energy">  -1224.32601374 </i>
   </energy>
  </scstep>
  <scstep>
   <time name="dav">   13.07   13.16</time>
   <time name="total">   14.63   14.98</time>
   <energy>
    <i name="e_fr_energy">  -1224.33088318 </i>
    <i name="e_wo_entrp">  -1224.16372403 </i>
    <i name="e_0_energy">  -1224.24730361 </i>
   </energy>
  </scstep>
  <scstep>
   <time name="dav">   12.51   12.60</time>
   <time name="total">   14.08   14.85</time>
   <energy>
    <i name="e_fr_energy">  -1224.35321304 </i>
    <i name="e_wo_entrp">  -1224.30308549 </i>
    <i name="e_0_energy">  -1224.32814927 </i>
   </energy>
  </scstep>
  <scstep>
   <time name="dav">   12.79   12.89</time>
   <time name="total">   14.34   14.96</time>
   <energy>
    <i name="e_fr_energy">  -1224.38007939 </i>
    <i name="e_wo_entrp">  -1224.25610419 </i>
    <i name="e_0_energy">  -1224.31809179 </i>
   </energy>
  </scstep>
  <scstep>
   <time name="dav">   12.02   12.12</time>
   <time name="total">   13.57   13.68</time>
   <energy>
    <i name="e_fr_energy">  -1224.28421980 </i>
    <i name="e_wo_entrp">  -1224.21292194 </i>
    <i name="e_0_energy">  -1224.24857087 </i>
   </energy>
  </scstep>
  <scstep>
   <time name="dav">   12.59   12.69</time>
   <time name="total">   14.45   16.08</time>
   <energy>
    <i name="e_fr_energy">  -1224.02350120 </i>
    <i name="e_wo_entrp">  -1223.91955669 </i>
    <i name="e_0_energy">  -1223.97152895 </i>
   </energy>
  </scstep>
  <scstep>
   <time name="dav">   12.79   12.90</time>
   <time name="total">   14.58   16.21</time>
   <energy>
    <i name="e_fr_energy">  -1223.85868094 </i>
    <i name="e_wo_entrp">  -1223.80797691 </i>
    <i name="e_0_energy">  -1223.83332893 </i>
   </energy>
  </scstep>
  <scstep>
   <time name="dav">   12.86   12.96</time>
   <time name="total">   14.68   15.82</time>
   <energy>
    <i name="e_fr_energy">  -1223.72169315 </i>
    <i name="e_wo_entrp">  -1223.60896992 </i>
    <i name="e_0_energy">  -1223.66533154 </i>
   </energy>
  </scstep>
  <scstep>
   <time name="dav">   12.88   13.00</time>
   <time name="total">   14.44   15.14</time>
   <energy>
    <i name="e_fr_energy">  -1223.57564608 </i>
    <i name="e_wo_entrp">  -1223.54470778 </i>
    <i name="e_0_energy">  -1223.56017693 </i>
   </energy>
  </scstep>
  <scstep>
   <time name="dav">   12.95   13.04</time>
   <time name="total">   14.79   15.34</time>
   <energy>
    <i name="e_fr_energy">  -1223.24715908 </i>
    <i name="e_wo_entrp">  -1223.11153701 </i>
    <i name="e_0_energy">  -1223.17934804 </i>
   </energy>
  </scstep>
  <scstep>
   <time name="dav">   12.85   12.96</time>
   <time name="total">   14.86   16.39</time>
   <energy>
    <i name="e_fr_energy">  -1223.36002351 </i>
    <i name="e_wo_entrp">  -1223.29723229 </i>
    <i name="e_0_energy">  -1223.32862790 </i>
   </energy>
  </scstep>
  <scstep>
   <time name="dav">   12.45   12.54</time>
   <time name="total">   13.91   14.23</time>
   <energy>
    <i name="e_fr_energy">  -1223.38939164 </i>
    <i name="e_wo_entrp">  -1223.34038376 </i>
    <i name="e_0_energy">  -1223.36488770 </i>
   </energy>
  </scstep>
  <scstep>
   <time name="dav">   13.28   13.38</time>
   <time name="total">   14.75   14.86</time>
   <energy>
    <i name="e_fr_energy">  -1223.29119836 </i>
    <i name="e_wo_entrp">  -1223.17809214 </i>
    <i name="e_0_energy">  -1223.23464525 </i>
   </energy>
  </scstep>
  <scstep>
   <time name="dav">   12.88   12.98</time>
   <time name="total">   14.33   15.40</time>
   <energy>
    <i name="e_fr_energy">  -1223.30124905 </i>
    <i name="e_wo_entrp">  -1223.23205061 </i>
    <i name="e_0_energy">  -1223.26664983 </i>
   </energy>
  </scstep>
  <scstep>
   <time name="dav">   12.70   12.81</time>
   <time name="total">   14.18   14.30</time>
   <energy>
    <i name="e_fr_energy">  -1223.26214773 </i>
    <i name="e_wo_entrp">  -1223.15182823 </i>
    <i name="e_0_energy">  -1223.20698798 </i>
   </energy>
  </scstep>
  <scstep>
   <time name="dav">   12.11   12.20</time>
   <time name="total">   13.79   14.49</time>
   <energy>
    <i name="e_fr_energy">  -1223.21608778 </i>
    <i name="e_wo_entrp">  -1223.10323251 </i>
    <i name="e_0_energy">  -1223.15966015 </i>
   </energy>
  </scstep>
  <scstep>
   <time name="dav">   13.84   13.94</time>
   <time name="total">   15.38   17.98</time>
   <energy>
    <i name="e_fr_energy">  -1223.21562618 </i>
    <i name="e_wo_entrp">  -1223.10682699 </i>
    <i name="e_0_energy">  -1223.16122658 </i>
   </energy>
  </scstep>
  <scstep>
   <time name="dav">   13.45   13.55</time>
   <time name="total">   14.93   15.07</time>
   <energy>
    <i name="e_fr_energy">  -1223.18029815 </i>
    <i name="e_wo_entrp">  -1223.06971582 </i>
    <i name="e_0_energy">  -1223.12500698 </i>
   </energy>
  </scstep>
  <scstep>
   <time name="dav">   13.49   13.63</time>
   <time name="total">   14.97   15.45</time>
   <energy>
    <i name="e_fr_energy">  -1223.14444850 </i>
    <i name="e_wo_entrp">  -1223.03256593 </i>
    <i name="e_0_energy">  -1223.08850721 </i>
   </energy>
  </scstep>
  <scstep>
   <time name="dav">   12.90   13.00</time>
   <time name="total">   14.39   15.08</time>
   <energy>
    <i name="e_fr_energy">  -1223.08078761 </i>
    <i name="e_wo_entrp">  -1222.97737106 </i>
    <i name="e_0_energy">  -1223.02907934 </i>
   </energy>
  </scstep>
  <scstep>
   <time name="dav">   13.17   13.27</time>
   <time name="total">   14.68   16.05</time>
   <energy>
    <i name="e_fr_energy">  -1223.02390531 </i>
    <i name="e_wo_entrp">  -1222.91819765 </i>
    <i name="e_0_energy">  -1222.97105148 </i>
   </energy>
  </scstep>
  <scstep>
   <time name="dav">   11.68   11.77</time>
   <time name="total">   13.15   13.41</time>
   <energy>
    <i name="e_fr_energy">  -1223.00324151 </i>
    <i name="e_wo_entrp">  -1222.90582651 </i>
    <i name="e_0_energy">  -1222.95453401 </i>
   </energy>
  </scstep>
  <scstep>
   <time name="dav">   10.03   10.11</time>
   <time name="total">   11.49   11.58</time>
   <energy>
    <i name="e_fr_energy">  -1223.00187335 </i>
    <i name="e_wo_entrp">  -1222.89873441 </i>
    <i name="e_0_energy">  -1222.95030388 </i>
   </energy>
  </scstep>
  <scstep>
   <time name="dav">   10.14   10.22</time>
   <time name="total">   11.61   12.13</time>
   <energy>
    <i name="e_fr_energy">  -1222.99477149 </i>
    <i name="e_wo_entrp">  -1222.89342201 </i>
    <i name="e_0_energy">  -1222.94409675 </i>
   </energy>
  </scstep>
  <scstep>
   <time name="dav">   12.89   12.99</time>
   <time name="total">   14.35   15.05</time>
   <energy>
    <i name="e_fr_energy">  -1222.96596544 </i>
    <i name="e_wo_entrp">  -1222.85884104 </i>
    <i name="e_0_energy">  -1222.91240324 </i>
   </energy>
  </scstep>
  <scstep>
   <time name="dav">   13.58   13.69</time>
   <time name="total">   15.04   15.48</time>
   <energy>
    <i name="e_fr_energy">  -1222.94262933 </i>
    <i name="e_wo_entrp">  -1222.83450042 </i>
    <i name="e_0_energy">  -1222.88856488 </i>
   </energy>
  </scstep>
  <scstep>
   <time name="dav">   12.85   12.95</time>
   <time name="total">   14.41   15.27</time>
   <energy>
    <i name="e_fr_energy">  -1222.83434149 </i>
    <i name="e_wo_entrp">  -1222.61429116 </i>
    <i name="e_0_energy">  -1222.72431632 </i>
   </energy>
  </scstep>
  <scstep>
   <time name="dav">   12.71   12.80</time>
   <time name="total">   14.21   14.31</time>
   <energy>
    <i name="e_fr_energy">  -1222.91598004 </i>
    <i name="e_wo_entrp">  -1222.80218555 </i>
    <i name="e_0_energy">  -1222.85908280 </i>
   </energy>
  </scstep>
  <scstep>
   <time name="dav">   12.50   12.59</time>
   <time name="total">   13.97   14.37</time>
   <energy>
    <i name="e_fr_energy">  -1222.90999072 </i>
    <i name="e_wo_entrp">  -1222.79986283 </i>
    <i name="e_0_energy">  -1222.85492678 </i>
   </energy>
  </scstep>
  <scstep>
   <time name="dav">   12.84   12.94</time>
   <time name="total">   14.32   17.22</time>
   <energy>
    <i name="e_fr_energy">  -1222.92179526 </i>
    <i name="e_wo_entrp">  -1222.80860757 </i>
    <i name="e_0_energy">  -1222.86520142 </i>
   </energy>
  </scstep>
  <scstep>
   <time name="dav">   10.05   10.14</time>
   <time name="total">   11.76   12.41</time>
   <energy>
    <i name="e_fr_energy">  -1222.91788089 </i>
    <i name="e_wo_entrp">  -1222.80626240 </i>
    <i name="e_0_energy">  -1222.86207164 </i>
   </energy>
  </scstep>
  <scstep>
   <time name="dav">    8.91    8.99</time>
   <time name="total">   10.41   10.49</time>
   <energy>
    <i name="e_fr_energy">  -1222.91253915 </i>
    <i name="e_wo_entrp">  -1222.79941235 </i>
    <i name="e_0_energy">  -1222.85597575 </i>
   </energy>
  </scstep>
  <scstep>
   <time name="dav">   10.11   10.18</time>
   <time name="total">   11.62   11.78</time>
   <energy>
    <i name="e_fr_energy">  -1222.90441411 </i>
    <i name="e_wo_entrp">  -1222.79411117 </i>
    <i name="e_0_energy">  -1222.84926264 </i>
   </energy>
  </scstep>
  <scstep>
   <time name="dav">   11.01   11.10</time>
   <time name="total">   12.52   12.65</time>
   <energy>
    <i name="e_fr_energy">  -1222.89362953 </i>
    <i name="e_wo_entrp">  -1222.78097080 </i>
    <i name="e_0_energy">  -1222.83730016 </i>
   </energy>
  </scstep>
  <scstep>
   <time name="dav">   12.13   12.23</time>
   <time name="total">   14.41   14.96</time>
   <energy>
    <i name="e_fr_energy">  -1222.88077270 </i>
    <i name="e_wo_entrp">  -1222.76933899 </i>
    <i name="e_0_energy">  -1222.82505584 </i>
   </energy>
  </scstep>
  <scstep>
   <time name="dav">   10.66   10.75</time>
   <time name="total">   12.17   12.49</time>
   <energy>
    <i name="e_fr_energy">  -1222.87289983 </i>
    <i name="e_wo_entrp">  -1222.76032145 </i>
    <i name="e_0_energy">  -1222.81661064 </i>
   </energy>
  </scstep>
  <scstep>
   <time name="dav">    9.32    9.39</time>
   <time name="total">   10.83   10.92</time>
   <energy>
    <i name="e_fr_energy">  -1222.86823211 </i>
    <i name="e_wo_entrp">  -1222.75648390 </i>
    <i name="e_0_energy">  -1222.81235800 </i>
   </energy>
  </scstep>
  <scstep>
   <time name="dav">    8.31    8.37</time>
   <time name="total">    9.87   10.30</time>
   <energy>
    <i name="e_fr_energy">  -1222.86698577 </i>
    <i name="e_wo_entrp">  -1222.75421376 </i>
    <i name="e_0_energy">  -1222.81059976 </i>
   </energy>
  </scstep>
  <scstep>
   <time name="dav">    8.35    8.42</time>
   <time name="total">    9.93   10.52</time>
   <energy>
    <i name="e_fr_energy">  -1222.86602322 </i>
    <i name="e_wo_entrp">  -1222.75339329 </i>
    <i name="e_0_energy">  -1222.80970825 </i>
   </energy>
  </scstep>
  <scstep>
   <time name="dav">    9.43    9.51</time>
   <time name="total">   10.97   11.05</time>
   <energy>
    <i name="e_fr_energy">  -1222.86202559 </i>
    <i name="e_wo_entrp">  -1222.74943493 </i>
    <i name="e_0_energy">  -1222.80573026 </i>
   </energy>
  </scstep>
  <scstep>
   <time name="dav">   10.35   10.43</time>
   <time name="total">   11.91   12.15</time>
   <energy>
    <i name="e_fr_energy">  -1222.85590068 </i>
    <i name="e_wo_entrp">  -1222.74322106 </i>
    <i name="e_0_energy">  -1222.79956087 </i>
   </energy>
  </scstep>
  <scstep>
   <time name="dav">   11.53   11.68</time>
   <time name="total">   13.07   13.40</time>
   <energy>
    <i name="e_fr_energy">  -1222.84583623 </i>
    <i name="e_wo_entrp">  -1222.73271442 </i>
    <i name="e_0_energy">  -1222.78927532 </i>
   </energy>
  </scstep>
  <scstep>
   <time name="dav">    9.10    9.21</time>
   <time name="total">   10.64   10.77</time>
   <energy>
    <i name="e_fr_energy">  -1222.84672098 </i>
    <i name="e_wo_entrp">  -1222.73385138 </i>
    <i name="e_0_energy">  -1222.79028618 </i>
   </energy>
  </scstep>
  <scstep>
   <time name="dav">    8.67    8.74</time>
[...]
       <r>    -0.6033     0.0000   952.0000 </r>
       <r>    -0.5321     0.0000   952.0000 </r>
       <r>    -0.4610     0.0000   952.0000 </r>
       <r>    -0.3899     0.0000   952.0000 </r>
       <r>    -0.3188     0.0009   952.0001 </r>
       <r>    -0.2476     0.0380   952.0028 </r>
       <r>    -0.1765     0.6211   952.0469 </r>
       <r>    -0.1054     3.9351   952.3268 </r>
       <r>    -0.0343     9.8618   953.0282 </r>
       <r>     0.0368    11.0630   953.8150 </r>
       <r>     0.1080    12.1267   954.6775 </r>
       <r>     0.1791    22.2012   956.2565 </r>
       <r>     0.2502    43.2697   959.3339 </r>
       <r>     0.3213   101.0185   966.5185 </r>
       <r>     0.3925   165.2120   978.2688 </r>
       <r>     0.4636   221.8935   994.0503 </r>
       <r>     0.5347   300.0228  1015.3885 </r>
       <r>     0.6058   285.4811  1035.6924 </r>
       <r>     0.6769   179.8165  1048.4813 </r>
       <r>     0.7481    78.8924  1054.0923 </r>
       <r>     0.8192   102.3253  1061.3699 </r>
       <r>     0.8903   276.8821  1081.0623 </r>
       <r>     0.9614   385.6482  1108.4904 </r>
       <r>     1.0326   303.2161  1130.0557 </r>
       <r>     1.1037   196.0331  1143.9979 </r>
       <r>     1.1748   133.5032  1153.4930 </r>
       <r>     1.2459   119.5695  1161.9970 </r>
       <r>     1.3170    82.5352  1167.8670 </r>
       <r>     1.3882    26.3482  1169.7410 </r>
       <r>     1.4593     3.4577  1169.9869 </r>
       <r>     1.5304     0.1806  1169.9997 </r>
       <r>     1.6015     0.0037  1170.0000 </r>
       <r>     1.6727     0.0000  1170.0000 </r>
       <r>     1.7438     0.0000  1170.0000 </r>
       <r>     1.8149     0.0000  1170.0000 </r>
       <r>     1.8860     0.0000  1170.0000 </r>
       <r>     1.9571     0.0000  1170.0000 </r>
       <r>     2.0283     0.0000  1170.0000 </r>
       <r>     2.0994     0.0000  1170.0000 </r>
       <r>     2.1705     0.0000  1170.0000 </r>
       <r>     2.2416     0.0000  1170.0000 </r>
      </set>
     </set>
    </array>
   </total>
  </dos>
 </calculation>
 <structure name="finalpos" >
  <crystal>
   <varray name="basis" >
    <v>      15.90000000       0.00000000       0.00000000 </v>
    <v>      -7.95000000      13.76980392       0.00000000 </v>
    <v>       0.00000000       0.00000000      32.38000000 </v>
   </varray>
   <i name="volume">   7089.27338987 </i>
   <varray name="rec_basis" >
    <v>       0.06289308       0.03631134       0.00000000 </v>
    <v>       0.00000000       0.07262268       0.00000000 </v>
    <v>       0.00000000       0.00000000       0.03088326 </v>
   </varray>
  </crystal>
  <varray name="positions" >
   <v>       0.48148088       0.35047710       0.38597198 </v>
   <v>       0.41909457       0.28022999       0.41522943 </v>
   <v>       0.56915643       0.41782035       0.40636724 </v>
   <v>       0.56157796       0.38882355       0.44897138 </v>
   <v>       0.46766077       0.30297815       0.45435897 </v>
   <v>       0.33082779       0.44283925       0.43521782 </v>
   <v>       0.44494454       0.50761777       0.48802200 </v>
   <v>       0.35085141       0.42793361       0.47728676 </v>
   <v>       0.48197521       0.57061176       0.45321108 </v>
   <v>       0.41260643       0.53124945       0.42072155 </v>
   <v>       0.45237491       0.42299414       0.43763998 </v>
   <v>       0.43932867       0.26200360       0.48279235 </v>
   <v>       0.30249566       0.36885841       0.49756701 </v>
   <v>       0.26492749       0.39675813       0.41790386 </v>
   <v>       0.48222179       0.51713153       0.51733310 </v>
   <v>       0.55370506       0.63482475       0.45108713 </v>
   <v>       0.34564082       0.22154769       0.40923499 </v>
   <v>       0.46312093       0.35529879       0.35397105 </v>
   <v>       0.63044672       0.48050261       0.39215997 </v>
   <v>       0.61759443       0.42344475       0.47239618 </v>
   <v>       0.42162799       0.56160573       0.38987967 </v>
   <v>       0.60001936       0.60004187       0.65735022 </v>
   <v>       0.20000000       0.80000000       0.21911674 </v>
   <v>       0.20001721       0.59999537       0.65735022 </v>
   <v>       0.60000000       0.80000000       0.21911674 </v>
   <v>       0.20000000       0.60000000       0.21911674 </v>
   <v>       0.60000410       0.79999935       0.65735022 </v>
   <v>       0.20000000       0.40000000       0.21911674 </v>
   <v>       0.80000000       0.00000000       0.21911674 </v>
   <v>       0.19999308       0.19999754       0.65735022 </v>
   <v>       0.80000468       0.00000851       0.65735022 </v>
   <v>       0.20000000       0.20000000       0.21911674 </v>
   <v>       0.19999957       0.80000185       0.65735022 </v>
   <v>       0.20002118       0.40001078       0.65735022 </v>
   <v>       0.60000000       0.60000000       0.21911674 </v>
   <v>       0.40000000       0.60000000       0.21911674 </v>
   <v>       0.39998519      -0.00000188       0.65735022 </v>
   <v>       0.60000074       0.39999094       0.65735022 </v>
   <v>       0.40000000       0.20000000       0.21911674 </v>
   <v>       0.60000000       0.40000000       0.21911674 </v>
   <v>       0.39999487       0.20000653       0.65735022 </v>
   <v>       0.40000000       0.40000000       0.21911674 </v>
   <v>       0.60000764       0.20000024       0.65735022 </v>
   <v>       0.39995119       0.39999300       0.65735022 </v>
   <v>       0.60000000       0.20000000       0.21911674 </v>
   <v>       0.40000460       0.79998374       0.65735022 </v>
   <v>       0.39998545       0.59997986       0.65735022 </v>
   <v>       0.60002564      -0.00000016       0.65735022 </v>
   <v>       0.40000000       0.80000000       0.21911674 </v>
   <v>       0.60000000       0.00000000       0.21911674 </v>
   <v>       0.40000000       0.00000000       0.21911674 </v>
   <v>       0.80000000       0.20000000       0.21911674 </v>
   <v>       0.19999918       0.00000846       0.65735022 </v>
   <v>       0.20000000       0.00000000       0.21911674 </v>
   <v>       0.00000000       0.00000000       0.21911674 </v>
   <v>       0.79999945       0.80000897       0.65735022 </v>
   <v>      -0.00000514       0.00000408       0.65735022 </v>
   <v>       0.80000000       0.80000000       0.21911674 </v>
   <v>       0.00000000       0.20000000       0.21911674 </v>
   <v>      -0.00001125       0.19999265       0.65735022 </v>
   <v>       0.79999739       0.60000745       0.65735022 </v>
   <v>       0.00000000       0.40000000       0.21911674 </v>
   <v>       0.00000396       0.39997079       0.65735022 </v>
   <v>       0.00000000       0.60000000       0.21911674 </v>
   <v>       0.79999515       0.39998656       0.65735022 </v>
   <v>       0.00000219       0.60001998       0.65735022 </v>
   <v>       0.80000000       0.60000000       0.21911674 </v>
   <v>       0.80000000       0.40000000       0.21911674 </v>
   <v>      -0.00000647       0.80000235       0.65735022 </v>
   <v>       0.00000000       0.80000000       0.21911674 </v>
   <v>       0.80000707       0.19999033       0.65735022 </v>
   <v>       0.93333333       0.06666667       0.16985794 </v>
   <v>       0.73333846       0.26665604       0.60809141 </v>
   <v>       0.73333472       0.26666036       0.70660902 </v>
   <v>       0.93332940       0.66667238       0.70660902 </v>
   <v>       0.93333954       0.66667363       0.60809141 </v>
   <v>       0.73333333       0.26666667       0.16985794 </v>
   <v>       0.73333333       0.26666667       0.26837554 </v>
   <v>       0.93333333       0.46666667       0.26837554 </v>
   <v>       0.73333730       0.06666761       0.60809141 </v>
   <v>       0.73334186       0.06666708       0.70660902 </v>
   <v>       0.93333167       0.06666835       0.70660902 </v>
   <v>       0.93333333       0.86666667       0.16985794 </v>
   <v>       0.73333333       0.06666667       0.16985794 </v>
   <v>       0.93332664       0.06666564       0.60809141 </v>
   <v>       0.73333333       0.06666667       0.26837554 </v>
   <v>       0.93333333       0.26666667       0.16985794 </v>
   <v>       0.93333201       0.26665348       0.70660902 </v>
   <v>       0.93333333       0.86666667       0.26837554 </v>
   <v>       0.73333333       0.46666667       0.26837554 </v>
   <v>       0.73333333       0.46666667       0.16985794 </v>
   <v>       0.73333333       0.86666667       0.16985794 </v>
   <v>       0.73333209       0.86667123       0.70660902 </v>
   <v>       0.73333333       0.86666667       0.26837554 </v>
   <v>       0.93333333       0.46666667       0.16985794 </v>
   <v>       0.73333522       0.86667800       0.60809141 </v>
   <v>       0.73334022       0.66668260       0.60809141 </v>
   <v>       0.73333557       0.66667640       0.70660902 </v>
   <v>       0.93333484       0.46666435       0.70660902 </v>
   <v>       0.73333333       0.66666667       0.16985794 </v>
   <v>       0.93334622       0.46666508       0.60809141 </v>
   <v>       0.73333333       0.66666667       0.26837554 </v>
   <v>       0.93333182       0.26666183       0.60809141 </v>
   <v>       0.93333333       0.26666667       0.26837554 </v>
   <v>       0.73333789       0.46665984       0.60809141 </v>
   <v>       0.73332580       0.46665976       0.70660902 </v>
   <v>       0.93333333       0.66666667       0.26837554 </v>
   <v>       0.93333333       0.06666667       0.26837554 </v>
   <v>       0.93333333       0.66666667       0.16985794 </v>
   <v>       0.53333461       0.86666644       0.60809141 </v>
   <v>       0.53333648       0.06666579       0.70660902 </v>
   <v>       0.53333333       0.86666667       0.16985794 </v>
   <v>       0.33333333       0.26666667       0.16985794 </v>
   <v>       0.33333333       0.26666667       0.26837554 </v>
   <v>       0.33333230       0.06666557       0.60809141 </v>
   <v>       0.33333081       0.06667291       0.70660902 </v>
   <v>       0.33333333       0.06666667       0.16985794 </v>
   <v>       0.33333333       0.06666667       0.26837554 </v>
   <v>       0.13333171       0.86666396       0.60809141 </v>
   <v>       0.13333169       0.86667051       0.70660902 </v>
   <v>       0.13333333       0.86666667       0.16985794 </v>
   <v>       0.13333333       0.86666667       0.26837554 </v>
   <v>       0.13334423       0.66666425       0.60809141 </v>
   <v>       0.13333474       0.66666770       0.70660902 </v>
   <v>       0.33332360       0.26666617       0.70660902 </v>
   <v>       0.13333333       0.66666667       0.16985794 </v>
   <v>       0.13334235       0.46666713       0.60809141 </v>
   <v>       0.13333438       0.46665374       0.70660902 </v>
   <v>       0.13333333       0.46666667       0.16985794 </v>
   <v>       0.13333333       0.46666667       0.26837554 </v>
   <v>       0.13335439       0.26669078       0.60809141 </v>
   <v>       0.13333068       0.26666851       0.70660902 </v>
   <v>       0.13333333       0.26666667       0.16985794 </v>
   <v>       0.13333333       0.26666667       0.26837554 </v>
   <v>       0.13332658       0.06666353       0.60809141 </v>
   <v>       0.13333159       0.06667090       0.70660902 </v>
   <v>       0.13333333       0.06666667       0.16985794 </v>
   <v>       0.13333333       0.06666667       0.26837554 </v>
   <v>       0.13333333       0.66666667       0.26837554 </v>
   <v>       0.33332073       0.26668955       0.60809141 </v>
   <v>       0.33333333       0.46666667       0.26837554 </v>
   <v>       0.33333333       0.46666667       0.16985794 </v>
   <v>       0.53333333       0.86666667       0.26837554 </v>
   <v>       0.53329109       0.66662564       0.60809141 </v>
   <v>       0.53333576       0.66666797       0.70660902 </v>
   <v>       0.53333333       0.66666667       0.16985794 </v>
   <v>       0.53333333       0.66666667       0.26837554 </v>
   <v>       0.53329481       0.46669919       0.60809141 </v>
   <v>       0.53332663       0.46667143       0.70660902 </v>
   <v>       0.53333333       0.46666667       0.16985794 </v>
   <v>       0.53333333       0.46666667       0.26837554 </v>
   <v>       0.53332913       0.26665805       0.60809141 </v>
   <v>       0.53333631       0.26666909       0.70660902 </v>
   <v>       0.53333333       0.26666667       0.16985794 </v>
   <v>       0.53333333       0.26666667       0.26837554 </v>
   <v>       0.53333790       0.06665880       0.60809141 </v>
   <v>       0.93332918       0.86666898       0.70660902 </v>
   <v>       0.53333333       0.06666667       0.16985794 </v>
   <v>       0.53333333       0.06666667       0.26837554 </v>
   <v>       0.33333272       0.86665341       0.60809141 </v>
   <v>       0.33333210       0.86666663       0.70660902 </v>
   <v>       0.33333333       0.86666667       0.16985794 </v>
   <v>       0.33333333       0.86666667       0.26837554 </v>
   <v>       0.33333406       0.66665622       0.60809141 </v>
   <v>       0.33333805       0.66666177       0.70660902 </v>
   <v>       0.33333333       0.66666667       0.16985794 </v>
   <v>       0.33333333       0.66666667       0.26837554 </v>
   <v>       0.33333474       0.46666779       0.60809141 </v>
   <v>       0.33333300       0.46666032       0.70660902 </v>
   <v>       0.53334805       0.86666806       0.70660902 </v>
   <v>       0.93333297       0.86667083       0.60809141 </v>
  </varray>
  <varray name="selective"  type="logical" >
   <v type="logical" >  T  T  F </v>
   <v type="logical" >  T  T  F </v>
   <v type="logical" >  T  T  F </v>
   <v type="logical" >  T  T  F </v>
   <v type="logical" >  T  T  F </v>
   <v type="logical" >  T  T  F </v>
   <v type="logical" >  T  T  F </v>
   <v type="logical" >  T  T  F </v>
   <v type="logical" >  T  T  F </v>
   <v type="logical" >  T  T  F </v>
   <v type="logical" >  T  T  F </v>
   <v type="logical" >  T  T  F </v>
   <v type="logical" >  T  T  F </v>
   <v type="logical" >  T  T  F </v>
   <v type="logical" >  T  T  F </v>
   <v type="logical" >  T  T  F </v>
   <v type="logical" >  T  T  F </v>
   <v type="logical" >  T  T  F </v>
   <v type="logical" >  T  T  F </v>
   <v type="logical" >  T  T  F </v>
   <v type="logical" >  T  T  F </v>
   <v type="logical" >  T  T  F </v>
   <v type="logical" >  F  F  F </v>
   <v type="logical" >  T  T  F </v>
   <v type="logical" >  F  F  F </v>
   <v type="logical" >  F  F  F </v>
   <v type="logical" >  T  T  F </v>
   <v type="logical" >  F  F  F </v>
   <v type="logical" >  F  F  F </v>
   <v type="logical" >  T  T  F </v>
   <v type="logical" >  T  T  F </v>
   <v type="logical" >  F  F  F </v>
   <v type="logical" >  T  T  F </v>
   <v type="logical" >  T  T  F </v>
   <v type="logical" >  F  F  F </v>
   <v type="logical" >  F  F  F </v>
   <v type="logical" >  T  T  F </v>
   <v type="logical" >  T  T  F </v>
   <v type="logical" >  F  F  F </v>
   <v type="logical" >  F  F  F </v>
   <v type="logical" >  T  T  F </v>
   <v type="logical" >  F  F  F </v>
   <v type="logical" >  T  T  F </v>
   <v type="logical" >  T  T  F </v>
   <v type="logical" >  F  F  F </v>
   <v type="logical" >  T  T  F </v>
   <v type="logical" >  T  T  F </v>
   <v type="logical" >  T  T  F </v>
   <v type="logical" >  F  F  F </v>
   <v type="logical" >  F  F  F </v>
   <v type="logical" >  F  F  F </v>
   <v type="logical" >  F  F  F </v>
   <v type="logical" >  T  T  F </v>
   <v type="logical" >  F  F  F </v>
   <v type="logical" >  F  F  F </v>
   <v type="logical" >  T  T  F </v>
   <v type="logical" >  T  T  F </v>
   <v type="logical" >  F  F  F </v>
   <v type="logical" >  F  F  F </v>
   <v type="logical" >  T  T  F </v>
   <v type="logical" >  T  T  F </v>
   <v type="logical" >  F  F  F </v>
   <v type="logical" >  T  T  F </v>
   <v type="logical" >  F  F  F </v>
   <v type="logical" >  T  T  F </v>
   <v type="logical" >  T  T  F </v>
   <v type="logical" >  F  F  F </v>
   <v type="logical" >  F  F  F </v>
   <v type="logical" >  T  T  F </v>
   <v type="logical" >  F  F  F </v>
   <v type="logical" >  T  T  F </v>
   <v type="logical" >  F  F  F </v>
   <v type="logical" >  T  T  F </v>
   <v type="logical" >  T  T  F </v>
   <v type="logical" >  T  T  F </v>
   <v type="logical" >  T  T  F </v>
   <v type="logical" >  F  F  F </v>
   <v type="logical" >  F  F  F </v>
   <v type="logical" >  F  F  F </v>
   <v type="logical" >  T  T  F </v>
   <v type="logical" >  T  T  F </v>
   <v type="logical" >  T  T  F </v>
   <v type="logical" >  F  F  F </v>
   <v type="logical" >  F  F  F </v>
   <v type="logical" >  T  T  F </v>
   <v type="logical" >  F  F  F </v>
   <v type="logical" >  F  F  F </v>
   <v type="logical" >  T  T  F </v>
   <v type="logical" >  F  F  F </v>
   <v type="logical" >  F  F  F </v>
   <v type="logical" >  F  F  F </v>
   <v type="logical" >  F  F  F </v>
   <v type="logical" >  T  T  F </v>
   <v type="logical" >  F  F  F </v>
   <v type="logical" >  F  F  F </v>
   <v type="logical" >  T  T  F </v>
   <v type="logical" >  T  T  F </v>
   <v type="logical" >  T  T  F </v>
   <v type="logical" >  T  T  F </v>
   <v type="logical" >  F  F  F </v>
   <v type="logical" >  T  T  F </v>
   <v type="logical" >  F  F  F </v>
   <v type="logical" >  T  T  F </v>
   <v type="logical" >  F  F  F </v>
   <v type="logical" >  T  T  F </v>
   <v type="logical" >  T  T  F </v>
   <v type="logical" >  F  F  F </v>
   <v type="logical" >  F  F  F </v>
   <v type="logical" >  F  F  F </v>
   <v type="logical" >  T  T  F </v>
   <v type="logical" >  T  T  F </v>
   <v type="logical" >  F  F  F </v>
   <v type="logical" >  F  F  F </v>
   <v type="logical" >  F  F  F </v>
   <v type="logical" >  T  T  F </v>
   <v type="logical" >  T  T  F </v>
   <v type="logical" >  F  F  F </v>
   <v type="logical" >  F  F  F </v>
   <v type="logical" >  T  T  F </v>
   <v type="logical" >  T  T  F </v>
   <v type="logical" >  F  F  F </v>
   <v type="logical" >  F  F  F </v>
   <v type="logical" >  T  T  F </v>
   <v type="logical" >  T  T  F </v>
   <v type="logical" >  T  T  F </v>
   <v type="logical" >  F  F  F </v>
   <v type="logical" >  T  T  F </v>
   <v type="logical" >  T  T  F </v>
   <v type="logical" >  F  F  F </v>
   <v type="logical" >  F  F  F </v>
   <v type="logical" >  T  T  F </v>
   <v type="logical" >  T  T  F </v>
   <v type="logical" >  F  F  F </v>
   <v type="logical" >  F  F  F </v>
   <v type="logical" >  T  T  F </v>
   <v type="logical" >  T  T  F </v>
   <v type="logical" >  F  F  F </v>
   <v type="logical" >  F  F  F </v>
   <v type="logical" >  F  F  F </v>
   <v type="logical" >  T  T  F </v>
   <v type="logical" >  F  F  F </v>
   <v type="logical" >  F  F  F </v>
   <v type="logical" >  F  F  F </v>
   <v type="logical" >  T  T  F </v>
   <v type="logical" >  T  T  F </v>
   <v type="logical" >  F  F  F </v>
   <v type="logical" >  F  F  F </v>
   <v type="logical" >  T  T  F </v>
   <v type="logical" >  T  T  F </v>
   <v type="logical" >  F  F  F </v>
   <v type="logical" >  F  F  F </v>
   <v type="logical" >  T  T  F </v>
   <v type="logical" >  T  T  F </v>
   <v type="logical" >  F  F  F </v>
   <v type="logical" >  F  F  F </v>
   <v type="logical" >  T  T  F </v>
   <v type="logical" >  T  T  F </v>
   <v type="logical" >  F  F  F </v>
   <v type="logical" >  F  F  F </v>
   <v type="logical" >  T  T  F </v>
   <v type="logical" >  T  T  F </v>
   <v type="logical" >  F  F  F </v>
   <v type="logical" >  F  F  F </v>
   <v type="logical" >  T  T  F </v>
   <v type="logical" >  T  T  F </v>
   <v type="logical" >  F  F  F </v>
   <v type="logical" >  F  F  F </v>
   <v type="logical" >  T  T  F </v>
   <v type="logical" >  T  T  F </v>
   <v type="logical" >  T  T  F </v>
   <v type="logical" >  T  T  F </v>
  </varray>
  <nose>
   <v>      -3.00000000       0.00000000       0.00010000       0.00010000 </v>
  </nose>
 </structure>
</modeling>
