basalPlane                              
           1
    15.900000    0.000000    0.000000
    -7.950000   13.769804    0.000000
     0.000000    0.000000   32.380000
   C    Cr   H    Mo   S 
  10   1  10  50 100
Direct configuration=     1
   0.48133604  0.35074345  0.38597198
   0.41901282  0.28034247  0.41522943
   0.56915771  0.41799354  0.40636724
   0.56164575  0.38890725  0.44897138
   0.46768327  0.30303523  0.45435897
   0.33076385  0.44273915  0.43521782
   0.44492639  0.50739902  0.48802200
   0.35073127  0.42783702  0.47728676
   0.48215501  0.57044267  0.45321108
   0.41270908  0.53111797  0.42072155
   0.45250538  0.42308301  0.43763998
   0.43942424  0.26198140  0.48279235
   0.30231976  0.36882200  0.49756701
   0.26477767  0.39674907  0.41790386
   0.48208294  0.51714097  0.51733310
   0.55382103  0.63482458  0.45108713
   0.34561776  0.22150425  0.40923499
   0.46304821  0.35522001  0.35397105
   0.63053621  0.48057086  0.39215997
   0.61771957  0.42346437  0.47239618
   0.42167588  0.56164677  0.38987967
   0.60000000  0.60000000  0.65735022
   0.20000000  0.80000000  0.21911674
   0.20000000  0.60000000  0.65735022
   0.60000000  0.80000000  0.21911674
   0.20000000  0.60000000  0.21911674
   0.60000000  0.80000000  0.65735022
   0.20000000  0.40000000  0.21911674
   0.80000000  0.00000000  0.21911674
   0.20000000  0.20000000  0.65735022
   0.80000000  0.00000000  0.65735022
   0.20000000  0.20000000  0.21911674
   0.20000000  0.80000000  0.65735022
   0.20000000  0.40000000  0.65735022
   0.60000000  0.60000000  0.21911674
   0.40000000  0.60000000  0.21911674
   0.40000000  0.00000000  0.65735022
   0.60000000  0.40000000  0.65735022
   0.40000000  0.20000000  0.21911674
   0.60000000  0.40000000  0.21911674
   0.40000000  0.20000000  0.65735022
   0.40000000  0.40000000  0.21911674
   0.60000000  0.20000000  0.65735022
   0.40000000  0.40000000  0.65735022
   0.60000000  0.20000000  0.21911674
   0.40000000  0.80000000  0.65735022
   0.40000000  0.60000000  0.65735022
   0.60000000  0.00000000  0.65735022
   0.40000000  0.80000000  0.21911674
   0.60000000  0.00000000  0.21911674
   0.40000000  0.00000000  0.21911674
   0.80000000  0.20000000  0.21911674
   0.20000000  0.00000000  0.65735022
   0.20000000  0.00000000  0.21911674
   0.00000000  0.00000000  0.21911674
   0.80000000  0.80000000  0.65735022
   0.00000000  0.00000000  0.65735022
   0.80000000  0.80000000  0.21911674
   0.00000000  0.20000000  0.21911674
   0.00000000  0.20000000  0.65735022
   0.80000000  0.60000000  0.65735022
   0.00000000  0.40000000  0.21911674
   0.00000000  0.40000000  0.65735022
   0.00000000  0.60000000  0.21911674
   0.80000000  0.40000000  0.65735022
   0.00000000  0.60000000  0.65735022
   0.80000000  0.60000000  0.21911674
   0.80000000  0.40000000  0.21911674
   0.00000000  0.80000000  0.65735022
   0.00000000  0.80000000  0.21911674
   0.80000000  0.20000000  0.65735022
   0.93333333  0.06666667  0.16985794
   0.73333333  0.26666667  0.60809141
   0.73333333  0.26666667  0.70660902
   0.93333333  0.66666667  0.70660902
   0.93333333  0.66666667  0.60809141
   0.73333333  0.26666667  0.16985794
   0.73333333  0.26666667  0.26837554
   0.93333333  0.46666667  0.26837554
   0.73333333  0.06666667  0.60809141
   0.73333333  0.06666667  0.70660902
   0.93333333  0.06666667  0.70660902
   0.93333333  0.86666667  0.16985794
   0.73333333  0.06666667  0.16985794
   0.93333333  0.06666667  0.60809141
   0.73333333  0.06666667  0.26837554
   0.93333333  0.26666667  0.16985794
   0.93333333  0.26666667  0.70660902
   0.93333333  0.86666667  0.26837554
   0.73333333  0.46666667  0.26837554
   0.73333333  0.46666667  0.16985794
   0.73333333  0.86666667  0.16985794
   0.73333333  0.86666667  0.70660902
   0.73333333  0.86666667  0.26837554
   0.93333333  0.46666667  0.16985794
   0.73333333  0.86666667  0.60809141
   0.73333333  0.66666667  0.60809141
   0.73333333  0.66666667  0.70660902
   0.93333333  0.46666667  0.70660902
   0.73333333  0.66666667  0.16985794
   0.93333333  0.46666667  0.60809141
   0.73333333  0.66666667  0.26837554
   0.93333333  0.26666667  0.60809141
   0.93333333  0.26666667  0.26837554
   0.73333333  0.46666667  0.60809141
   0.73333333  0.46666667  0.70660902
   0.93333333  0.66666667  0.26837554
   0.93333333  0.06666667  0.26837554
   0.93333333  0.66666667  0.16985794
   0.53333333  0.86666667  0.60809141
   0.53333333  0.06666667  0.70660902
   0.53333333  0.86666667  0.16985794
   0.33333333  0.26666667  0.16985794
   0.33333333  0.26666667  0.26837554
   0.33333333  0.06666667  0.60809141
   0.33333333  0.06666667  0.70660902
   0.33333333  0.06666667  0.16985794
   0.33333333  0.06666667  0.26837554
   0.13333333  0.86666667  0.60809141
   0.13333333  0.86666667  0.70660902
   0.13333333  0.86666667  0.16985794
   0.13333333  0.86666667  0.26837554
   0.13333333  0.66666667  0.60809141
   0.13333333  0.66666667  0.70660902
   0.33333333  0.26666667  0.70660902
   0.13333333  0.66666667  0.16985794
   0.13333333  0.46666667  0.60809141
   0.13333333  0.46666667  0.70660902
   0.13333333  0.46666667  0.16985794
   0.13333333  0.46666667  0.26837554
   0.13333333  0.26666667  0.60809141
   0.13333333  0.26666667  0.70660902
   0.13333333  0.26666667  0.16985794
   0.13333333  0.26666667  0.26837554
   0.13333333  0.06666667  0.60809141
   0.13333333  0.06666667  0.70660902
   0.13333333  0.06666667  0.16985794
   0.13333333  0.06666667  0.26837554
   0.13333333  0.66666667  0.26837554
   0.33333333  0.26666667  0.60809141
   0.33333333  0.46666667  0.26837554
   0.33333333  0.46666667  0.16985794
   0.53333333  0.86666667  0.26837554
   0.53333333  0.66666667  0.60809141
   0.53333333  0.66666667  0.70660902
   0.53333333  0.66666667  0.16985794
   0.53333333  0.66666667  0.26837554
   0.53333333  0.46666667  0.60809141
   0.53333333  0.46666667  0.70660902
   0.53333333  0.46666667  0.16985794
   0.53333333  0.46666667  0.26837554
   0.53333333  0.26666667  0.60809141
   0.53333333  0.26666667  0.70660902
   0.53333333  0.26666667  0.16985794
   0.53333333  0.26666667  0.26837554
   0.53333333  0.06666667  0.60809141
   0.93333333  0.86666667  0.70660902
   0.53333333  0.06666667  0.16985794
   0.53333333  0.06666667  0.26837554
   0.33333333  0.86666667  0.60809141
   0.33333333  0.86666667  0.70660902
   0.33333333  0.86666667  0.16985794
   0.33333333  0.86666667  0.26837554
   0.33333333  0.66666667  0.60809141
   0.33333333  0.66666667  0.70660902
   0.33333333  0.66666667  0.16985794
   0.33333333  0.66666667  0.26837554
   0.33333333  0.46666667  0.60809141
   0.33333333  0.46666667  0.70660902
   0.53333333  0.86666667  0.70660902
   0.93333333  0.86666667  0.60809141
Direct configuration=     2
   0.48131532  0.35092687  0.38597198
   0.41909347  0.28069731  0.41522943
   0.56888500  0.41794613  0.40636724
   0.56131528  0.38882432  0.44897138
   0.46778627  0.30337034  0.45435897
   0.33110638  0.44278347  0.43521782
   0.44486230  0.50716413  0.48802200
   0.35101433  0.42797716  0.47728676
   0.48212834  0.57010772  0.45321108
   0.41270665  0.53084549  0.42072155
   0.45251934  0.42316494  0.43763998
   0.43943974  0.26204388  0.48279235
   0.30237533  0.36884072  0.49756701
   0.26485244  0.39676548  0.41790386
   0.48207732  0.51710560  0.51733310
   0.55370596  0.63474773  0.45108713
   0.34566955  0.22154769  0.40923499
   0.46308144  0.35525203  0.35397105
   0.63049068  0.48052866  0.39215997
   0.61763431  0.42343220  0.47239618
   0.42163267  0.56156726  0.38987967
   0.60002147  0.60003380  0.65735022
   0.20000000  0.80000000  0.21911674
   0.20001716  0.59999969  0.65735022
   0.60000000  0.80000000  0.21911674
   0.20000000  0.60000000  0.21911674
   0.60001005  0.80000777  0.65735022
   0.20000000  0.40000000  0.21911674
   0.80000000  0.00000000  0.21911674
   0.19999653  0.19999856  0.65735022
   0.80000002  0.00000460  0.65735022
   0.20000000  0.20000000  0.21911674
   0.20000031  0.80000150  0.65735022
   0.20000369  0.39999859  0.65735022
   0.60000000  0.60000000  0.21911674
   0.40000000  0.60000000  0.21911674
   0.39998778  0.00000246  0.65735022
   0.60001038  0.39998828  0.65735022
   0.40000000  0.20000000  0.21911674
   0.60000000  0.40000000  0.21911674
   0.39999559  0.19999691  0.65735022
   0.40000000  0.40000000  0.21911674
   0.60000695  0.20000369  0.65735022
   0.39996425  0.39998608  0.65735022
   0.60000000  0.20000000  0.21911674
   0.39999868  0.79998435  0.65735022
   0.39999174  0.59999777  0.65735022
   0.60002189  0.00000002  0.65735022
   0.40000000  0.80000000  0.21911674
   0.60000000  0.00000000  0.21911674
   0.40000000  0.00000000  0.21911674
   0.80000000  0.20000000  0.21911674
   0.20000207  0.00000786  0.65735022
   0.20000000  0.00000000  0.21911674
   0.00000000  0.00000000  0.21911674
   0.79999601  0.80000073  0.65735022
  -0.00000314  0.00000247  0.65735022
   0.80000000  0.80000000  0.21911674
   0.00000000  0.20000000  0.21911674
  -0.00001097  0.19999462  0.65735022
   0.79999866  0.60000685  0.65735022
   0.00000000  0.40000000  0.21911674
   0.00000129  0.39997591  0.65735022
   0.00000000  0.60000000  0.21911674
   0.79999032  0.39998849  0.65735022
  -0.00000217  0.60001543  0.65735022
   0.80000000  0.60000000  0.21911674
   0.80000000  0.40000000  0.21911674
  -0.00000681  0.79999824  0.65735022
   0.00000000  0.80000000  0.21911674
   0.80000429  0.19999235  0.65735022
   0.93333333  0.06666667  0.16985794
   0.73333538  0.26666360  0.60809141
   0.73333268  0.26666581  0.70660902
   0.93333357  0.66666618  0.70660902
   0.93333850  0.66666744  0.60809141
   0.73333333  0.26666667  0.16985794
   0.73333333  0.26666667  0.26837554
   0.93333333  0.46666667  0.26837554
   0.73333199  0.06666611  0.60809141
   0.73333310  0.06666574  0.70660902
   0.93333315  0.06666718  0.70660902
   0.93333333  0.86666667  0.16985794
   0.73333333  0.06666667  0.16985794
   0.93332992  0.06666544  0.60809141
   0.73333333  0.06666667  0.26837554
   0.93333333  0.26666667  0.16985794
   0.93333353  0.26666535  0.70660902
   0.93333333  0.86666667  0.26837554
   0.73333333  0.46666667  0.26837554
   0.73333333  0.46666667  0.16985794
   0.73333333  0.86666667  0.16985794
   0.73333137  0.86666566  0.70660902
   0.73333333  0.86666667  0.26837554
   0.93333333  0.46666667  0.16985794
   0.73333414  0.86667062  0.60809141
   0.73333635  0.66667008  0.60809141
   0.73333122  0.66666551  0.70660902
   0.93333262  0.46666582  0.70660902
   0.73333333  0.66666667  0.16985794
   0.93333664  0.46666624  0.60809141
   0.73333333  0.66666667  0.26837554
   0.93333194  0.26666744  0.60809141
   0.93333333  0.26666667  0.26837554
   0.73333683  0.46666461  0.60809141
   0.73333025  0.46666455  0.70660902
   0.93333333  0.66666667  0.26837554
   0.93333333  0.06666667  0.26837554
   0.93333333  0.66666667  0.16985794
   0.53333208  0.86666889  0.60809141
   0.53333368  0.06666684  0.70660902
   0.53333333  0.86666667  0.16985794
   0.33333333  0.26666667  0.16985794
   0.33333333  0.26666667  0.26837554
   0.33333311  0.06666143  0.60809141
   0.33333322  0.06666633  0.70660902
   0.33333333  0.06666667  0.16985794
   0.33333333  0.06666667  0.26837554
   0.13333278  0.86666318  0.60809141
   0.13333332  0.86666621  0.70660902
   0.13333333  0.86666667  0.16985794
   0.13333333  0.86666667  0.26837554
   0.13333440  0.66666594  0.60809141
   0.13333198  0.66666633  0.70660902
   0.33333377  0.26666809  0.70660902
   0.13333333  0.66666667  0.16985794
   0.13333247  0.46666855  0.60809141
   0.13333209  0.46666398  0.70660902
   0.13333333  0.46666667  0.16985794
   0.13333333  0.46666667  0.26837554
   0.13333802  0.26667249  0.60809141
   0.13333359  0.26666702  0.70660902
   0.13333333  0.26666667  0.16985794
   0.13333333  0.26666667  0.26837554
   0.13332946  0.06666171  0.60809141
   0.13333330  0.06666681  0.70660902
   0.13333333  0.06666667  0.16985794
   0.13333333  0.06666667  0.26837554
   0.13333333  0.66666667  0.26837554
   0.33333106  0.26667282  0.60809141
   0.33333333  0.46666667  0.26837554
   0.33333333  0.46666667  0.16985794
   0.53333333  0.86666667  0.26837554
   0.53332245  0.66665695  0.60809141
   0.53333416  0.66666493  0.70660902
   0.53333333  0.66666667  0.16985794
   0.53333333  0.66666667  0.26837554
   0.53332464  0.46667416  0.60809141
   0.53333234  0.46666571  0.70660902
   0.53333333  0.46666667  0.16985794
   0.53333333  0.46666667  0.26837554
   0.53333213  0.26666227  0.60809141
   0.53333365  0.26666817  0.70660902
   0.53333333  0.26666667  0.16985794
   0.53333333  0.26666667  0.26837554
   0.53333466  0.06666359  0.60809141
   0.93333284  0.86666633  0.70660902
   0.53333333  0.06666667  0.16985794
   0.53333333  0.06666667  0.26837554
   0.33333242  0.86666297  0.60809141
   0.33333281  0.86666744  0.70660902
   0.33333333  0.86666667  0.16985794
   0.33333333  0.86666667  0.26837554
   0.33333103  0.66666565  0.60809141
   0.33333352  0.66666559  0.70660902
   0.33333333  0.66666667  0.16985794
   0.33333333  0.66666667  0.26837554
   0.33333010  0.46666561  0.60809141
   0.33333441  0.46666417  0.70660902
   0.53333574  0.86666727  0.70660902
   0.93333477  0.86666727  0.60809141
Direct configuration=     3
   0.48132808  0.35081388  0.38597198
   0.41904379  0.28047873  0.41522943
   0.56905299  0.41797533  0.40636724
   0.56151885  0.38887541  0.44897138
   0.46772282  0.30316391  0.45435897
   0.33089538  0.44275617  0.43521782
   0.44490178  0.50730883  0.48802200
   0.35083996  0.42789084  0.47728676
   0.48214477  0.57031405  0.45321108
   0.41270815  0.53101334  0.42072155
   0.45251074  0.42311447  0.43763998
   0.43943020  0.26200540  0.48279235
   0.30234110  0.36882919  0.49756701
   0.26480638  0.39675537  0.41790386
   0.48208078  0.51712739  0.51733310
   0.55377685  0.63479507  0.45108713
   0.34563765  0.22152093  0.40923499
   0.46306097  0.35523230  0.35397105
   0.63051872  0.48055466  0.39215997
   0.61768683  0.42345201  0.47239618
   0.42165929  0.56161624  0.38987967
   0.60000825  0.60001298  0.65735022
   0.20000000  0.80000000  0.21911674
   0.20000659  0.59999988  0.65735022
   0.60000000  0.80000000  0.21911674
   0.20000000  0.60000000  0.21911674
   0.60000386  0.80000298  0.65735022
   0.20000000  0.40000000  0.21911674
   0.80000000  0.00000000  0.21911674
   0.19999867  0.19999945  0.65735022
   0.80000001  0.00000177  0.65735022
   0.20000000  0.20000000  0.21911674
   0.20000012  0.80000058  0.65735022
   0.20000142  0.39999946  0.65735022
   0.60000000  0.60000000  0.21911674
   0.40000000  0.60000000  0.21911674
   0.39999531  0.00000095  0.65735022
   0.60000399  0.39999550  0.65735022
   0.40000000  0.20000000  0.21911674
   0.60000000  0.40000000  0.21911674
   0.39999831  0.19999881  0.65735022
   0.40000000  0.40000000  0.21911674
   0.60000267  0.20000142  0.65735022
   0.39998627  0.39999465  0.65735022
   0.60000000  0.20000000  0.21911674
   0.39999949  0.79999399  0.65735022
   0.39999683  0.59999914  0.65735022
   0.60000841  0.00000001  0.65735022
   0.40000000  0.80000000  0.21911674
   0.60000000  0.00000000  0.21911674
   0.40000000  0.00000000  0.21911674
   0.80000000  0.20000000  0.21911674
   0.20000080  0.00000302  0.65735022
   0.20000000  0.00000000  0.21911674
   0.00000000  0.00000000  0.21911674
   0.79999847  0.80000028  0.65735022
  -0.00000120  0.00000095  0.65735022
   0.80000000  0.80000000  0.21911674
   0.00000000  0.20000000  0.21911674
  -0.00000421  0.19999793  0.65735022
   0.79999949  0.60000263  0.65735022
   0.00000000  0.40000000  0.21911674
   0.00000050  0.39999075  0.65735022
   0.00000000  0.60000000  0.21911674
   0.79999628  0.39999558  0.65735022
  -0.00000083  0.60000592  0.65735022
   0.80000000  0.60000000  0.21911674
   0.80000000  0.40000000  0.21911674
  -0.00000262  0.79999932  0.65735022
   0.00000000  0.80000000  0.21911674
   0.80000165  0.19999706  0.65735022
   0.93333333  0.06666667  0.16985794
   0.73333412  0.26666549  0.60809141
   0.73333308  0.26666634  0.70660902
   0.93333342  0.66666648  0.70660902
   0.93333532  0.66666696  0.60809141
   0.73333333  0.26666667  0.16985794
   0.73333333  0.26666667  0.26837554
   0.93333333  0.46666667  0.26837554
   0.73333282  0.06666645  0.60809141
   0.73333324  0.06666631  0.70660902
   0.93333326  0.06666686  0.70660902
   0.93333333  0.86666667  0.16985794
   0.73333333  0.06666667  0.16985794
   0.93333202  0.06666620  0.60809141
   0.73333333  0.06666667  0.26837554
   0.93333333  0.26666667  0.16985794
   0.93333341  0.26666616  0.70660902
   0.93333333  0.86666667  0.26837554
   0.73333333  0.46666667  0.26837554
   0.73333333  0.46666667  0.16985794
   0.73333333  0.86666667  0.16985794
   0.73333258  0.86666628  0.70660902
   0.73333333  0.86666667  0.26837554
   0.93333333  0.46666667  0.16985794
   0.73333364  0.86666819  0.60809141
   0.73333449  0.66666798  0.60809141
   0.73333252  0.66666622  0.70660902
   0.93333306  0.46666634  0.70660902
   0.73333333  0.66666667  0.16985794
   0.93333460  0.46666650  0.60809141
   0.73333333  0.66666667  0.26837554
   0.93333280  0.26666696  0.60809141
   0.93333333  0.26666667  0.26837554
   0.73333468  0.46666588  0.60809141
   0.73333215  0.46666585  0.70660902
   0.93333333  0.66666667  0.26837554
   0.93333333  0.06666667  0.26837554
   0.93333333  0.66666667  0.16985794
   0.53333285  0.86666752  0.60809141
   0.53333347  0.06666673  0.70660902
   0.53333333  0.86666667  0.16985794
   0.33333333  0.26666667  0.16985794
   0.33333333  0.26666667  0.26837554
   0.33333325  0.06666465  0.60809141
   0.33333329  0.06666654  0.70660902
   0.33333333  0.06666667  0.16985794
   0.33333333  0.06666667  0.26837554
   0.13333312  0.86666533  0.60809141
   0.13333333  0.86666649  0.70660902
   0.13333333  0.86666667  0.16985794
   0.13333333  0.86666667  0.26837554
   0.13333374  0.66666639  0.60809141
   0.13333281  0.66666654  0.70660902
   0.33333350  0.26666721  0.70660902
   0.13333333  0.66666667  0.16985794
   0.13333300  0.46666739  0.60809141
   0.13333286  0.46666563  0.70660902
   0.13333333  0.46666667  0.16985794
   0.13333333  0.46666667  0.26837554
   0.13333513  0.26666890  0.60809141
   0.13333343  0.26666680  0.70660902
   0.13333333  0.26666667  0.16985794
   0.13333333  0.26666667  0.26837554
   0.13333185  0.06666476  0.60809141
   0.13333332  0.06666672  0.70660902
   0.13333333  0.06666667  0.16985794
   0.13333333  0.06666667  0.26837554
   0.13333333  0.66666667  0.26837554
   0.33333246  0.26666903  0.60809141
   0.33333333  0.46666667  0.26837554
   0.33333333  0.46666667  0.16985794
   0.53333333  0.86666667  0.26837554
   0.53332915  0.66666294  0.60809141
   0.53333365  0.66666600  0.70660902
   0.53333333  0.66666667  0.16985794
   0.53333333  0.66666667  0.26837554
   0.53333000  0.46666954  0.60809141
   0.53333295  0.46666630  0.70660902
   0.53333333  0.46666667  0.16985794
   0.53333333  0.46666667  0.26837554
   0.53333287  0.26666498  0.60809141
   0.53333346  0.26666724  0.70660902
   0.53333333  0.26666667  0.16985794
   0.53333333  0.26666667  0.26837554
   0.53333384  0.06666549  0.60809141
   0.93333314  0.86666654  0.70660902
   0.53333333  0.06666667  0.16985794
   0.53333333  0.06666667  0.26837554
   0.33333298  0.86666525  0.60809141
   0.33333313  0.86666696  0.70660902
   0.33333333  0.86666667  0.16985794
   0.33333333  0.86666667  0.26837554
   0.33333245  0.66666628  0.60809141
   0.33333341  0.66666625  0.70660902
   0.33333333  0.66666667  0.16985794
   0.33333333  0.66666667  0.26837554
   0.33333209  0.46666626  0.60809141
   0.33333375  0.46666571  0.70660902
   0.53333426  0.86666690  0.70660902
   0.93333389  0.86666690  0.60809141
Direct configuration=     4
   0.48133137  0.35078482  0.38597198
   0.41903101  0.28042250  0.41522943
   0.56909620  0.41798285  0.40636724
   0.56157121  0.38888855  0.44897138
   0.46770650  0.30311081  0.45435897
   0.33084111  0.44274915  0.43521782
   0.44491193  0.50734604  0.48802200
   0.35079511  0.42786863  0.47728676
   0.48214899  0.57036713  0.45321108
   0.41270853  0.53105651  0.42072155
   0.45250853  0.42310149  0.43763998
   0.43942774  0.26199550  0.48279235
   0.30233229  0.36882622  0.49756701
   0.26479453  0.39675278  0.41790386
   0.48208167  0.51713299  0.51733310
   0.55379508  0.63480725  0.45108713
   0.34562944  0.22151405  0.40923499
   0.46305571  0.35522723  0.35397105
   0.63052594  0.48056134  0.39215997
   0.61770034  0.42345711  0.47239618
   0.42166613  0.56162884  0.38987967
   0.60000484  0.60000762  0.65735022
   0.20000000  0.80000000  0.21911674
   0.20000387  0.59999993  0.65735022
   0.60000000  0.80000000  0.21911674
   0.20000000  0.60000000  0.21911674
   0.60000227  0.80000175  0.65735022
   0.20000000  0.40000000  0.21911674
   0.80000000  0.00000000  0.21911674
   0.19999922  0.19999968  0.65735022
   0.80000000  0.00000104  0.65735022
   0.20000000  0.20000000  0.21911674
   0.20000007  0.80000034  0.65735022
   0.20000083  0.39999968  0.65735022
   0.60000000  0.60000000  0.21911674
   0.40000000  0.60000000  0.21911674
   0.39999724  0.00000056  0.65735022
   0.60000234  0.39999736  0.65735022
   0.40000000  0.20000000  0.21911674
   0.60000000  0.40000000  0.21911674
   0.39999900  0.19999930  0.65735022
   0.40000000  0.40000000  0.21911674
   0.60000157  0.20000083  0.65735022
   0.39999194  0.39999686  0.65735022
   0.60000000  0.20000000  0.21911674
   0.39999970  0.79999647  0.65735022
   0.39999814  0.59999950  0.65735022
   0.60000494  0.00000000  0.65735022
   0.40000000  0.80000000  0.21911674
   0.60000000  0.00000000  0.21911674
   0.40000000  0.00000000  0.21911674
   0.80000000  0.20000000  0.21911674
   0.20000047  0.00000177  0.65735022
   0.20000000  0.00000000  0.21911674
   0.00000000  0.00000000  0.21911674
   0.79999910  0.80000016  0.65735022
  -0.00000071  0.00000056  0.65735022
   0.80000000  0.80000000  0.21911674
   0.00000000  0.20000000  0.21911674
  -0.00000247  0.19999879  0.65735022
   0.79999970  0.60000155  0.65735022
   0.00000000  0.40000000  0.21911674
   0.00000029  0.39999457  0.65735022
   0.00000000  0.60000000  0.21911674
   0.79999782  0.39999740  0.65735022
  -0.00000049  0.60000348  0.65735022
   0.80000000  0.60000000  0.21911674
   0.80000000  0.40000000  0.21911674
  -0.00000154  0.79999960  0.65735022
   0.00000000  0.80000000  0.21911674
   0.80000097  0.19999828  0.65735022
   0.93333333  0.06666667  0.16985794
   0.73333380  0.26666598  0.60809141
   0.73333319  0.26666647  0.70660902
   0.93333339  0.66666656  0.70660902
   0.93333450  0.66666684  0.60809141
   0.73333333  0.26666667  0.16985794
   0.73333333  0.26666667  0.26837554
   0.93333333  0.46666667  0.26837554
   0.73333303  0.06666654  0.60809141
   0.73333328  0.06666646  0.70660902
   0.93333329  0.06666678  0.70660902
   0.93333333  0.86666667  0.16985794
   0.73333333  0.06666667  0.16985794
   0.93333256  0.06666639  0.60809141
   0.73333333  0.06666667  0.26837554
   0.93333333  0.26666667  0.16985794
   0.93333338  0.26666637  0.70660902
   0.93333333  0.86666667  0.26837554
   0.73333333  0.46666667  0.26837554
   0.73333333  0.46666667  0.16985794
   0.73333333  0.86666667  0.16985794
   0.73333289  0.86666644  0.70660902
   0.73333333  0.86666667  0.26837554
   0.93333333  0.46666667  0.16985794
   0.73333351  0.86666756  0.60809141
   0.73333401  0.66666744  0.60809141
   0.73333286  0.66666640  0.70660902
   0.93333317  0.46666648  0.70660902
   0.73333333  0.66666667  0.16985794
   0.93333408  0.46666657  0.60809141
   0.73333333  0.66666667  0.26837554
   0.93333302  0.26666684  0.60809141
   0.93333333  0.26666667  0.26837554
   0.73333412  0.46666620  0.60809141
   0.73333264  0.46666619  0.70660902
   0.93333333  0.66666667  0.26837554
   0.93333333  0.06666667  0.26837554
   0.93333333  0.66666667  0.16985794
   0.53333305  0.86666717  0.60809141
   0.53333341  0.06666670  0.70660902
   0.53333333  0.86666667  0.16985794
   0.33333333  0.26666667  0.16985794
   0.33333333  0.26666667  0.26837554
   0.33333328  0.06666548  0.60809141
   0.33333331  0.06666659  0.70660902
   0.33333333  0.06666667  0.16985794
   0.33333333  0.06666667  0.26837554
   0.13333321  0.86666588  0.60809141
   0.13333333  0.86666656  0.70660902
   0.13333333  0.86666667  0.16985794
   0.13333333  0.86666667  0.26837554
   0.13333357  0.66666650  0.60809141
   0.13333303  0.66666659  0.70660902
   0.33333343  0.26666699  0.70660902
   0.13333333  0.66666667  0.16985794
   0.13333314  0.46666709  0.60809141
   0.13333305  0.46666606  0.70660902
   0.13333333  0.46666667  0.16985794
   0.13333333  0.46666667  0.26837554
   0.13333439  0.26666798  0.60809141
   0.13333339  0.26666675  0.70660902
   0.13333333  0.26666667  0.16985794
   0.13333333  0.26666667  0.26837554
   0.13333246  0.06666555  0.60809141
   0.13333333  0.06666670  0.70660902
   0.13333333  0.06666667  0.16985794
   0.13333333  0.06666667  0.26837554
   0.13333333  0.66666667  0.26837554
   0.33333282  0.26666805  0.60809141
   0.33333333  0.46666667  0.26837554
   0.33333333  0.46666667  0.16985794
   0.53333333  0.86666667  0.26837554
   0.53333088  0.66666448  0.60809141
   0.53333352  0.66666628  0.70660902
   0.53333333  0.66666667  0.16985794
   0.53333333  0.66666667  0.26837554
   0.53333137  0.46666836  0.60809141
   0.53333311  0.46666645  0.70660902
   0.53333333  0.46666667  0.16985794
   0.53333333  0.46666667  0.26837554
   0.53333306  0.26666567  0.60809141
   0.53333341  0.26666700  0.70660902
   0.53333333  0.26666667  0.16985794
   0.53333333  0.26666667  0.26837554
   0.53333363  0.06666597  0.60809141
   0.93333322  0.86666659  0.70660902
   0.53333333  0.06666667  0.16985794
   0.53333333  0.06666667  0.26837554
   0.33333313  0.86666583  0.60809141
   0.33333322  0.86666684  0.70660902
   0.33333333  0.86666667  0.16985794
   0.33333333  0.86666667  0.26837554
   0.33333281  0.66666644  0.60809141
   0.33333338  0.66666642  0.70660902
   0.33333333  0.66666667  0.16985794
   0.33333333  0.66666667  0.26837554
   0.33333260  0.46666643  0.60809141
   0.33333358  0.46666610  0.70660902
   0.53333388  0.86666680  0.70660902
   0.93333366  0.86666680  0.60809141
Direct configuration=     5
   0.48133370  0.35076413  0.38597198
   0.41902191  0.28038249  0.41522943
   0.56912696  0.41798819  0.40636724
   0.56160848  0.38889790  0.44897138
   0.46769488  0.30307302  0.45435897
   0.33080248  0.44274415  0.43521782
   0.44491916  0.50737253  0.48802200
   0.35076319  0.42785283  0.47728676
   0.48215200  0.57040490  0.45321108
   0.41270880  0.53108724  0.42072155
   0.45250696  0.42309225  0.43763998
   0.43942599  0.26198845  0.48279235
   0.30232603  0.36882411  0.49756701
   0.26478610  0.39675092  0.41790386
   0.48208230  0.51713698  0.51733310
   0.55380806  0.63481591  0.45108713
   0.34562360  0.22150915  0.40923499
   0.46305196  0.35522362  0.35397105
   0.63053107  0.48056610  0.39215997
   0.61770995  0.42346074  0.47239618
   0.42167100  0.56163781  0.38987967
   0.60000242  0.60000381  0.65735022
   0.20000000  0.80000000  0.21911674
   0.20000193  0.59999996  0.65735022
   0.60000000  0.80000000  0.21911674
   0.20000000  0.60000000  0.21911674
   0.60000113  0.80000088  0.65735022
   0.20000000  0.40000000  0.21911674
   0.80000000  0.00000000  0.21911674
   0.19999961  0.19999984  0.65735022
   0.80000000  0.00000052  0.65735022
   0.20000000  0.20000000  0.21911674
   0.20000003  0.80000017  0.65735022
   0.20000042  0.39999984  0.65735022
   0.60000000  0.60000000  0.21911674
   0.40000000  0.60000000  0.21911674
   0.39999862  0.00000028  0.65735022
   0.60000117  0.39999868  0.65735022
   0.40000000  0.20000000  0.21911674
   0.60000000  0.40000000  0.21911674
   0.39999950  0.19999965  0.65735022
   0.40000000  0.40000000  0.21911674
   0.60000078  0.20000042  0.65735022
   0.39999597  0.39999843  0.65735022
   0.60000000  0.20000000  0.21911674
   0.39999985  0.79999823  0.65735022
   0.39999907  0.59999975  0.65735022
   0.60000247  0.00000000  0.65735022
   0.40000000  0.80000000  0.21911674
   0.60000000  0.00000000  0.21911674
   0.40000000  0.00000000  0.21911674
   0.80000000  0.20000000  0.21911674
   0.20000023  0.00000089  0.65735022
   0.20000000  0.00000000  0.21911674
   0.00000000  0.00000000  0.21911674
   0.79999955  0.80000008  0.65735022
  -0.00000035  0.00000028  0.65735022
   0.80000000  0.80000000  0.21911674
   0.00000000  0.20000000  0.21911674
  -0.00000124  0.19999939  0.65735022
   0.79999985  0.60000077  0.65735022
   0.00000000  0.40000000  0.21911674
   0.00000015  0.39999728  0.65735022
   0.00000000  0.60000000  0.21911674
   0.79999891  0.39999870  0.65735022
  -0.00000024  0.60000174  0.65735022
   0.80000000  0.60000000  0.21911674
   0.80000000  0.40000000  0.21911674
  -0.00000077  0.79999980  0.65735022
   0.00000000  0.80000000  0.21911674
   0.80000048  0.19999914  0.65735022
   0.93333333  0.06666667  0.16985794
   0.73333356  0.26666632  0.60809141
   0.73333326  0.26666657  0.70660902
   0.93333336  0.66666661  0.70660902
   0.93333392  0.66666675  0.60809141
   0.73333333  0.26666667  0.16985794
   0.73333333  0.26666667  0.26837554
   0.93333333  0.46666667  0.26837554
   0.73333318  0.06666660  0.60809141
   0.73333331  0.06666656  0.70660902
   0.93333331  0.06666672  0.70660902
   0.93333333  0.86666667  0.16985794
   0.73333333  0.06666667  0.16985794
   0.93333295  0.06666653  0.60809141
   0.73333333  0.06666667  0.26837554
   0.93333333  0.26666667  0.16985794
   0.93333336  0.26666652  0.70660902
   0.93333333  0.86666667  0.26837554
   0.73333333  0.46666667  0.26837554
   0.73333333  0.46666667  0.16985794
   0.73333333  0.86666667  0.16985794
   0.73333311  0.86666655  0.70660902
   0.73333333  0.86666667  0.26837554
   0.93333333  0.46666667  0.16985794
   0.73333342  0.86666711  0.60809141