 171 171   0   0
  0.4145774E+02  0.1590000E-08  0.1590000E-08  0.3238000E-08  0.5000000E-15
  1.000000000000000E-004
  CAR 
 basalPlane                              
      2.19417262    -19.07996213  301      0.20496836      1.00000000
    -19.080  0.0000E+00  0.0000E+00
    -19.009  0.0000E+00  0.0000E+00
    -18.938  0.0000E+00  0.0000E+00
    -18.867  0.0000E+00  0.0000E+00
    -18.796  0.0000E+00  0.0000E+00
    -18.725  0.0000E+00  0.0000E+00
    -18.654  0.6262E-18  0.4441E-19
    -18.584  0.1499E-14  0.1063E-15
    -18.513  0.1325E-11  0.9407E-13
    -18.442  0.4381E-09  0.3116E-10
    -18.371  0.5454E-07  0.3899E-08
    -18.300  0.2578E-05  0.1867E-06
    -18.229  0.4681E-04  0.3506E-05
    -18.158  0.3302E-03  0.2692E-04
    -18.087  0.9160E-03  0.9188E-04
    -18.016  0.1006E-02  0.1632E-03
    -17.945  0.4400E-03  0.1944E-03
    -17.874  0.1125E-03  0.2024E-03
    -17.804  0.2923E-03  0.2231E-03
    -17.733  0.8674E-03  0.2847E-03
    -17.662  0.1037E-02  0.3582E-03
    -17.591  0.4912E-03  0.3930E-03
    -17.520  0.9175E-04  0.3995E-03
    -17.449  0.6685E-05  0.4000E-03
    -17.378  0.1877E-06  0.4000E-03
    -17.307  0.2007E-08  0.4000E-03
    -17.236  0.8100E-11  0.4000E-03
    -17.165  0.1225E-13  0.4000E-03
    -17.094  0.6889E-17  0.4000E-03
    -17.023  0.0000E+00  0.4000E-03
    -16.953  0.0000E+00  0.4000E-03
    -16.882  0.0000E+00  0.4000E-03
    -16.811  0.0000E+00  0.4000E-03
    -16.740  0.0000E+00  0.4000E-03
    -16.669  0.0000E+00  0.4000E-03
    -16.598  0.0000E+00  0.4000E-03
    -16.527  0.0000E+00  0.4000E-03
    -16.456  0.0000E+00  0.4000E-03
    -16.385  0.0000E+00  0.4000E-03
    -16.314  0.0000E+00  0.4000E-03
    -16.243  0.1252E-17  0.4000E-03
    -16.172  0.2639E-14  0.4000E-03
    -16.102  0.2160E-11  0.4000E-03
    -16.031  0.6615E-09  0.4000E-03
    -15.960  0.7632E-07  0.4000E-03
    -15.889  0.3347E-05  0.4002E-03
    -15.818  0.5642E-04  0.4042E-03
    -15.747  0.3704E-03  0.4305E-03
    -15.676  0.9701E-03  0.4993E-03
    -15.605  0.1142E-02  0.5803E-03
    -15.534  0.1071E-02  0.6562E-03
    -15.463  0.1146E-02  0.7374E-03
    -15.392  0.6954E-03  0.7867E-03
    -15.322  0.2647E-03  0.8055E-03
    -15.251  0.9835E-03  0.8752E-03
    -15.180  0.4006E-02  0.1159E-02
    -15.109  0.6866E-02  0.1646E-02
    -15.038  0.6556E-02  0.2111E-02
    -14.967  0.6910E-02  0.2601E-02
    -14.896  0.5841E-02  0.3015E-02
    -14.825  0.2238E-02  0.3174E-02
    -14.754  0.3431E-03  0.3199E-02
    -14.683  0.2213E-04  0.3200E-02
    -14.612  0.3522E-04  0.3203E-02
    -14.541  0.3107E-03  0.3225E-02
    -14.471  0.1360E-02  0.3321E-02
    -14.400  0.3836E-02  0.3593E-02
    -14.329  0.7663E-02  0.4137E-02
    -14.258  0.1095E-01  0.4913E-02
    -14.187  0.1590E-01  0.6040E-02
    -14.116  0.2183E-01  0.7588E-02
    -14.045  0.1896E-01  0.8933E-02
    -13.974  0.1047E-01  0.9675E-02
    -13.903  0.8911E-02  0.1031E-01
    -13.832  0.1254E-01  0.1120E-01
    -13.761  0.1790E-01  0.1247E-01
    -13.691  0.2400E-01  0.1417E-01
    -13.620  0.2406E-01  0.1587E-01
    -13.549  0.2353E-01  0.1754E-01
    -13.478  0.2251E-01  0.1914E-01
    -13.407  0.1544E-01  0.2023E-01
    -13.336  0.8939E-02  0.2087E-01
    -13.265  0.3824E-02  0.2114E-01
    -13.194  0.7970E-03  0.2120E-01
    -13.123  0.6786E-04  0.2120E-01
    -13.052  0.2251E-05  0.2120E-01
    -12.981  0.2857E-07  0.2120E-01
    -12.910  0.1372E-09  0.2120E-01
    -12.840  0.2475E-12  0.2120E-01
    -12.769  0.1669E-15  0.2120E-01
    -12.698  0.0000E+00  0.2120E-01
    -12.627  0.0000E+00  0.2120E-01
    -12.556  0.0000E+00  0.2120E-01
    -12.485  0.0000E+00  0.2120E-01
    -12.414  0.0000E+00  0.2120E-01
    -12.343  0.0000E+00  0.2120E-01
    -12.272  0.0000E+00  0.2120E-01
    -12.201  0.0000E+00  0.2120E-01
    -12.130  0.0000E+00  0.2120E-01
    -12.059  0.0000E+00  0.2120E-01
    -11.989  0.0000E+00  0.2120E-01
    -11.918  0.0000E+00  0.2120E-01
    -11.847  0.0000E+00  0.2120E-01
    -11.776  0.0000E+00  0.2120E-01
    -11.705  0.0000E+00  0.2120E-01
    -11.634  0.0000E+00  0.2120E-01
    -11.563  0.0000E+00  0.2120E-01
    -11.492  0.0000E+00  0.2120E-01
    -11.421  0.0000E+00  0.2120E-01
    -11.350  0.0000E+00  0.2120E-01
    -11.279  0.0000E+00  0.2120E-01
    -11.209  0.0000E+00  0.2120E-01
    -11.138  0.0000E+00  0.2120E-01
    -11.067  0.0000E+00  0.2120E-01
    -10.996  0.0000E+00  0.2120E-01
    -10.925  0.0000E+00  0.2120E-01
    -10.854  0.0000E+00  0.2120E-01
    -10.783  0.0000E+00  0.2120E-01
    -10.712  0.0000E+00  0.2120E-01
    -10.641  0.0000E+00  0.2120E-01
    -10.570  0.0000E+00  0.2120E-01
    -10.499  0.0000E+00  0.2120E-01
    -10.428  0.0000E+00  0.2120E-01
    -10.358  0.0000E+00  0.2120E-01
    -10.287  0.0000E+00  0.2120E-01
    -10.216  0.0000E+00  0.2120E-01
    -10.145  0.0000E+00  0.2120E-01
    -10.074  0.0000E+00  0.2120E-01
    -10.003  0.0000E+00  0.2120E-01
     -9.932  0.5730E-16  0.2120E-01
     -9.861  0.7800E-13  0.2120E-01
     -9.790  0.3969E-10  0.2120E-01
     -9.719  0.7611E-08  0.2120E-01
     -9.648  0.5571E-06  0.2120E-01
     -9.578  0.1588E-04  0.2120E-01
     -9.507  0.1818E-03  0.2121E-01
     -9.436  0.8767E-03  0.2128E-01
     -9.365  0.1926E-02  0.2141E-01
     -9.294  0.2377E-02  0.2158E-01
     -9.223  0.2600E-02  0.2177E-01
     -9.152  0.2675E-02  0.2196E-01
     -9.081  0.2022E-02  0.2210E-01
     -9.010  0.1086E-02  0.2218E-01
     -8.939  0.4722E-03  0.2221E-01
     -8.868  0.6996E-03  0.2226E-01
     -8.797  0.1084E-02  0.2234E-01
     -8.727  0.7045E-03  0.2239E-01
     -8.656  0.1812E-03  0.2240E-01
     -8.585  0.1826E-04  0.2240E-01
     -8.514  0.7119E-06  0.2240E-01
     -8.443  0.1061E-07  0.2240E-01
     -8.372  0.5987E-10  0.2240E-01
     -8.301  0.1269E-12  0.2240E-01
     -8.230  0.1002E-15  0.2240E-01
     -8.159  0.0000E+00  0.2240E-01
     -8.088  0.0000E+00  0.2240E-01
     -8.017  0.0000E+00  0.2240E-01
     -7.946  0.0000E+00  0.2240E-01
     -7.876  0.0000E+00  0.2240E-01
     -7.805  0.0000E+00  0.2240E-01
     -7.734  0.3507E-16  0.2240E-01
     -7.663  0.5111E-13  0.2240E-01
     -7.592  0.2790E-10  0.2240E-01
     -7.521  0.5804E-08  0.2240E-01
     -7.450  0.4731E-06  0.2240E-01
     -7.379  0.1586E-04  0.2240E-01
     -7.308  0.2336E-03  0.2242E-01
     -7.237  0.1602E-02  0.2253E-01
     -7.166  0.5179E-02  0.2290E-01
     -7.096  0.7984E-02  0.2346E-01
     -7.025  0.7501E-02  0.2400E-01
     -6.954  0.7949E-02  0.2456E-01
     -6.883  0.9053E-02  0.2520E-01
     -6.812  0.1203E-01  0.2606E-01
     -6.741  0.1809E-01  0.2734E-01
     -6.670  0.2428E-01  0.2906E-01
     -6.599  0.2650E-01  0.3094E-01
     -6.528  0.2059E-01  0.3240E-01
     -6.457  0.1542E-01  0.3349E-01
     -6.386  0.1166E-01  0.3432E-01
     -6.315  0.5616E-02  0.3472E-01
     -6.245  0.2653E-02  0.3491E-01
     -6.174  0.5609E-02  0.3530E-01
     -6.103  0.9916E-02  0.3601E-01
     -6.032  0.1045E-01  0.3675E-01
     -5.961  0.7036E-02  0.3725E-01
     -5.890  0.4301E-02  0.3755E-01
     -5.819  0.6571E-02  0.3802E-01
     -5.748  0.8850E-02  0.3865E-01
     -5.677  0.9081E-02  0.3929E-01
     -5.606  0.1448E-01  0.4032E-01
     -5.535  0.2014E-01  0.4174E-01
     -5.465  0.1867E-01  0.4307E-01
     -5.394  0.1698E-01  0.4427E-01
     -5.323  0.1719E-01  0.4549E-01
     -5.252  0.1601E-01  0.4663E-01
     -5.181  0.1715E-01  0.4784E-01
     -5.110  0.1666E-01  0.4902E-01
     -5.039  0.1112E-01  0.4981E-01
     -4.968  0.1115E-01  0.5060E-01
     -4.897  0.1479E-01  0.5165E-01
     -4.826  0.1539E-01  0.5274E-01
     -4.755  0.1824E-01  0.5404E-01
     -4.684  0.2326E-01  0.5569E-01
     -4.614  0.2596E-01  0.5753E-01
     -4.543  0.2037E-01  0.5897E-01
     -4.472  0.1118E-01  0.5976E-01
     -4.401  0.9374E-02  0.6043E-01
     -4.330  0.1081E-01  0.6120E-01
     -4.259  0.1119E-01  0.6199E-01
     -4.188  0.1115E-01  0.6278E-01
     -4.117  0.8195E-02  0.6336E-01
     -4.046  0.3358E-02  0.6360E-01
     -3.975  0.2352E-02  0.6377E-01
     -3.904  0.5550E-02  0.6416E-01
     -3.833  0.1169E-01  0.6499E-01
     -3.763  0.1503E-01  0.6605E-01
     -3.692  0.1563E-01  0.6716E-01
     -3.621  0.2082E-01  0.6864E-01
     -3.550  0.2453E-01  0.7038E-01
     -3.479  0.2286E-01  0.7200E-01
     -3.408  0.2289E-01  0.7362E-01
     -3.337  0.2309E-01  0.7526E-01
     -3.266  0.1279E-01  0.7617E-01
     -3.195  0.3297E-02  0.7640E-01
     -3.124  0.1557E-02  0.7651E-01
     -3.053  0.2220E-02  0.7667E-01
     -2.983  0.2161E-02  0.7682E-01
     -2.912  0.4905E-02  0.7717E-01
     -2.841  0.1373E-01  0.7814E-01
     -2.770  0.2278E-01  0.7976E-01
     -2.699  0.2552E-01  0.8157E-01
     -2.628  0.1954E-01  0.8295E-01
     -2.557  0.1198E-01  0.8380E-01
     -2.486  0.1386E-01  0.8479E-01
     -2.415  0.1952E-01  0.8617E-01
     -2.344  0.1979E-01  0.8757E-01
     -2.273  0.1465E-01  0.8861E-01
     -2.202  0.1053E-01  0.8936E-01
     -2.132  0.9896E-02  0.9006E-01
     -2.061  0.1326E-01  0.9100E-01
     -1.990  0.1316E-01  0.9194E-01
     -1.919  0.8030E-02  0.9251E-01
     -1.848  0.7521E-02  0.9304E-01
     -1.777  0.9466E-02  0.9371E-01
     -1.706  0.9639E-02  0.9439E-01
     -1.635  0.7118E-02  0.9490E-01
     -1.564  0.3253E-02  0.9513E-01
     -1.493  0.8751E-03  0.9519E-01
     -1.422  0.1236E-03  0.9520E-01
     -1.352  0.7893E-05  0.9520E-01
     -1.281  0.2075E-06  0.9520E-01
     -1.210  0.2144E-08  0.9520E-01
     -1.139  0.8497E-11  0.9520E-01
     -1.068  0.1273E-13  0.9520E-01
     -0.997  0.6889E-17  0.9520E-01
     -0.926  0.0000E+00  0.9520E-01
     -0.855  0.0000E+00  0.9520E-01
     -0.784  0.0000E+00  0.9520E-01
     -0.713  0.0000E+00  0.9520E-01
     -0.642  0.0000E+00  0.9520E-01
     -0.571  0.9519E-16  0.9520E-01
     -0.501  0.1211E-12  0.9520E-01
     -0.430  0.5756E-10  0.9520E-01
     -0.359  0.1027E-07  0.9520E-01
     -0.288  0.6937E-06  0.9520E-01
     -0.217  0.1791E-04  0.9520E-01
     -0.146  0.1789E-03  0.9521E-01
     -0.075  0.7003E-03  0.9526E-01
     -0.004  0.1092E-02  0.9534E-01
      0.067  0.8006E-03  0.9540E-01
      0.138  0.9502E-03  0.9547E-01
      0.209  0.2032E-02  0.9561E-01
      0.280  0.3667E-02  0.9587E-01
      0.350  0.9865E-02  0.9657E-01
      0.421  0.2008E-01  0.9799E-01
      0.492  0.2410E-01  0.9970E-01
      0.563  0.2734E-01  0.1016E+00
      0.634  0.2824E-01  0.1036E+00
      0.705  0.1782E-01  0.1049E+00
      0.776  0.7246E-02  0.1054E+00
      0.847  0.1047E-01  0.1062E+00
      0.918  0.2891E-01  0.1082E+00
      0.989  0.3897E-01  0.1110E+00
      1.060  0.2938E-01  0.1131E+00
      1.130  0.1818E-01  0.1143E+00
      1.201  0.8819E-02  0.1150E+00
      1.272  0.2630E-02  0.1152E+00
      1.343  0.4888E-03  0.1152E+00
      1.414  0.5269E-04  0.1152E+00
      1.485  0.2664E-05  0.1152E+00
      1.556  0.5501E-07  0.1152E+00
      1.627  0.4391E-09  0.1152E+00
      1.698  0.1326E-11  0.1152E+00
      1.769  0.1499E-14  0.1152E+00
      1.840  0.6262E-18  0.1152E+00
      1.911  0.0000E+00  0.1152E+00
      1.981  0.0000E+00  0.1152E+00
      2.052  0.0000E+00  0.1152E+00
      2.123  0.0000E+00  0.1152E+00
      2.194  0.0000E+00  0.1152E+00
