       N       E                     dE             d eps       ncg     rms          rms(c)
DAV:   1     0.769923303575E+04    0.76992E+04   -0.36435E+05  1188   0.114E+03
DAV:   2    -0.255967964844E+03   -0.79552E+04   -0.77240E+04  1596   0.271E+02
DAV:   3    -0.126247572034E+04   -0.10065E+04   -0.99352E+03  1344   0.103E+02
DAV:   4    -0.132110531322E+04   -0.58630E+02   -0.58319E+02  1776   0.298E+01
DAV:   5    -0.132309825922E+04   -0.19929E+01   -0.19831E+01  1740   0.488E+00    0.169E+02
DAV:   6    -0.127582593741E+04    0.47272E+02   -0.96967E+02  1572   0.277E+01    0.925E+01
DAV:   7    -0.129115574965E+04   -0.15330E+02   -0.11272E+03  1752   0.494E+01    0.545E+01
DAV:   8    -0.123431083497E+04    0.56845E+02   -0.92450E+01  1416   0.837E+00    0.334E+01
DAV:   9    -0.124877161613E+04   -0.14461E+02   -0.23159E+02  1824   0.100E+01    0.609E+01
DAV:  10    -0.121526755893E+04    0.33504E+02   -0.12179E+02  1716   0.202E+01    0.199E+01
DAV:  11    -0.122450255866E+04   -0.92350E+01   -0.83934E+01  1608   0.352E+00    0.176E+01
DAV:  12    -0.122422950501E+04    0.27305E+00   -0.78943E+00  1692   0.143E+00    0.175E+01
DAV:  13    -0.122332358929E+04    0.90592E+00   -0.40667E+00  1752   0.169E+00    0.164E+01
DAV:  14    -0.122320556342E+04    0.11803E+00   -0.20925E+00  1716   0.107E+00    0.159E+01
DAV:  15    -0.122348352588E+04   -0.27796E+00   -0.16480E+00  1728   0.862E-01    0.144E+01
DAV:  16    -0.122355650015E+04   -0.72974E-01   -0.83538E-01  1632   0.518E-01    0.135E+01
DAV:  17    -0.122476672814E+04   -0.12102E+01   -0.94748E+00  1680   0.782E-01    0.163E+01
DAV:  18    -0.122480899313E+04   -0.42265E-01   -0.96329E-02  1476   0.299E-01    0.167E+01
DAV:  19    -0.122493738518E+04   -0.12839E+00   -0.11656E-02  1800   0.112E-01    0.168E+01
DAV:  20    -0.122465166174E+04    0.28572E+00   -0.10181E-01  1752   0.328E-01    0.159E+01
DAV:  21    -0.122376828968E+04    0.88337E+00   -0.88804E-01  1656   0.809E-01    0.107E+01
DAV:  22    -0.122351647852E+04    0.25181E+00   -0.69036E-01  1476   0.557E-01    0.745E+00
DAV:  23    -0.122333824071E+04    0.17824E+00   -0.19393E-01  1512   0.375E-01    0.526E+00
DAV:  24    -0.122332391474E+04    0.14326E-01   -0.60908E-02  1620   0.166E-01    0.556E+00
DAV:  25    -0.122323906509E+04    0.84850E-01   -0.49293E-02  1668   0.157E-01    0.434E+00
DAV:  26    -0.122321072979E+04    0.28335E-01   -0.52545E-02  1740   0.149E-01    0.480E+00
DAV:  27    -0.122306399225E+04    0.14674E+00   -0.15539E-01  1716   0.309E-01    0.286E+00
DAV:  28    -0.122306802991E+04   -0.40377E-02   -0.54779E-02  1632   0.152E-01    0.357E+00
DAV:  29    -0.122298922530E+04    0.78805E-01   -0.13202E-01  1716   0.223E-01    0.218E+00
DAV:  30    -0.122298000783E+04    0.92175E-02   -0.84030E-02  1608   0.134E-01    0.258E+00
DAV:  31    -0.122290865391E+04    0.71354E-01   -0.11219E-01  1680   0.243E-01    0.145E+00
DAV:  32    -0.122289334183E+04    0.15312E-01   -0.39299E-02  1632   0.124E-01    0.152E+00
DAV:  33    -0.122288186811E+04    0.11474E-01   -0.13234E-02  1488   0.530E-02    0.120E+00
DAV:  34    -0.122288247177E+04   -0.60366E-03   -0.67693E-03  1272   0.280E-02    0.132E+00
DAV:  35    -0.122287896498E+04    0.35068E-02   -0.33176E-03  1008   0.205E-02    0.121E+00
DAV:  36    -0.122286562046E+04    0.13345E-01   -0.36496E-03  1392   0.691E-02    0.113E+00
DAV:  37    -0.122284732466E+04    0.18296E-01   -0.38019E-03  1512   0.789E-02    0.945E-01
DAV:  38    -0.122284281329E+04    0.45114E-02   -0.22711E-03  1428   0.388E-02    0.944E-01
DAV:  39    -0.122283915283E+04    0.36605E-02   -0.11588E-03  1140   0.252E-02    0.857E-01
DAV:  40    -0.122283923092E+04   -0.78094E-04   -0.31580E-04   960   0.110E-02
   1 F= -.12533035E+04 E0= -.12532449E+04  d E =-.125330E+04
       N       E                     dE             d eps       ncg     rms          rms(c)
DAV:   1    -0.122302503821E+04   -0.18589E+00   -0.45914E+01  1248   0.495E+00    0.684E+00
DAV:   2    -0.122386497559E+04   -0.83994E+00   -0.61204E+00  1512   0.182E+00    0.150E+01
DAV:   3    -0.122395943205E+04   -0.94456E-01   -0.55435E+00  1596   0.181E+00    0.704E+00
DAV:   4    -0.122367377875E+04    0.28565E+00   -0.55054E+00  1644   0.990E-01    0.625E+00
DAV:   5    -0.122348582242E+04    0.18796E+00   -0.32699E+00  1584   0.338E-01    0.395E+00
DAV:   6    -0.122331338885E+04    0.17243E+00   -0.20813E+00  1860   0.764E-01    0.291E+00
DAV:   7    -0.122327456756E+04    0.38821E-01   -0.16325E+00  1632   0.455E-01    0.250E+00
DAV:   8    -0.122324855770E+04    0.26010E-01   -0.35196E-01  1608   0.299E-01    0.318E+00
DAV:   9    -0.122322954331E+04    0.19014E-01   -0.23699E-01  1536   0.147E-01    0.165E+00
DAV:  10    -0.122321480236E+04    0.14741E-01   -0.13918E-01  1644   0.141E-01    0.824E-01
DAV:  11    -0.122320859166E+04    0.62107E-02   -0.81881E-02  1620   0.886E-02    0.705E-01
DAV:  12    -0.122320772083E+04    0.87083E-03   -0.46639E-02  1584   0.737E-02    0.659E-01
DAV:  13    -0.122320478649E+04    0.29343E-02   -0.24598E-02  1488   0.550E-02    0.413E-01
DAV:  14    -0.122320275532E+04    0.20312E-02   -0.11562E-02  1224   0.392E-02    0.397E-01
DAV:  15    -0.122320138021E+04    0.13751E-02   -0.69382E-03  1272   0.403E-02    0.103E-01
DAV:  16    -0.122320123514E+04    0.14506E-03   -0.28229E-03  1140   0.229E-02    0.230E-01
DAV:  17    -0.122320105114E+04    0.18400E-03   -0.17767E-03   888   0.149E-02    0.137E-01
DAV:  18    -0.122320182350E+04   -0.77236E-03   -0.32428E-04   996   0.238E-02    0.369E-01
DAV:  19    -0.122320189694E+04   -0.73437E-04   -0.51482E-04   960   0.133E-02
   2 F= -.12537216E+04 E0= -.12536525E+04  d E =-.418183E+00
       N       E                     dE             d eps       ncg     rms          rms(c)
DAV:   1    -0.122316914194E+04    0.32682E-01   -0.33187E+00  1248   0.134E+00    0.158E+00
DAV:   2    -0.122318921624E+04   -0.20074E-01   -0.21733E-01  1344   0.415E-01    0.126E+00
DAV:   3    -0.122335380963E+04   -0.16459E+00   -0.43510E-01  1632   0.338E-01    0.858E+00
DAV:   4    -0.122324028647E+04    0.11352E+00   -0.28679E-01  1548   0.229E-01    0.135E+00
DAV:   5    -0.122320346335E+04    0.36823E-01   -0.26123E-01  1608   0.111E-01    0.172E+00
DAV:   6    -0.122319247411E+04    0.10989E-01   -0.15550E-01  1572   0.804E-02    0.519E-01
DAV:   7    -0.122319291638E+04   -0.44227E-03   -0.64695E-02  1296   0.420E-02    0.111E+00
DAV:   8    -0.122318827354E+04    0.46428E-02   -0.50897E-02  1128   0.354E-02    0.299E-01
DAV:   9    -0.122318800605E+04    0.26749E-03   -0.14106E-02  1104   0.290E-02    0.666E-01
DAV:  10    -0.122318661527E+04    0.13908E-02   -0.92782E-03   984   0.223E-02    0.312E-01
DAV:  11    -0.122318668383E+04   -0.68559E-04   -0.56088E-03  1008   0.209E-02    0.407E-01
DAV:  12    -0.122318613438E+04    0.54944E-03   -0.25462E-03   888   0.131E-02    0.203E-01
DAV:  13    -0.122318629273E+04   -0.15835E-03   -0.16269E-03   888   0.117E-02    0.284E-01
DAV:  14    -0.122318606060E+04    0.23213E-03   -0.81849E-04   792   0.809E-03    0.166E-01
DAV:  15    -0.122318615009E+04   -0.89486E-04   -0.28937E-04   768   0.646E-03
   3 F= -.12537218E+04 E0= -.12536551E+04  d E =-.418306E+00
       N       E                     dE             d eps       ncg     rms          rms(c)
DAV:   1    -0.122319727790E+04   -0.11217E-01   -0.88114E-01  1212   0.697E-01    0.784E-01
DAV:   2    -0.122320686795E+04   -0.95900E-02   -0.68222E-02  1392   0.254E-01    0.978E-01
DAV:   3    -0.122324439275E+04   -0.37525E-01   -0.87547E-02  1536   0.217E-01    0.437E+00
DAV:   4    -0.122322176248E+04    0.22630E-01   -0.56411E-02  1488   0.162E-01    0.863E-01
DAV:   5    -0.122321416436E+04    0.75981E-02   -0.92528E-02  1428   0.640E-02    0.138E+00
DAV:   6    -0.122320602041E+04    0.81440E-02   -0.75537E-02  1176   0.496E-02    0.537E-01
DAV:   7    -0.122320662298E+04   -0.60257E-03   -0.21896E-02  1140   0.398E-02    0.977E-01
DAV:   8    -0.122320244810E+04    0.41749E-02   -0.15892E-02  1140   0.352E-02    0.165E-01
DAV:   9    -0.122320267723E+04   -0.22913E-03   -0.30963E-03  1044   0.246E-02    0.578E-01
DAV:  10    -0.122320153047E+04    0.11468E-02   -0.24181E-03   876   0.179E-02    0.201E-01
DAV:  11    -0.122320155343E+04   -0.22957E-04   -0.13856E-03   948   0.167E-02    0.293E-01
DAV:  12    -0.122320135328E+04    0.20015E-03   -0.85070E-04   744   0.845E-03    0.153E-01
DAV:  13    -0.122320134845E+04    0.48252E-05   -0.44447E-04   780   0.865E-03
   4 F= -.12537287E+04 E0= -.12536629E+04  d E =-.425268E+00
       N       E                     dE             d eps       ncg     rms          rms(c)
DAV:   1    -0.122310811774E+04    0.93236E-01   -0.75891E+00  1200   0.179E+00    0.169E+00
DAV:   2    -0.122349823830E+04   -0.39012E+00   -0.23923E+00  1668   0.113E+00    0.499E+00
DAV:   3    -0.122318411393E+04    0.31412E+00   -0.18483E+00  1680   0.761E-01    0.222E+00
DAV:   4    -0.122315846274E+04    0.25651E-01   -0.52581E-01  1680   0.182E-01    0.187E+00
DAV:   5    -0.122313067086E+04    0.27792E-01   -0.29094E-01  1740   0.206E-01    0.134E+00
DAV:   6    -0.122312106836E+04    0.96025E-02   -0.18490E-01  1548   0.108E-01    0.894E-01
DAV:   7    -0.122311764736E+04    0.34210E-02   -0.79685E-02  1548   0.780E-02    0.694E-01
DAV:   8    -0.122311591974E+04    0.17276E-02   -0.57644E-02  1488   0.629E-02    0.509E-01
DAV:   9    -0.122311514553E+04    0.77422E-03   -0.39531E-02  1332   0.536E-02    0.508E-01
DAV:  10    -0.122311498300E+04    0.16252E-03   -0.25969E-02  1200   0.493E-02    0.546E-01
DAV:  11    -0.122311371120E+04    0.12718E-02   -0.11229E-02   996   0.280E-02    0.212E-01
DAV:  12    -0.122311357823E+04    0.13297E-03   -0.69569E-03   804   0.149E-02    0.200E-01
DAV:  13    -0.122311339394E+04    0.18429E-03   -0.39318E-03   744   0.130E-02    0.116E-01
DAV:  14    -0.122311345516E+04   -0.61217E-04   -0.23363E-03   720   0.903E-03    0.155E-01
DAV:  15    -0.122311331823E+04    0.13692E-03   -0.11571E-03   708   0.740E-03    0.493E-02
DAV:  16    -0.122311337242E+04   -0.54183E-04   -0.58097E-04   696   0.540E-03
   5 F= -.12536474E+04 E0= -.12535819E+04  d E =0.812886E-01
       N       E                     dE             d eps       ncg     rms          rms(c)
DAV:   1    -0.122320146816E+04   -0.88150E-01   -0.48761E+00  1200   0.140E+00    0.884E-01
DAV:   2    -0.122353170193E+04   -0.33023E+00   -0.16817E+00  1584   0.564E-01    0.105E+01
DAV:   3    -0.122327278317E+04    0.25892E+00   -0.50053E-01  1608   0.330E-01    0.125E+00
DAV:   4    -0.122322580392E+04    0.46979E-01   -0.26596E-01  1572   0.120E-01    0.169E+00
DAV:   5    -0.122321463271E+04    0.11171E-01   -0.23261E-01  1212   0.622E-02    0.887E-01
DAV:   6    -0.122320944430E+04    0.51884E-02   -0.12512E-02  1320   0.634E-02    0.714E-01
DAV:   7    -0.122320966397E+04   -0.21967E-03   -0.48365E-03  1212   0.537E-02    0.766E-01
DAV:   8    -0.122320685467E+04    0.28093E-02   -0.42354E-03  1140   0.407E-02    0.304E-01
DAV:   9    -0.122320651181E+04    0.34286E-03   -0.32984E-03   972   0.251E-02    0.422E-01
DAV:  10    -0.122320553549E+04    0.97632E-03   -0.16479E-03   852   0.216E-02    0.109E-01
DAV:  11    -0.122320559779E+04   -0.62300E-04   -0.11825E-03   780   0.166E-02    0.223E-01
DAV:  12    -0.122320531080E+04    0.28699E-03   -0.54948E-04   732   0.102E-02    0.486E-02
DAV:  13    -0.122320538816E+04   -0.77357E-04   -0.31313E-04   708   0.770E-03
   6 F= -.12537341E+04 E0= -.12536701E+04  d E =-.534064E-02
       N       E                     dE             d eps       ncg     rms          rms(c)
DAV:   1    -0.122320530123E+04    0.95749E-05   -0.29956E-04   852   0.100E-02    0.454E-02
DAV:   2    -0.122320580770E+04   -0.50647E-03   -0.11778E-03   924   0.208E-02    0.335E-01
DAV:   3    -0.122320542661E+04    0.38109E-03   -0.12975E-03   900   0.215E-02    0.127E-01
DAV:   4    -0.122320535841E+04    0.68195E-04   -0.17168E-04   720   0.557E-03
   7 F= -.12537340E+04 E0= -.12536696E+04  d E =-.528250E-02
       N       E                     dE             d eps       ncg     rms          rms(c)
DAV:   1    -0.122320538992E+04    0.36688E-04   -0.24379E-04   696   0.529E-03    0.114E-01
DAV:   2    -0.122320657000E+04   -0.11801E-02   -0.21560E-03   960   0.227E-02    0.543E-01
DAV:   3    -0.122320677061E+04   -0.20062E-03   -0.61037E-03  1032   0.465E-02    0.430E-01
DAV:   4    -0.122320556802E+04    0.12026E-02   -0.16831E-03   924   0.237E-02    0.146E-01
DAV:   5    -0.122320544453E+04    0.12349E-03   -0.19123E-04   756   0.847E-03    0.138E-01
DAV:   6    -0.122320533024E+04    0.11429E-03   -0.10753E-04   720   0.724E-03    0.320E-02
DAV:   7    -0.122320536278E+04   -0.32538E-04   -0.43655E-05   708   0.469E-03
   8 F= -.12537340E+04 E0= -.12536694E+04  d E =-.529334E-02
       N       E                     dE             d eps       ncg     rms          rms(c)
DAV:   1    -0.122320584869E+04   -0.51845E-03   -0.10673E-01  1176   0.231E-01    0.205E-01
DAV:   2    -0.122321575136E+04   -0.99027E-02   -0.30974E-02  1608   0.136E-01    0.879E-01
DAV:   3    -0.122320609643E+04    0.96549E-02   -0.26155E-02  1392   0.112E-01    0.165E-01
DAV:   4    -0.122320611615E+04   -0.19719E-04   -0.19665E-03   852   0.164E-02    0.231E-01
DAV:   5    -0.122320598078E+04    0.13538E-03   -0.20326E-03   720   0.128E-02    0.119E-01
DAV:   6    -0.122320596506E+04    0.15721E-04   -0.16710E-03   864   0.166E-02    0.141E-01
DAV:   7    -0.122320589760E+04    0.67453E-04   -0.13328E-03   804   0.158E-02    0.942E-02
DAV:   8    -0.122320588004E+04    0.17565E-04   -0.78776E-04   708   0.826E-03
   9 F= -.12537347E+04 E0= -.12536698E+04  d E =-.652506E-03
       N       E                     dE             d eps       ncg     rms          rms(c)
DAV:   1    -0.122320585978E+04    0.37823E-04   -0.48933E-04   696   0.591E-03    0.398E-02
DAV:   2    -0.122320608950E+04   -0.22972E-03   -0.12341E-03   756   0.121E-02    0.201E-01
DAV:   3    -0.122320594902E+04    0.14048E-03   -0.14969E-03   804   0.181E-02    0.139E-01
DAV:   4    -0.122320587816E+04    0.70851E-04   -0.34573E-04   696   0.860E-03
  10 F= -.12537347E+04 E0= -.12536703E+04  d E =-.650325E-03
       N       E                     dE             d eps       ncg     rms          rms(c)
DAV:   1    -0.122320610351E+04   -0.15450E-03   -0.50971E-02  1176   0.155E-01    0.104E-01
DAV:   2    -0.122321082862E+04   -0.47251E-02   -0.11945E-02  1356   0.861E-02    0.692E-01
DAV:   3    -0.122320630589E+04    0.45227E-02   -0.78252E-03  1200   0.628E-02    0.138E-01
DAV:   4    -0.122320623249E+04    0.73404E-04   -0.30761E-04   768   0.122E-02
  11 F= -.12537351E+04 E0= -.12536721E+04  d E =-.433586E-03
       N       E                     dE             d eps       ncg     rms          rms(c)
DAV:   1    -0.122320615917E+04    0.14672E-03   -0.33059E-04   852   0.142E-02    0.779E-02
DAV:   2    -0.122320695050E+04   -0.79132E-03   -0.98821E-04   840   0.215E-02    0.388E-01
DAV:   3    -0.122320657377E+04    0.37673E-03   -0.23638E-03   936   0.312E-02    0.298E-01
DAV:   4    -0.122320633371E+04    0.24006E-03   -0.69866E-04   768   0.165E-02    0.162E-01
DAV:   5    -0.122320620267E+04    0.13104E-03   -0.10627E-04   672   0.663E-03    0.113E-01
DAV:   6    -0.122320615678E+04    0.45896E-04   -0.56033E-05   672   0.636E-03
  12 F= -.12537350E+04 E0= -.12536704E+04  d E =-.362363E-03
       N       E                     dE             d eps       ncg     rms          rms(c)
DAV:   1    -0.122320614074E+04    0.61929E-04   -0.63479E-04   828   0.179E-02    0.589E-02
DAV:   2    -0.122320671657E+04   -0.57583E-03   -0.73105E-04   864   0.185E-02    0.330E-01
DAV:   3    -0.122320641847E+04    0.29810E-03   -0.16131E-03   888   0.271E-02    0.240E-01
DAV:   4    -0.122320623117E+04    0.18730E-03   -0.33459E-04   696   0.111E-02    0.115E-01
DAV:   5    -0.122320614452E+04    0.86652E-04   -0.50225E-05   648   0.479E-03
  13 F= -.12537350E+04 E0= -.12536695E+04  d E =-.359115E-03
       N       E                     dE             d eps       ncg     rms          rms(c)
DAV:   1    -0.122320638459E+04   -0.15342E-03   -0.26456E-02  1140   0.120E-01    0.942E-02
DAV:   2    -0.122320998751E+04   -0.36029E-02   -0.86112E-03  1260   0.716E-02    0.618E-01
DAV:   3    -0.122320645812E+04    0.35294E-02   -0.64439E-03  1128   0.580E-02    0.102E-01
DAV:   4    -0.122320640893E+04    0.49197E-04   -0.16564E-04   732   0.907E-03
  14 F= -.12537353E+04 E0= -.12536720E+04  d E =-.239594E-03
       N       E                     dE             d eps       ncg     rms          rms(c)
DAV:   1    -0.122320647689E+04   -0.18768E-04   -0.69307E-03  1104   0.622E-02    0.872E-02
DAV:   2    -0.122320820247E+04   -0.17256E-02   -0.28731E-03  1044   0.412E-02    0.519E-01
DAV:   3    -0.122320680795E+04    0.13945E-02   -0.39892E-03  1032   0.425E-02    0.226E-01
DAV:   4    -0.122320666618E+04    0.14177E-03   -0.37475E-04   732   0.125E-02    0.180E-01
DAV:   5    -0.122320650602E+04    0.16016E-03   -0.89995E-05   684   0.732E-03    0.972E-02
DAV:   6    -0.122320647188E+04    0.34136E-04   -0.12746E-04   708   0.103E-02
  15 F= -.12537353E+04 E0= -.12536702E+04  d E =-.290474E-03
       N       E                     dE             d eps       ncg     rms          rms(c)
DAV:   1    -0.122320652007E+04   -0.14053E-04   -0.27005E-02  1140   0.122E-01    0.121E-01
DAV:   2    -0.122321244100E+04   -0.59209E-02   -0.13857E-02  1368   0.901E-02    0.802E-01
DAV:   3    -0.122320683495E+04    0.56060E-02   -0.10989E-02  1188   0.731E-02    0.161E-01
DAV:   4    -0.122320670772E+04    0.12723E-03   -0.46424E-04   864   0.156E-02    0.178E-01
DAV:   5    -0.122320654945E+04    0.15827E-03   -0.13246E-04   660   0.113E-02    0.951E-02
DAV:   6    -0.122320649654E+04    0.52917E-04   -0.10600E-04   696   0.110E-02
  16 F= -.12537353E+04 E0= -.12536700E+04  d E =-.292070E-03
       N       E                     dE             d eps       ncg     rms          rms(c)
DAV:   1    -0.122320677261E+04   -0.22315E-03   -0.33802E-02  1152   0.132E-01    0.101E-01
DAV:   2    -0.122320902642E+04   -0.22538E-02   -0.49160E-03  1260   0.577E-02    0.570E-01
DAV:   3    -0.122320726257E+04    0.17638E-02   -0.54820E-03  1128   0.514E-02    0.270E-01
DAV:   4    -0.122320704660E+04    0.21597E-03   -0.38791E-04   768   0.145E-02    0.187E-01
DAV:   5    -0.122320688522E+04    0.16138E-03   -0.13239E-04   720   0.903E-03    0.120E-01
DAV:   6    -0.122320682602E+04    0.59197E-04   -0.16734E-04   732   0.124E-02
  17 F= -.12537355E+04 E0= -.12536701E+04  d E =-.204745E-03
       N       E                     dE             d eps       ncg     rms          rms(c)
DAV:   1    -0.122320688346E+04    0.17594E-05   -0.46450E-03  1104   0.499E-02    0.113E-01
DAV:   2    -0.122320987221E+04   -0.29887E-02   -0.52989E-03  1104   0.523E-02    0.661E-01
DAV:   3    -0.122320753861E+04    0.23336E-02   -0.73978E-03  1092   0.586E-02    0.340E-01
DAV:   4    -0.122320725995E+04    0.27866E-03   -0.79206E-04   828   0.176E-02    0.242E-01
DAV:   5    -0.122320695390E+04    0.30605E-03   -0.18789E-04   684   0.973E-03    0.129E-01
DAV:   6    -0.122320689717E+04    0.56724E-04   -0.14569E-04   684   0.860E-03
  18 F= -.12537356E+04 E0= -.12536711E+04  d E =-.229265E-03
       N       E                     dE             d eps       ncg     rms          rms(c)
DAV:   1    -0.122320704686E+04   -0.92960E-04   -0.19410E-02  1128   0.104E-01    0.105E-01
DAV:   2    -0.122321045978E+04   -0.34129E-02   -0.70880E-03  1368   0.645E-02    0.678E-01
DAV:   3    -0.122320738503E+04    0.30748E-02   -0.70631E-03  1152   0.577E-02    0.201E-01
DAV:   4    -0.122320735742E+04    0.27604E-04   -0.48535E-04   768   0.144E-02
  19 F= -.12537360E+04 E0= -.12536721E+04  d E =-.428842E-03
       N       E                     dE             d eps       ncg     rms          rms(c)
DAV:   1    -0.122320704558E+04    0.33945E-03   -0.10681E-01  1152   0.244E-01    0.116E-01
DAV:   2    -0.122320772600E+04   -0.68042E-03   -0.36200E-03  1548   0.538E-02    0.323E-01
DAV:   3    -0.122320765750E+04    0.68500E-04   -0.20310E-03  1044   0.276E-02    0.325E-01
DAV:   4    -0.122320772031E+04   -0.62807E-04   -0.18657E-03   948   0.281E-02    0.287E-01
DAV:   5    -0.122320723425E+04    0.48606E-03   -0.37981E-04   780   0.138E-02    0.753E-02
DAV:   6    -0.122320728414E+04   -0.49890E-04   -0.10483E-04   708   0.743E-03
  20 F= -.12537358E+04 E0= -.12536716E+04  d E =-.284962E-03
       N       E                     dE             d eps       ncg     rms          rms(c)
DAV:   1    -0.122320721285E+04    0.21406E-04   -0.23540E-02  1152   0.124E-01    0.789E-02
DAV:   2    -0.122320967759E+04   -0.24647E-02   -0.54869E-03  1260   0.564E-02    0.563E-01
DAV:   3    -0.122320737776E+04    0.22998E-02   -0.39902E-03  1020   0.456E-02    0.818E-02
DAV:   4    -0.122320735695E+04    0.20805E-04   -0.26489E-04   744   0.118E-02
  21 F= -.12537361E+04 E0= -.12536720E+04  d E =-.209247E-03
       N       E                     dE             d eps       ncg     rms          rms(c)
DAV:   1    -0.122320719673E+04    0.18102E-03   -0.28105E-03  1128   0.430E-02    0.460E-02
DAV:   2    -0.122320765645E+04   -0.45971E-03   -0.97458E-04   888   0.209E-02    0.308E-01
DAV:   3    -0.122320727415E+04    0.38230E-03   -0.12088E-03   864   0.232E-02    0.132E-01
DAV:   4    -0.122320720021E+04    0.73940E-04   -0.17701E-04   672   0.704E-03
  22 F= -.12537359E+04 E0= -.12536710E+04  d E =-.983244E-04
       N       E                     dE             d eps       ncg     rms          rms(c)
DAV:   1    -0.122320724626E+04    0.27888E-04   -0.21861E-02  1152   0.124E-01    0.779E-02
DAV:   2    -0.122320820442E+04   -0.95816E-03   -0.23348E-03  1284   0.375E-02    0.486E-01
DAV:   3    -0.122320765372E+04    0.55070E-03   -0.27941E-03  1020   0.340E-02    0.231E-01
DAV:   4    -0.122320736266E+04    0.29106E-03   -0.29811E-04   708   0.136E-02    0.108E-01
DAV:   5    -0.122320728192E+04    0.80741E-04   -0.67814E-05   708   0.689E-03
  23 F= -.12537362E+04 E0= -.12536715E+04  d E =-.249702E-03
       N       E                     dE             d eps       ncg     rms          rms(c)
DAV:   1    -0.122320703394E+04    0.32872E-03   -0.51412E-02  1152   0.192E-01    0.719E-02
DAV:   2    -0.122320727295E+04   -0.23902E-03   -0.13621E-03  1524   0.367E-02    0.186E-01
DAV:   3    -0.122320727199E+04    0.96148E-06   -0.90336E-04   972   0.218E-02
  24 F= -.12537364E+04 E0= -.12536743E+04  d E =-.501166E-03
       N       E                     dE             d eps       ncg     rms          rms(c)
DAV:   1    -0.122320712592E+04    0.14703E-03   -0.92144E-03  1176   0.811E-02    0.686E-02
DAV:   2    -0.122320821800E+04   -0.10921E-02   -0.17626E-03  1032   0.322E-02    0.412E-01
DAV:   3    -0.122320724069E+04    0.97731E-03   -0.21765E-03   972   0.340E-02    0.138E-01
DAV:   4    -0.122320724481E+04   -0.41133E-05   -0.13036E-04   672   0.881E-03
  25 F= -.12537366E+04 E0= -.12536727E+04  d E =-.113658E-03
       N       E                     dE             d eps       ncg     rms          rms(c)
DAV:   1    -0.122320695138E+04    0.28932E-03   -0.81756E-02  1176   0.236E-01    0.120E-01
DAV:   2    -0.122321267555E+04   -0.57242E-02   -0.88478E-03  1596   0.825E-02    0.133E+00
DAV:   3    -0.122320820363E+04    0.44719E-02   -0.62669E-03  1212   0.558E-02    0.267E-01
DAV:   4    -0.122320713999E+04    0.10636E-02   -0.61142E-04   888   0.186E-02    0.103E-01
DAV:   5    -0.122320711525E+04    0.24739E-04   -0.13967E-04   708   0.116E-02
  26 F= -.12537368E+04 E0= -.12536726E+04  d E =-.408256E-03
       N       E                     dE             d eps       ncg     rms          rms(c)
DAV:   1    -0.122320575326E+04    0.13867E-02   -0.32524E-01  1152   0.467E-01    0.200E-01
DAV:   2    -0.122321324089E+04   -0.74876E-02   -0.16982E-02  1644   0.124E-01    0.152E+00
DAV:   3    -0.122320802882E+04    0.52121E-02   -0.91788E-03  1308   0.674E-02    0.360E-01
DAV:   4    -0.122320648399E+04    0.15448E-02   -0.85370E-04  1008   0.223E-02    0.203E-01
DAV:   5    -0.122320635973E+04    0.12426E-03   -0.23887E-04   936   0.156E-02    0.180E-01
DAV:   6    -0.122320633005E+04    0.29674E-04   -0.27489E-04   804   0.139E-02
  27 F= -.12537369E+04 E0= -.12536708E+04  d E =-.478684E-03
       N       E                     dE             d eps       ncg     rms          rms(c)
DAV:   1    -0.122320665944E+04   -0.29971E-03   -0.68919E-02  1164   0.213E-01    0.137E-01
DAV:   2    -0.122320972237E+04   -0.30629E-02   -0.11036E-02  1596   0.783E-02    0.603E-01
DAV:   3    -0.122320720946E+04    0.25129E-02   -0.11445E-02  1188   0.643E-02    0.334E-01
DAV:   4    -0.122320690223E+04    0.30723E-03   -0.18129E-03   876   0.239E-02    0.167E-01
DAV:   5    -0.122320679079E+04    0.11144E-03   -0.12346E-03   684   0.870E-03    0.125E-01
DAV:   6    -0.122320670857E+04    0.82220E-04   -0.96713E-04   696   0.970E-03
  28 F= -.12537369E+04 E0= -.12536719E+04  d E =-.467092E-03
       N       E                     dE             d eps       ncg     rms          rms(c)
DAV:   1    -0.122320670814E+04    0.82647E-04   -0.50143E-02  1176   0.173E-01    0.125E-01
DAV:   2    -0.122320778990E+04   -0.10818E-02   -0.73531E-03  1524   0.481E-02    0.422E-01
DAV:   3    -0.122320793225E+04   -0.14235E-03   -0.99008E-03  1140   0.476E-02    0.529E-01
DAV:   4    -0.122320713643E+04    0.79582E-03   -0.31037E-03   984   0.305E-02    0.201E-01
DAV:   5    -0.122320689670E+04    0.23973E-03   -0.70885E-04   696   0.995E-03    0.132E-01
DAV:   6    -0.122320679060E+04    0.10610E-03   -0.47891E-04   708   0.103E-02    0.732E-02
DAV:   7    -0.122320681036E+04   -0.19760E-04   -0.31461E-04   684   0.710E-03
  29 F= -.12537373E+04 E0= -.12536720E+04  d E =-.379245E-03
       N       E                     dE             d eps       ncg     rms          rms(c)
DAV:   1    -0.122320657747E+04    0.21314E-03   -0.20942E-02  1176   0.114E-01    0.636E-02
DAV:   2    -0.122320682904E+04   -0.25157E-03   -0.10711E-03  1320   0.296E-02    0.180E-01
DAV:   3    -0.122320681514E+04    0.13902E-04   -0.11087E-03   924   0.237E-02    0.214E-01
DAV:   4    -0.122320666783E+04    0.14730E-03   -0.38570E-04   744   0.153E-02    0.718E-02
DAV:   5    -0.122320664022E+04    0.27615E-04   -0.56727E-05   636   0.556E-03
  30 F= -.12537373E+04 E0= -.12536721E+04  d E =-.393470E-03
       N       E                     dE             d eps       ncg     rms          rms(c)
DAV:   1    -0.122320669443E+04   -0.26599E-04   -0.37673E-02  1176   0.155E-01    0.803E-02
DAV:   2    -0.122320681661E+04   -0.12218E-03   -0.12013E-03  1476   0.331E-02    0.108E-01
DAV:   3    -0.122320695912E+04   -0.14251E-03   -0.62489E-04   864   0.156E-02    0.197E-01
DAV:   4    -0.122320692578E+04    0.33344E-04   -0.81408E-04   780   0.196E-02
  31 F= -.12537377E+04 E0= -.12536699E+04  d E =-.382978E-03
       N       E                     dE             d eps       ncg     rms          rms(c)
DAV:   1    -0.122320678103E+04    0.17809E-03   -0.31319E-03  1140   0.459E-02    0.794E-02
DAV:   2    -0.122320974436E+04   -0.29633E-02   -0.32855E-03  1068   0.401E-02    0.931E-01
DAV:   3    -0.122320744048E+04    0.23039E-02   -0.38155E-03  1032   0.425E-02    0.208E-01
DAV:   4    -0.122320712155E+04    0.31893E-03   -0.40360E-04   768   0.135E-02    0.244E-01
DAV:   5    -0.122320674916E+04    0.37238E-03   -0.19704E-04   720   0.106E-02    0.457E-02
DAV:   6    -0.122320687084E+04   -0.12168E-03   -0.12158E-04   672   0.709E-03    0.151E-01
DAV:   7    -0.122320672325E+04    0.14759E-03   -0.83105E-05   672   0.582E-03    0.365E-02
DAV:   8    -0.122320678238E+04   -0.59136E-04   -0.77736E-05   672   0.473E-03
  32 F= -.12537376E+04 E0= -.12536720E+04  d E =-.267352E-03
       N       E                     dE             d eps       ncg     rms          rms(c)
DAV:   1    -0.122320686799E+04   -0.14474E-03   -0.80001E-03  1140   0.751E-02    0.376E-02
DAV:   2    -0.122320728107E+04   -0.41308E-03   -0.10330E-03   984   0.253E-02    0.253E-01
DAV:   3    -0.122320692575E+04    0.35532E-03   -0.75724E-04   852   0.205E-02    0.668E-02
DAV:   4    -0.122320689267E+04    0.33072E-04   -0.58501E-05   672   0.505E-03
  33 F= -.12537376E+04 E0= -.12536729E+04  d E =-.705497E-04
       N       E                     dE             d eps       ncg     rms          rms(c)
DAV:   1    -0.122320707882E+04   -0.15307E-03   -0.33294E-02  1176   0.153E-01    0.851E-02
DAV:   2    -0.122320771904E+04   -0.64022E-03   -0.22001E-03  1428   0.387E-02    0.340E-01
DAV:   3    -0.122320757980E+04    0.13924E-03   -0.27391E-03  1068   0.324E-02    0.317E-01
DAV:   4    -0.122320724945E+04    0.33035E-03   -0.67999E-04   744   0.176E-02    0.139E-01
DAV:   5    -0.122320714853E+04    0.10093E-03   -0.83190E-05   708   0.698E-03    0.991E-02
DAV:   6    -0.122320708891E+04    0.59612E-04   -0.77128E-05   696   0.875E-03
  34 F= -.12537378E+04 E0= -.12536728E+04  d E =-.186136E-03
       N       E                     dE             d eps       ncg     rms          rms(c)
DAV:   1    -0.122320722639E+04   -0.77866E-04   -0.34780E-03  1104   0.489E-02    0.863E-02
DAV:   2    -0.122320851796E+04   -0.12916E-02   -0.20662E-03  1020   0.343E-02    0.471E-01
DAV:   3    -0.122320777429E+04    0.74367E-03   -0.37653E-03  1008   0.415E-02    0.338E-01
DAV:   4    -0.122320741342E+04    0.36087E-03   -0.66058E-04   744   0.159E-02    0.159E-01
DAV:   5    -0.122320725488E+04    0.15854E-03   -0.10658E-04   684   0.731E-03    0.102E-01
DAV:   6    -0.122320721291E+04    0.41974E-04   -0.60179E-05   672   0.666E-03
  35 F= -.12537379E+04 E0= -.12536732E+04  d E =-.108970E-03
       N       E                     dE             d eps       ncg     rms          rms(c)
DAV:   1    -0.122320740155E+04   -0.14667E-03   -0.31828E-02  1176   0.145E-01    0.120E-01
DAV:   2    -0.122321206232E+04   -0.46608E-02   -0.10464E-02  1512   0.802E-02    0.749E-01
DAV:   3    -0.122320776174E+04    0.43006E-02   -0.95887E-03  1176   0.661E-02    0.197E-01
DAV:   4    -0.122320763183E+04    0.12991E-03   -0.55198E-04   864   0.165E-02    0.174E-01
DAV:   5    -0.122320745925E+04    0.17258E-03   -0.34725E-04   720   0.142E-02    0.112E-01
DAV:   6    -0.122320742559E+04    0.33670E-04   -0.22533E-04   720   0.134E-02
  36 F= -.12537380E+04 E0= -.12536725E+04  d E =-.277150E-03
       N       E                     dE             d eps       ncg     rms          rms(c)
DAV:   1    -0.122320720399E+04    0.25527E-03   -0.12689E-01  1176   0.291E-01    0.202E-01
DAV:   2    -0.122322000441E+04   -0.12800E-01   -0.39767E-02  1704   0.156E-01    0.104E+00
DAV:   3    -0.122320785478E+04    0.12150E-01   -0.28671E-02  1452   0.120E-01    0.271E-01
DAV:   4    -0.122320768240E+04    0.17238E-03   -0.22423E-03   972   0.225E-02    0.266E-01
DAV:   5    -0.122320737504E+04    0.30736E-03   -0.19512E-03   912   0.201E-02    0.157E-01
DAV:   6    -0.122320734071E+04    0.34332E-04   -0.14587E-03   708   0.155E-02    0.137E-01
DAV:   7    -0.122320737501E+04   -0.34303E-04   -0.15680E-03   804   0.155E-02    0.160E-01
DAV:   8    -0.122320729383E+04    0.81177E-04   -0.11231E-03   792   0.171E-02    0.103E-01
DAV:   9    -0.122320725975E+04    0.34086E-04   -0.40150E-04   660   0.740E-03
  37 F= -.12537378E+04 E0= -.12536724E+04  d E =-.248551E-04
       N       E                     dE             d eps       ncg     rms          rms(c)
DAV:   1    -0.122320734641E+04   -0.52578E-04   -0.62532E-02  1176   0.203E-01    0.102E-01
DAV:   2    -0.122321070872E+04   -0.33623E-02   -0.77226E-03  1548   0.692E-02    0.973E-01
DAV:   3    -0.122320800264E+04    0.27061E-02   -0.56591E-03  1128   0.461E-02    0.220E-01
DAV:   4    -0.122320756355E+04    0.43909E-03   -0.68719E-04   768   0.149E-02    0.146E-01
DAV:   5    -0.122320743174E+04    0.13181E-03   -0.55544E-04   696   0.977E-03    0.788E-02
DAV:   6    -0.122320744945E+04   -0.17710E-04   -0.34391E-04   684   0.900E-03
  38 F= -.12537380E+04 E0= -.12536727E+04  d E =-.274460E-03
       N       E                     dE             d eps       ncg     rms          rms(c)
DAV:   1    -0.122320742118E+04    0.10561E-04   -0.19957E-03  1104   0.343E-02    0.625E-02
DAV:   2    -0.122320769247E+04   -0.27130E-03   -0.23749E-03   768   0.129E-02    0.226E-01
DAV:   3    -0.122320761522E+04    0.77253E-04   -0.32593E-03   816   0.211E-02    0.207E-01
DAV:   4    -0.122320746932E+04    0.14590E-03   -0.11324E-03   732   0.121E-02    0.738E-02
DAV:   5    -0.122320741274E+04    0.56579E-04   -0.54448E-04   660   0.463E-03
  39 F= -.12537380E+04 E0= -.12536731E+04  d E =-.247704E-03
       N       E                     dE             d eps       ncg     rms          rms(c)
DAV:   1    -0.122320747621E+04   -0.68900E-05   -0.48082E-03  1104   0.548E-02    0.434E-02
DAV:   2    -0.122320817305E+04   -0.69684E-03   -0.18136E-03   984   0.300E-02    0.333E-01
DAV:   3    -0.122320750845E+04    0.66460E-03   -0.16497E-03   912   0.266E-02    0.868E-02
DAV:   4    -0.122320750438E+04    0.40662E-05   -0.18713E-04   660   0.641E-03
  40 F= -.12537381E+04 E0= -.12536736E+04  d E =-.103588E-03
       N       E                     dE             d eps       ncg     rms          rms(c)
DAV:   1    -0.122320753982E+04   -0.31366E-04   -0.41833E-02  1176   0.164E-01    0.815E-02
DAV:   2    -0.122320850143E+04   -0.96162E-03   -0.29370E-03  1476   0.509E-02    0.385E-01
DAV:   3    -0.122320776673E+04    0.73470E-03   -0.23181E-03  1008   0.325E-02    0.179E-01
DAV:   4    -0.122320771794E+04    0.48791E-04   -0.24868E-04   708   0.119E-02
  41 F= -.12537384E+04 E0= -.12536751E+04  d E =-.353763E-03
       N       E                     dE             d eps       ncg     rms          rms(c)
DAV:   1    -0.122320739034E+04    0.37639E-03   -0.16622E-01  1176   0.327E-01    0.153E-01
DAV:   2    -0.122320958140E+04   -0.21911E-02   -0.78268E-03  1644   0.914E-02    0.548E-01
DAV:   3    -0.122320827170E+04    0.13097E-02   -0.56141E-03  1224   0.525E-02    0.361E-01
DAV:   4    -0.122320806859E+04    0.20310E-03   -0.10600E-03   888   0.240E-02    0.249E-01
DAV:   5    -0.122320788717E+04    0.18142E-03   -0.23625E-04   756   0.119E-02    0.200E-01
DAV:   6    -0.122320776228E+04    0.12489E-03   -0.62209E-04   960   0.230E-02    0.143E-01
DAV:   7    -0.122320776570E+04   -0.34129E-05   -0.11413E-04   696   0.134E-02
  42 F= -.12537385E+04 E0= -.12536724E+04  d E =-.478273E-03
       N       E                     dE             d eps       ncg     rms          rms(c)
DAV:   1    -0.122320763857E+04    0.12372E-03   -0.20724E-02  1164   0.115E-01    0.805E-02
DAV:   2    -0.122320982263E+04   -0.21841E-02   -0.52040E-03  1440   0.567E-02    0.519E-01
DAV:   3    -0.122320779726E+04    0.20254E-02   -0.40889E-03  1080   0.460E-02    0.115E-01
DAV:   4    -0.122320769207E+04    0.10519E-03   -0.15070E-04   696   0.909E-03    0.537E-02
DAV:   5    -0.122320771644E+04   -0.24378E-04   -0.16368E-04   660   0.758E-03
  43 F= -.12537386E+04 E0= -.12536735E+04  d E =-.812232E-04
       N       E                     dE             d eps       ncg     rms          rms(c)
DAV:   1    -0.122320761967E+04    0.72397E-04   -0.62333E-03  1128   0.630E-02    0.524E-02
DAV:   2    -0.122320842771E+04   -0.80804E-03   -0.20110E-03   996   0.325E-02    0.349E-01
DAV:   3    -0.122320766494E+04    0.76277E-03   -0.18952E-03   912   0.295E-02    0.987E-02
DAV:   4    -0.122320764324E+04    0.21698E-04   -0.20405E-04   660   0.679E-03
  44 F= -.12537386E+04 E0= -.12536740E+04  d E =-.795918E-04
       N       E                     dE             d eps       ncg     rms          rms(c)
DAV:   1    -0.122320751388E+04    0.15106E-03   -0.18792E-02  1176   0.113E-01    0.637E-02
DAV:   2    -0.122320785110E+04   -0.33722E-03   -0.13313E-03  1080   0.296E-02    0.256E-01
DAV:   3    -0.122320772577E+04    0.12533E-03   -0.13944E-03   876   0.249E-02    0.176E-01
DAV:   4    -0.122320756327E+04    0.16250E-03   -0.24820E-04   732   0.126E-02    0.596E-02
DAV:   5    -0.122320755596E+04    0.73061E-05   -0.86366E-05   660   0.485E-03
  45 F= -.12537387E+04 E0= -.12536739E+04  d E =-.142482E-03
       N       E                     dE             d eps       ncg     rms          rms(c)
DAV:   1    -0.122320721421E+04    0.34905E-03   -0.37349E-02  1176   0.160E-01    0.806E-02
DAV:   2    -0.122320740042E+04   -0.18621E-03   -0.19621E-03  1380   0.335E-02    0.170E-01
DAV:   3    -0.122320763856E+04   -0.23814E-03   -0.23378E-03   924   0.239E-02    0.253E-01
DAV:   4    -0.122320732091E+04    0.31765E-03   -0.10374E-03   828   0.206E-02    0.106E-01
DAV:   5    -0.122320730017E+04    0.20745E-04   -0.15856E-04   672   0.617E-03
  46 F= -.12537388E+04 E0= -.12536743E+04  d E =-.213340E-03
       N       E                     dE             d eps       ncg     rms          rms(c)
DAV:   1    -0.122320721264E+04    0.10828E-03   -0.10132E-02  1164   0.841E-02    0.629E-02
DAV:   2    -0.122320793578E+04   -0.72314E-03   -0.16361E-03   972   0.295E-02    0.402E-01
DAV:   3    -0.122320740703E+04    0.52875E-03   -0.17706E-03   936   0.298E-02    0.168E-01
DAV:   4    -0.122320723006E+04    0.17697E-03   -0.18689E-04   708   0.975E-03    0.473E-02
DAV:   5    -0.122320723205E+04   -0.19905E-05   -0.15087E-04   660   0.481E-03
  47 F= -.12537389E+04 E0= -.12536742E+04  d E =-.131727E-03
       N       E                     dE             d eps       ncg     rms          rms(c)
DAV:   1    -0.122320671199E+04    0.51807E-03   -0.83938E-02  1152   0.242E-01    0.988E-02
DAV:   2    -0.122320690164E+04   -0.18965E-03   -0.22752E-03  1584   0.452E-02    0.119E-01
DAV:   3    -0.122320728607E+04   -0.38443E-03   -0.16680E-03   960   0.246E-02    0.273E-01
DAV:   4    -0.122320690518E+04    0.38088E-03   -0.13359E-03   924   0.253E-02    0.142E-01
DAV:   5    -0.122320685756E+04    0.47624E-04   -0.16070E-04   672   0.878E-03
  48 F= -.12537391E+04 E0= -.12536751E+04  d E =-.334787E-03
       N       E                     dE             d eps       ncg     rms          rms(c)
DAV:   1    -0.122320686192E+04    0.43258E-04   -0.18184E-02  1152   0.112E-01    0.896E-02
DAV:   2    -0.122320869975E+04   -0.18378E-02   -0.37468E-03  1200   0.462E-02    0.684E-01
DAV:   3    -0.122320733784E+04    0.13619E-02   -0.37741E-03  1092   0.425E-02    0.235E-01
DAV:   4    -0.122320688817E+04    0.44966E-03   -0.34818E-04   708   0.127E-02    0.711E-02
DAV:   5    -0.122320687686E+04    0.11317E-04   -0.24285E-04   660   0.660E-03
  49 F= -.12537393E+04 E0= -.12536748E+04  d E =-.210869E-03
       N       E                     dE             d eps       ncg     rms          rms(c)
DAV:   1    -0.122320649082E+04    0.39736E-03   -0.11763E-01  1152   0.285E-01    0.125E-01
DAV:   2    -0.122320843346E+04   -0.19426E-02   -0.60001E-03  1584   0.716E-02    0.677E-01
DAV:   3    -0.122320719529E+04    0.12382E-02   -0.44799E-03  1104   0.445E-02    0.276E-01
DAV:   4    -0.122320671028E+04    0.48501E-03   -0.54717E-04   792   0.179E-02    0.109E-01
DAV:   5    -0.122320667748E+04    0.32801E-04   -0.34617E-04   684   0.905E-03
  50 F= -.12537396E+04 E0= -.12536751E+04  d E =-.499786E-03
       N       E                     dE             d eps       ncg     rms          rms(c)
DAV:   1    -0.122320673991E+04   -0.29635E-04   -0.19507E-02  1152   0.114E-01    0.834E-02
DAV:   2    -0.122320727072E+04   -0.53080E-03   -0.27840E-03  1116   0.310E-02    0.327E-01
DAV:   3    -0.122320716464E+04    0.10607E-03   -0.34721E-03   960   0.318E-02    0.256E-01
DAV:   4    -0.122320679939E+04    0.36525E-03   -0.97316E-04   756   0.189E-02    0.800E-02
DAV:   5    -0.122320677637E+04    0.23027E-04   -0.53181E-04   660   0.597E-03
  51 F= -.12537398E+04 E0= -.12536749E+04  d E =-.204755E-03
       N       E                     dE             d eps       ncg     rms          rms(c)
DAV:   1    -0.122320666811E+04    0.13128E-03   -0.80501E-02  1152   0.233E-01    0.117E-01
DAV:   2    -0.122321037606E+04   -0.37079E-02   -0.79214E-03  1608   0.739E-02    0.104E+00
DAV:   3    -0.122320751753E+04    0.28585E-02   -0.59506E-03  1236   0.486E-02    0.247E-01
DAV:   4    -0.122320694168E+04    0.57585E-03   -0.62539E-04   792   0.164E-02    0.159E-01
DAV:   5    -0.122320680361E+04    0.13807E-03   -0.53717E-04   720   0.112E-02    0.108E-01
DAV:   6    -0.122320679165E+04    0.11962E-04   -0.49401E-04   684   0.922E-03
  52 F= -.12537400E+04 E0= -.12536749E+04  d E =-.436305E-03
       N       E                     dE             d eps       ncg     rms          rms(c)
DAV:   1    -0.122320673930E+04    0.64313E-04   -0.62235E-03  1116   0.623E-02    0.104E-01
DAV:   2    -0.122320723183E+04   -0.49253E-03   -0.53201E-03   840   0.167E-02    0.331E-01
DAV:   3    -0.122320712957E+04    0.10226E-03   -0.75187E-03   840   0.212E-02    0.269E-01
DAV:   4    -0.122320688318E+04    0.24639E-03   -0.31427E-03   780   0.179E-02    0.161E-01
DAV:   5    -0.122320677598E+04    0.10720E-03   -0.15700E-03   696   0.878E-03    0.113E-01
DAV:   6    -0.122320671622E+04    0.59762E-04   -0.55120E-04   696   0.774E-03
  53 F= -.12537400E+04 E0= -.12536751E+04  d E =-.418778E-03
       N       E                     dE             d eps       ncg     rms          rms(c)
DAV:   1    -0.122320674915E+04    0.26833E-04   -0.20870E-02  1152   0.118E-01    0.880E-02
DAV:   2    -0.122320755186E+04   -0.80270E-03   -0.26359E-03  1248   0.348E-02    0.436E-01
DAV:   3    -0.122320740751E+04    0.14434E-03   -0.39216E-03  1008   0.357E-02    0.311E-01
DAV:   4    -0.122320689030E+04    0.51722E-03   -0.93177E-04   780   0.201E-02    0.125E-01
DAV:   5    -0.122320676952E+04    0.12077E-03   -0.13534E-04   720   0.705E-03    0.639E-02
DAV:   6    -0.122320676449E+04    0.50305E-05   -0.62776E-05   672   0.709E-03
  54 F= -.12537402E+04 E0= -.12536752E+04  d E =-.153500E-03
       N       E                     dE             d eps       ncg     rms          rms(c)
DAV:   1    -0.122320642648E+04    0.34304E-03   -0.18579E-01  1152   0.354E-01    0.163E-01
DAV:   2    -0.122321010425E+04   -0.36778E-02   -0.93851E-03  1572   0.976E-02    0.100E+00
DAV:   3    -0.122320798547E+04    0.21188E-02   -0.65324E-03  1248   0.555E-02    0.343E-01
DAV:   4    -0.122320707439E+04    0.91107E-03   -0.55954E-04   948   0.215E-02    0.220E-01
DAV:   5    -0.122320675198E+04    0.32241E-03   -0.24059E-04   708   0.133E-02    0.107E-01
DAV:   6    -0.122320677903E+04   -0.27048E-04   -0.21292E-04   816   0.124E-02
  55 F= -.12537405E+04 E0= -.12536745E+04  d E =-.485048E-03
       N       E                     dE             d eps       ncg     rms          rms(c)
DAV:   1    -0.122320687611E+04   -0.12413E-03   -0.17620E-02  1140   0.107E-01    0.656E-02
DAV:   2    -0.122320729017E+04   -0.41406E-03   -0.11886E-03  1128   0.307E-02    0.248E-01
DAV:   3    -0.122320709387E+04    0.19629E-03   -0.14332E-03   912   0.286E-02    0.219E-01
DAV:   4    -0.122320692823E+04    0.16564E-03   -0.35868E-04   708   0.154E-02    0.623E-02
DAV:   5    -0.122320689910E+04    0.29136E-04   -0.82937E-05   600   0.595E-03
  56 F= -.12537407E+04 E0= -.12536756E+04  d E =-.218149E-03
       N       E                     dE             d eps       ncg     rms          rms(c)
DAV:   1    -0.122320686030E+04    0.67935E-04   -0.16739E-02  1140   0.103E-01    0.575E-02
DAV:   2    -0.122320698930E+04   -0.12900E-03   -0.69421E-04   936   0.245E-02    0.150E-01
DAV:   3    -0.122320713107E+04   -0.14177E-03   -0.88644E-04   804   0.210E-02    0.237E-01
DAV:   4    -0.122320693318E+04    0.19789E-03   -0.38848E-04   672   0.142E-02    0.799E-02
DAV:   5    -0.122320690456E+04    0.28623E-04   -0.41859E-05   636   0.574E-03
  57 F= -.12537408E+04 E0= -.12536756E+04  d E =-.319307E-03
       N       E                     dE             d eps       ncg     rms          rms(c)
DAV:   1    -0.122320700096E+04   -0.67779E-04   -0.96149E-03  1140   0.797E-02    0.420E-02
DAV:   2    -0.122320711248E+04   -0.11152E-03   -0.36744E-04   828   0.187E-02    0.122E-01
DAV:   3    -0.122320707348E+04    0.39005E-04   -0.36000E-04   708   0.167E-02
  58 F= -.12537410E+04 E0= -.12536743E+04  d E =-.201187E-03
       N       E                     dE             d eps       ncg     rms          rms(c)
DAV:   1    -0.122320707024E+04    0.42246E-04   -0.36239E-02  1152   0.154E-01    0.797E-02
DAV:   2    -0.122320857065E+04   -0.15004E-02   -0.24299E-03  1344   0.444E-02    0.618E-01
DAV:   3    -0.122320734386E+04    0.12268E-02   -0.19808E-03  1116   0.330E-02    0.142E-01
DAV:   4    -0.122320716800E+04    0.17586E-03   -0.14635E-04   684   0.106E-02    0.104E-01
DAV:   5    -0.122320711290E+04    0.55105E-04   -0.56013E-05   672   0.811E-03
  59 F= -.12537411E+04 E0= -.12536765E+04  d E =-.303253E-03
       N       E                     dE             d eps       ncg     rms          rms(c)
DAV:   1    -0.122320715608E+04    0.11927E-04   -0.92833E-03  1116   0.772E-02    0.625E-02
DAV:   2    -0.122320736172E+04   -0.20565E-03   -0.65585E-04   828   0.186E-02    0.202E-01
DAV:   3    -0.122320744834E+04   -0.86614E-04   -0.10120E-03   768   0.190E-02    0.252E-01
DAV:   4    -0.122320724853E+04    0.19981E-03   -0.50597E-04   672   0.136E-02    0.102E-01
DAV:   5    -0.122320718906E+04    0.59466E-04   -0.83297E-05   636   0.621E-03
  60 F= -.12537413E+04 E0= -.12536760E+04  d E =-.137379E-03
       N       E                     dE             d eps       ncg     rms          rms(c)
DAV:   1    -0.122320715382E+04    0.94706E-04   -0.13286E-04   720   0.107E-02    0.359E-02
DAV:   2    -0.122320724238E+04   -0.88557E-04   -0.34120E-05   624   0.636E-03
  61 F= -.12537413E+04 E0= -.12536766E+04  d E =-.197715E-03
       N       E                     dE             d eps       ncg     rms          rms(c)
DAV:   1    -0.122320712571E+04    0.28114E-04   -0.54411E-03  1092   0.613E-02    0.473E-02
DAV:   2    -0.122320778999E+04   -0.66429E-03   -0.11259E-03   936   0.277E-02    0.307E-01
DAV:   3    -0.122320717057E+04    0.61943E-03   -0.12389E-03   888   0.273E-02    0.991E-02
DAV:   4    -0.122320714161E+04    0.28955E-04   -0.64749E-05   636   0.704E-03
  62 F= -.12537413E+04 E0= -.12536771E+04  d E =-.240083E-06
       N       E                     dE             d eps       ncg     rms          rms(c)
DAV:   1    -0.122320701933E+04    0.15124E-03   -0.16131E-02  1152   0.105E-01    0.702E-02
DAV:   2    -0.122320839616E+04   -0.13768E-02   -0.27655E-03  1272   0.431E-02    0.449E-01
DAV:   3    -0.122320718313E+04    0.12130E-02   -0.26867E-03  1044   0.379E-02    0.139E-01
DAV:   4    -0.122320712496E+04    0.58172E-04   -0.12564E-04   732   0.994E-03
  63 F= -.12537415E+04 E0= -.12536771E+04  d E =-.159693E-03
       N       E                     dE             d eps       ncg     rms          rms(c)
DAV:   1    -0.122320707597E+04    0.10716E-03   -0.42734E-03  1080   0.545E-02    0.668E-02
DAV:   2    -0.122320796665E+04   -0.89068E-03   -0.11466E-03   936   0.288E-02    0.438E-01
DAV:   3    -0.122320733076E+04    0.63589E-03   -0.20408E-03   936   0.338E-02    0.210E-01
DAV:   4    -0.122320706963E+04    0.26113E-03   -0.22815E-04   696   0.117E-02    0.232E-02
DAV:   5    -0.122320707239E+04   -0.27647E-05   -0.49389E-05   624   0.471E-03
  64 F= -.12537415E+04 E0= -.12536772E+04  d E =-.280746E-04
       N       E                     dE             d eps       ncg     rms          rms(c)
DAV:   1    -0.122320690815E+04    0.16148E-03   -0.37993E-02  1152   0.159E-01    0.614E-02
DAV:   2    -0.122320704531E+04   -0.13716E-03   -0.13272E-03  1332   0.326E-02    0.113E-01
DAV:   3    -0.122320718483E+04   -0.13952E-03   -0.94875E-04   804   0.183E-02    0.220E-01
DAV:   4    -0.122320704525E+04    0.13959E-03   -0.56476E-04   732   0.163E-02    0.106E-01
DAV:   5    -0.122320699632E+04    0.48924E-04   -0.46070E-05   624   0.615E-03
  65 F= -.12537417E+04 E0= -.12536766E+04  d E =-.194526E-03
       N       E                     dE             d eps       ncg     rms          rms(c)
DAV:   1    -0.122320694060E+04    0.10465E-03   -0.10719E-03  1056   0.273E-02    0.419E-02
DAV:   2    -0.122320704399E+04   -0.10339E-03   -0.11933E-04   672   0.102E-02    0.133E-01
DAV:   3    -0.122320700680E+04    0.37184E-04   -0.36729E-04   708   0.150E-02
  66 F= -.12537417E+04 E0= -.12536748E+04  d E =-.246307E-03
       N       E                     dE             d eps       ncg     rms          rms(c)
DAV:   1    -0.122320691619E+04    0.12780E-03   -0.11207E-02  1140   0.861E-02    0.360E-02
DAV:   2    -0.122320693956E+04   -0.23371E-04   -0.32363E-04   828   0.183E-02
  67 F= -.12537418E+04 E0= -.12536768E+04  d E =-.320144E-04
       N       E                     dE             d eps       ncg     rms          rms(c)
DAV:   1    -0.122320686267E+04    0.53515E-04   -0.18091E-02  1140   0.109E-01    0.485E-02
DAV:   2    -0.122320692917E+04   -0.66499E-04   -0.60388E-04  1104   0.260E-02
  68 F= -.12537419E+04 E0= -.12536780E+04  d E =-.147945E-03
       N       E                     dE             d eps       ncg     rms          rms(c)
DAV:   1    -0.122320677284E+04    0.89831E-04   -0.72902E-02  1152   0.217E-01    0.221E-01
DAV:   2    -0.122322353817E+04   -0.16765E-01   -0.50849E-02  1716   0.168E-01    0.109E+00
DAV:   3    -0.122320764490E+04    0.15893E-01   -0.35420E-02  1464   0.138E-01    0.362E-01
DAV:   4    -0.122320718280E+04    0.46210E-03   -0.16045E-03   984   0.256E-02    0.294E-01
DAV:   5    -0.122320695581E+04    0.22699E-03   -0.14170E-03  1020   0.278E-02    0.229E-01
DAV:   6    -0.122320684959E+04    0.10622E-03   -0.64941E-04   780   0.188E-02    0.158E-01
DAV:   7    -0.122320677075E+04    0.78842E-04   -0.37834E-04   660   0.132E-02
  69 F= -.12537420E+04 E0= -.12536757E+04  d E =-.243136E-03
       N       E                     dE             d eps       ncg     rms          rms(c)
DAV:   1    -0.122320676181E+04    0.87774E-04   -0.20489E-02  1140   0.117E-01    0.105E-01
DAV:   2    -0.122321035778E+04   -0.35960E-02   -0.91048E-03  1428   0.700E-02    0.628E-01
DAV:   3    -0.122320689941E+04    0.34584E-02   -0.82743E-03  1176   0.623E-02    0.141E-01
DAV:   4    -0.122320678637E+04    0.11304E-03   -0.52817E-04   708   0.111E-02    0.105E-01
DAV:   5    -0.122320678225E+04    0.41202E-05   -0.60709E-04   624   0.755E-03
  70 F= -.12537421E+04 E0= -.12536777E+04  d E =-.115662E-03
       N       E                     dE             d eps       ncg     rms          rms(c)
DAV:   1    -0.122320670591E+04    0.80461E-04   -0.17851E-02  1140   0.108E-01    0.857E-02
DAV:   2    -0.122320908140E+04   -0.23755E-02   -0.62007E-03  1236   0.574E-02    0.548E-01
DAV:   3    -0.122320681291E+04    0.22685E-02   -0.58026E-03  1104   0.501E-02    0.133E-01
DAV:   4    -0.122320676725E+04    0.45657E-04   -0.66763E-04   696   0.108E-02
  71 F= -.12537422E+04 E0= -.12536782E+04  d E =-.197504E-03
       N       E                     dE             d eps       ncg     rms          rms(c)
DAV:   1    -0.122320669920E+04    0.11371E-03   -0.29037E-03  1104   0.398E-02    0.800E-02
DAV:   2    -0.122320810843E+04   -0.14092E-02   -0.34666E-03   948   0.328E-02    0.582E-01
DAV:   3    -0.122320715901E+04    0.94942E-03   -0.39532E-03   960   0.401E-02    0.246E-01
DAV:   4    -0.122320670590E+04    0.45312E-03   -0.47120E-04   696   0.120E-02    0.670E-02
DAV:   5    -0.122320668206E+04    0.23842E-04   -0.20528E-04   624   0.502E-03
  72 F= -.12537421E+04 E0= -.12536779E+04  d E =-.146768E-03
       N       E                     dE             d eps       ncg     rms          rms(c)
DAV:   1    -0.122320677830E+04   -0.72402E-04   -0.13715E-02  1152   0.976E-02    0.578E-02
DAV:   2    -0.122320690801E+04   -0.12971E-03   -0.34225E-04   840   0.191E-02    0.153E-01
DAV:   3    -0.122320696122E+04   -0.53217E-04   -0.39744E-04   720   0.160E-02
  73 F= -.12537424E+04 E0= -.12536744E+04  d E =-.306159E-03
       N       E                     dE             d eps       ncg     rms          rms(c)
DAV:   1    -0.122320688405E+04    0.23958E-04   -0.51219E-02  1152   0.189E-01    0.126E-01
DAV:   2    -0.122321320184E+04   -0.63178E-02   -0.70075E-03  1476   0.697E-02    0.143E+00
DAV:   3    -0.122320876777E+04    0.44341E-02   -0.77445E-03  1212   0.608E-02    0.316E-01
DAV:   4    -0.122320751792E+04    0.12499E-02   -0.84947E-04   960   0.229E-02    0.305E-01
DAV:   5    -0.122320692581E+04    0.59211E-03   -0.32254E-04   732   0.148E-02    0.825E-02
DAV:   6    -0.122320702206E+04   -0.96257E-04   -0.21123E-04   648   0.102E-02
  74 F= -.12537425E+04 E0= -.12536770E+04  d E =-.418950E-03
       N       E                     dE             d eps       ncg     rms          rms(c)
DAV:   1    -0.122320623885E+04    0.68695E-03   -0.20118E-01  1152   0.374E-01    0.150E-01
DAV:   2    -0.122320689119E+04   -0.65234E-03   -0.49397E-03  1632   0.701E-02    0.246E-01
DAV:   3    -0.122320667999E+04    0.21120E-03   -0.38779E-04  1032   0.177E-02    0.162E-01
DAV:   4    -0.122320685130E+04   -0.17131E-03   -0.82666E-04   960   0.233E-02    0.221E-01
DAV:   5    -0.122320659420E+04    0.25710E-03   -0.81974E-04   888   0.224E-02    0.131E-01
DAV:   6    -0.122320656814E+04    0.26059E-04   -0.23632E-04   840   0.155E-02
  75 F= -.12537422E+04 E0= -.12536786E+04  d E =-.700242E-04
       N       E                     dE             d eps       ncg     rms          rms(c)
DAV:   1    -0.122320669089E+04   -0.96693E-04   -0.10831E-01  1152   0.273E-01    0.103E-01
DAV:   2    -0.122320705318E+04   -0.36229E-03   -0.27702E-03  1620   0.543E-02    0.184E-01
DAV:   3    -0.122320773420E+04   -0.68101E-03   -0.22848E-03  1020   0.336E-02    0.468E-01
DAV:   4    -0.122320700688E+04    0.72731E-03   -0.11281E-03   876   0.278E-02    0.119E-01
DAV:   5    -0.122320691408E+04    0.92802E-04   -0.12913E-04   708   0.942E-03
  76 F= -.12537425E+04 E0= -.12536774E+04  d E =-.339387E-03
       N       E                     dE             d eps       ncg     rms          rms(c)
DAV:   1    -0.122320686915E+04    0.13773E-03   -0.25090E-03  1092   0.435E-02    0.585E-02
DAV:   2    -0.122320843175E+04   -0.15626E-02   -0.29928E-03  1056   0.410E-02    0.451E-01
DAV:   3    -0.122320692069E+04    0.15111E-02   -0.26707E-03   948   0.376E-02    0.862E-02
DAV:   4    -0.122320686015E+04    0.60549E-04   -0.72689E-05   624   0.609E-03
  77 F= -.12537424E+04 E0= -.12536782E+04  d E =-.273592E-03
       N       E                     dE             d eps       ncg     rms          rms(c)
DAV:   1    -0.122320694765E+04   -0.26958E-04   -0.80731E-03  1128   0.749E-02    0.600E-02
DAV:   2    -0.122320733511E+04   -0.38745E-03   -0.66979E-04   876   0.240E-02    0.268E-01
DAV:   3    -0.122320726819E+04    0.66918E-04   -0.14338E-03   888   0.277E-02    0.261E-01
DAV:   4    -0.122320703496E+04    0.23323E-03   -0.39932E-04   672   0.138E-02    0.950E-02
DAV:   5    -0.122320698072E+04    0.54235E-04   -0.49026E-05   636   0.585E-03
  78 F= -.12537426E+04 E0= -.12536773E+04  d E =-.160861E-03
       N       E                     dE             d eps       ncg     rms          rms(c)
DAV:   1    -0.122320699024E+04    0.44715E-04   -0.72546E-02  1152   0.224E-01    0.902E-02
DAV:   2    -0.122320736680E+04   -0.37656E-03   -0.22185E-03  1536   0.476E-02    0.246E-01
DAV:   3    -0.122320747172E+04   -0.10492E-03   -0.15563E-03   996   0.274E-02    0.244E-01
DAV:   4    -0.122320715460E+04    0.31712E-03   -0.49163E-04   744   0.190E-02    0.891E-02
DAV:   5    -0.122320711755E+04    0.37048E-04   -0.66040E-05   636   0.662E-03
  79 F= -.12537428E+04 E0= -.12536779E+04  d E =-.418776E-03
       N       E                     dE             d eps       ncg     rms          rms(c)
DAV:   1    -0.122320666063E+04    0.49397E-03   -0.28922E-01  1152   0.447E-01    0.196E-01
DAV:   2    -0.122320879157E+04   -0.21309E-02   -0.87785E-03  1596   0.901E-02    0.647E-01
DAV:   3    -0.122320886240E+04   -0.70834E-04   -0.84849E-03  1320   0.657E-02    0.482E-01
DAV:   4    -0.122320713882E+04    0.17236E-02   -0.22422E-03  1092   0.377E-02    0.134E-01
DAV:   5    -0.122320708839E+04    0.50422E-04   -0.17624E-04   804   0.119E-02
  80 F= -.12537430E+04 E0= -.12536799E+04  d E =-.632983E-03
       N       E                     dE             d eps       ncg     rms          rms(c)
DAV:   1    -0.122320716106E+04   -0.22247E-04   -0.86795E-03  1140   0.783E-02    0.167E-01
DAV:   2    -0.122321235147E+04   -0.51904E-02   -0.10314E-02  1260   0.673E-02    0.841E-01
DAV:   3    -0.122320856275E+04    0.37887E-02   -0.15194E-02  1260   0.811E-02    0.504E-01
DAV:   4    -0.122320792040E+04    0.64234E-03   -0.20719E-03   888   0.267E-02    0.335E-01
DAV:   5    -0.122320727626E+04    0.64415E-03   -0.36035E-04   720   0.136E-02    0.141E-01
DAV:   6    -0.122320716913E+04    0.10712E-03   -0.19847E-04   684   0.133E-02    0.149E-01
DAV:   7    -0.122320705214E+04    0.11699E-03   -0.96555E-05   636   0.773E-03    0.563E-02
DAV:   8    -0.122320705519E+04   -0.30500E-05   -0.93329E-05   636   0.802E-03
  81 F= -.12537431E+04 E0= -.12536781E+04  d E =-.234558E-04
       N       E                     dE             d eps       ncg     rms          rms(c)
DAV:   1    -0.122320699769E+04    0.54444E-04   -0.79706E-02  1152   0.234E-01    0.104E-01
DAV:   2    -0.122320821777E+04   -0.12201E-02   -0.37867E-03  1524   0.569E-02    0.515E-01
DAV:   3    -0.122320752999E+04    0.68777E-03   -0.29395E-03  1056   0.378E-02    0.240E-01
DAV:   4    -0.122320717084E+04    0.35915E-03   -0.30334E-04   756   0.153E-02    0.898E-02
DAV:   5    -0.122320714432E+04    0.26520E-04   -0.85947E-05   624   0.723E-03
  82 F= -.12537433E+04 E0= -.12536789E+04  d E =-.282859E-03
       N       E                     dE             d eps       ncg     rms          rms(c)
DAV:   1    -0.122320672762E+04    0.44322E-03   -0.31798E-01  1152   0.467E-01    0.205E-01
DAV:   2    -0.122321051316E+04   -0.37855E-02   -0.11950E-02  1632   0.110E-01    0.960E-01
DAV:   3    -0.122320873490E+04    0.17783E-02   -0.90418E-03  1356   0.678E-02    0.436E-01
DAV:   4    -0.122320731670E+04    0.14182E-02   -0.12576E-03  1104   0.288E-02    0.159E-01
DAV:   5    -0.122320723856E+04    0.78134E-04   -0.27920E-04   816   0.133E-02
  83 F= -.12537438E+04 E0= -.12536804E+04  d E =-.718813E-03
       N       E                     dE             d eps       ncg     rms          rms(c)
DAV:   1    -0.122320499415E+04    0.23225E-02   -0.12695E+00  1152   0.931E-01    0.443E-01
DAV:   2    -0.122320956813E+04   -0.45740E-02   -0.39949E-02  1632   0.184E-01    0.730E-01
DAV:   3    -0.122320970260E+04   -0.13447E-03   -0.27302E-02  1440   0.652E-02    0.615E-01
DAV:   4    -0.122320987416E+04   -0.17156E-03   -0.27087E-02  1428   0.863E-02    0.890E-01
DAV:   5    -0.122320738022E+04    0.24939E-02   -0.78146E-03  1224   0.510E-02    0.274E-01
DAV:   6    -0.122320689580E+04    0.48442E-03   -0.43423E-03  1068   0.240E-02    0.271E-01
DAV:   7    -0.122320670763E+04    0.18817E-03   -0.46859E-03   888   0.175E-02    0.162E-01
DAV:   8    -0.122320670860E+04   -0.96766E-06   -0.31692E-03   732   0.139E-02    0.198E-01
DAV:   9    -0.122320659236E+04    0.11623E-03   -0.25246E-03   696   0.105E-02    0.854E-02
DAV:  10    -0.122320656802E+04    0.24343E-04   -0.11613E-03   684   0.940E-03    0.959E-02
DAV:  11    -0.122320653829E+04    0.29729E-04   -0.71052E-04   660   0.628E-03
  84 F= -.12537437E+04 E0= -.12536785E+04  d E =-.706852E-03
       N       E                     dE             d eps       ncg     rms          rms(c)
DAV:   1    -0.122320636201E+04    0.20601E-03   -0.20534E-01  1152   0.372E-01    0.166E-01
DAV:   2    -0.122320895036E+04   -0.25883E-02   -0.10195E-02  1656   0.942E-02    0.779E-01
DAV:   3    -0.122320771988E+04    0.12305E-02   -0.74914E-03  1248   0.543E-02    0.358E-01
DAV:   4    -0.122320691533E+04    0.80456E-03   -0.87245E-04   912   0.236E-02    0.171E-01
DAV:   5    -0.122320675758E+04    0.15775E-03   -0.38891E-04   696   0.120E-02    0.124E-01
DAV:   6    -0.122320673583E+04    0.21747E-04   -0.48871E-04   684   0.117E-02
  85 F= -.12537444E+04 E0= -.12536790E+04  d E =-.689530E-03
       N       E                     dE             d eps       ncg     rms          rms(c)
DAV:   1    -0.122320272516E+04    0.40324E-02   -0.18351E+00  1152   0.111E+00    0.486E-01
DAV:   2    -0.122322935479E+04   -0.26630E-01   -0.83314E-02  1656   0.286E-01    0.309E+00
DAV:   3    -0.122321662686E+04    0.12728E-01   -0.46681E-02  1680   0.141E-01    0.736E-01
DAV:   4    -0.122320929303E+04    0.73338E-02   -0.52580E-03  1512   0.547E-02    0.709E-01
DAV:   5    -0.122320675261E+04    0.25404E-02   -0.32049E-03  1284   0.368E-02    0.386E-01
DAV:   6    -0.122320674738E+04    0.52249E-05   -0.35746E-03  1260   0.338E-02    0.440E-01
DAV:   7    -0.122320634546E+04    0.40192E-03   -0.19726E-03  1140   0.261E-02    0.313E-01
DAV:   8    -0.122320593777E+04    0.40769E-03   -0.19488E-03   996   0.228E-02    0.206E-01
DAV:   9    -0.122320572833E+04    0.20945E-03   -0.15460E-03   684   0.124E-02    0.111E-01
DAV:  10    -0.122320569938E+04    0.28950E-04   -0.79024E-04   684   0.110E-02
  86 F= -.12537449E+04 E0= -.12536790E+04  d E =-.113493E-02
       N       E                     dE             d eps       ncg     rms          rms(c)
DAV:   1    -0.122320596290E+04   -0.23457E-03   -0.18897E-01  1152   0.356E-01    0.171E-01
DAV:   2    -0.122320969534E+04   -0.37324E-02   -0.13875E-02  1680   0.108E-01    0.624E-01
DAV:   3    -0.122320689035E+04    0.28050E-02   -0.11648E-02  1320   0.712E-02    0.353E-01
DAV:   4    -0.122320658049E+04    0.30986E-03   -0.94531E-04   900   0.255E-02    0.224E-01
DAV:   5    -0.122320641908E+04    0.16141E-03   -0.27043E-04   708   0.114E-02    0.160E-01
DAV:   6    -0.122320628251E+04    0.13658E-03   -0.46560E-04   720   0.151E-02    0.994E-02
DAV:   7    -0.122320633656E+04   -0.54055E-04   -0.79193E-04   720   0.100E-02
  87 F= -.12537450E+04 E0= -.12536781E+04  d E =-.129683E-02
       N       E                     dE             d eps       ncg     rms          rms(c)
DAV:   1    -0.122320606194E+04    0.22056E-03   -0.21273E-01  1152   0.379E-01    0.167E-01
DAV:   2    -0.122320667747E+04   -0.61552E-03   -0.58312E-03  1656   0.753E-02    0.237E-01
DAV:   3    -0.122320786960E+04   -0.11921E-02   -0.40116E-03  1128   0.416E-02    0.468E-01
DAV:   4    -0.122320691804E+04    0.95157E-03   -0.41516E-03  1092   0.454E-02    0.309E-01
DAV:   5    -0.122320658862E+04    0.32942E-03   -0.60026E-04   744   0.184E-02    0.164E-01
DAV:   6    -0.122320646860E+04    0.12001E-03   -0.20353E-04   684   0.974E-03    0.112E-01
DAV:   7    -0.122320643006E+04    0.38540E-04   -0.26795E-04   744   0.135E-02
  88 F= -.12537458E+04 E0= -.12536805E+04  d E =-.774669E-03
       N       E                     dE             d eps       ncg     rms          rms(c)
DAV:   1    -0.122320269086E+04    0.37777E-02   -0.19014E+00  1152   0.113E+00    0.478E-01
DAV:   2    -0.122321075699E+04   -0.80661E-02   -0.55861E-02  1656   0.238E-01    0.120E+00
DAV:   3    -0.122321539241E+04   -0.46354E-02   -0.43611E-02  1692   0.145E-01    0.874E-01
DAV:   4    -0.122320792867E+04    0.74637E-02   -0.98831E-03  1512   0.783E-02    0.529E-01
DAV:   5    -0.122320666515E+04    0.12635E-02   -0.20561E-03  1284   0.321E-02    0.393E-01
DAV:   6    -0.122320735581E+04   -0.69066E-03   -0.45664E-03  1392   0.467E-02    0.609E-01
DAV:   7    -0.122320634462E+04    0.10112E-02   -0.30719E-03  1200   0.384E-02    0.250E-01
DAV:   8    -0.122320599147E+04    0.35315E-03   -0.93496E-04   876   0.191E-02    0.161E-01
DAV:   9    -0.122320586092E+04    0.13055E-03   -0.70330E-04   720   0.136E-02    0.109E-01
DAV:  10    -0.122320580040E+04    0.60521E-04   -0.37753E-04   696   0.897E-03
  89 F= -.12537472E+04 E0= -.12536818E+04  d E =-.219372E-02
       N       E                     dE             d eps       ncg     rms          rms(c)
DAV:   1    -0.122320497385E+04    0.88707E-03   -0.18898E-01  1152   0.358E-01    0.174E-01
DAV:   2    -0.122320635051E+04   -0.13767E-02   -0.87529E-03  1596   0.798E-02    0.506E-01
DAV:   3    -0.122320720348E+04   -0.85298E-03   -0.99889E-03  1248   0.569E-02    0.500E-01
DAV:   4    -0.122320558035E+04    0.16231E-02   -0.37254E-03  1080   0.429E-02    0.205E-01
DAV:   5    -0.122320540451E+04    0.17584E-03   -0.33230E-04   756   0.130E-02    0.153E-01
DAV:   6    -0.122320530086E+04    0.10365E-03   -0.34945E-04   756   0.150E-02    0.936E-02
DAV:   7    -0.122320539106E+04   -0.90194E-04   -0.40081E-04   816   0.132E-02
  90 F= -.12537475E+04 E0= -.12536818E+04  d E =-.243055E-02
       N       E                     dE             d eps       ncg     rms          rms(c)
DAV:   1    -0.122320472941E+04    0.57146E-03   -0.40591E-01  1152   0.531E-01    0.205E-01
DAV:   2    -0.122320587423E+04   -0.11448E-02   -0.10188E-02  1560   0.101E-01    0.340E-01
DAV:   3    -0.122320831536E+04   -0.24411E-02   -0.89398E-03  1308   0.657E-02    0.597E-01
DAV:   4    -0.122320557402E+04    0.27413E-02   -0.42637E-03  1200   0.499E-02    0.143E-01
DAV:   5    -0.122320551712E+04    0.56893E-04   -0.42409E-04   864   0.169E-02
  91 F= -.12537484E+04 E0= -.12536842E+04  d E =-.950998E-03
       N       E                     dE             d eps       ncg     rms          rms(c)
DAV:   1    -0.122320112834E+04    0.44457E-02   -0.18711E+00  1152   0.114E+00    0.447E-01
DAV:   2    -0.122320460977E+04   -0.34814E-02   -0.48039E-02  1620   0.206E-01    0.412E-01
DAV:   3    -0.122320499610E+04   -0.38632E-03   -0.16623E-02  1488   0.509E-02    0.509E-01
DAV:   4    -0.122320503873E+04   -0.42636E-04   -0.17626E-02  1428   0.495E-02    0.450E-01
DAV:   5    -0.122320512491E+04   -0.86178E-04   -0.12966E-02  1272   0.583E-02    0.608E-01
DAV:   6    -0.122320441665E+04    0.70826E-03   -0.41335E-03  1236   0.507E-02    0.320E-01
DAV:   7    -0.122320365798E+04    0.75867E-03   -0.50041E-04   912   0.202E-02    0.106E-01
DAV:   8    -0.122320361561E+04    0.42365E-04   -0.12637E-04   696   0.101E-02
  92 F= -.12537483E+04 E0= -.12536855E+04  d E =-.833088E-03
       N       E                     dE             d eps       ncg     rms          rms(c)
DAV:   1    -0.122320422448E+04   -0.56650E-03   -0.27285E-01  1152   0.432E-01    0.183E-01
DAV:   2    -0.122320519017E+04   -0.96570E-03   -0.68912E-03  1632   0.825E-02    0.315E-01
DAV:   3    -0.122320614094E+04   -0.95077E-03   -0.48350E-03  1212   0.541E-02    0.444E-01
DAV:   4    -0.122320474102E+04    0.13999E-02   -0.37268E-03  1068   0.457E-02    0.173E-01
DAV:   5    -0.122320466414E+04    0.76885E-04   -0.34056E-04   864   0.182E-02
  93 F= -.12537487E+04 E0= -.12536863E+04  d E =-.120177E-02
       N       E                     dE             d eps       ncg     rms          rms(c)
DAV:   1    -0.122320502249E+04   -0.28147E-03   -0.22212E-01  1152   0.393E-01    0.235E-01
DAV:   2    -0.122321416146E+04   -0.91390E-02   -0.24137E-02  1632   0.130E-01    0.976E-01
DAV:   3    -0.122320640810E+04    0.77534E-02   -0.24874E-02  1404   0.108E-01    0.430E-01
DAV:   4    -0.122320630782E+04    0.10028E-03   -0.13771E-03  1020   0.269E-02    0.407E-01
DAV:   5    -0.122320569236E+04    0.61545E-03   -0.10752E-03   900   0.244E-02    0.241E-01
DAV:   6    -0.122320537806E+04    0.31431E-03   -0.98390E-04   912   0.281E-02    0.184E-01
DAV:   7    -0.122320523011E+04    0.14795E-03   -0.46306E-04   780   0.122E-02    0.142E-01
DAV:   8    -0.122320517456E+04    0.55547E-04   -0.47243E-04   624   0.968E-03
  94 F= -.12537486E+04 E0= -.12536838E+04  d E =-.109584E-02
       N       E                     dE             d eps       ncg     rms          rms(c)
DAV:   1    -0.122320481495E+04    0.41515E-03   -0.54621E-02  1152   0.195E-01    0.869E-02
DAV:   2    -0.122320571768E+04   -0.90273E-03   -0.33130E-03  1560   0.505E-02    0.370E-01
DAV:   3    -0.122320519046E+04    0.52722E-03   -0.30486E-03  1032   0.357E-02    0.249E-01
DAV:   4    -0.122320503917E+04    0.15130E-03   -0.55736E-04   744   0.174E-02    0.144E-01
DAV:   5    -0.122320493251E+04    0.10666E-03   -0.82487E-05   636   0.730E-03    0.803E-02
DAV:   6    -0.122320491080E+04    0.21705E-04   -0.11416E-04   672   0.974E-03
  95 F= -.12537486E+04 E0= -.12536840E+04  d E =-.113444E-02
       N       E                     dE             d eps       ncg     rms          rms(c)
DAV:   1    -0.122320459939E+04    0.33312E-03   -0.40185E-01  1152   0.535E-01    0.192E-01
DAV:   2    -0.122320624165E+04   -0.16423E-02   -0.10587E-02  1596   0.105E-01    0.415E-01
DAV:   3    -0.122320750937E+04   -0.12677E-02   -0.78613E-03  1320   0.651E-02    0.797E-01
DAV:   4    -0.122320592290E+04    0.15865E-02   -0.36571E-03  1224   0.440E-02    0.267E-01
DAV:   5    -0.122320541904E+04    0.50386E-03   -0.56814E-04  1116   0.209E-02    0.216E-01
DAV:   6    -0.122320517913E+04    0.23991E-03   -0.23757E-04   804   0.139E-02    0.867E-02
DAV:   7    -0.122320531333E+04   -0.13420E-03   -0.16000E-04   720   0.126E-02    0.184E-01
DAV:   8    -0.122320513795E+04    0.17537E-03   -0.12390E-04   672   0.905E-03    0.583E-02
DAV:   9    -0.122320520559E+04   -0.67637E-04   -0.11489E-04   672   0.701E-03
  96 F= -.12537496E+04 E0= -.12536839E+04  d E =-.977335E-03
       N       E                     dE             d eps       ncg     rms          rms(c)
DAV:   1    -0.122320440421E+04    0.73374E-03   -0.28054E-01  1152   0.446E-01    0.168E-01
DAV:   2    -0.122320603328E+04   -0.16291E-02   -0.94861E-03  1620   0.929E-02    0.418E-01
DAV:   3    -0.122320645136E+04   -0.41808E-03   -0.80897E-03  1308   0.618E-02    0.636E-01
DAV:   4    -0.122320528931E+04    0.11621E-02   -0.20337E-03  1176   0.349E-02    0.214E-01
DAV:   5    -0.122320498118E+04    0.30813E-03   -0.29270E-04   864   0.141E-02    0.156E-01
DAV:   6    -0.122320485355E+04    0.12763E-03   -0.17254E-04   768   0.139E-02    0.884E-02
DAV:   7    -0.122320490132E+04   -0.47777E-04   -0.22819E-04   792   0.111E-02
  97 F= -.12537498E+04 E0= -.12536839E+04  d E =-.124416E-02
       N       E                     dE             d eps       ncg     rms          rms(c)
DAV:   1    -0.122320446057E+04    0.39298E-03   -0.52393E-01  1152   0.601E-01    0.255E-01
DAV:   2    -0.122321076117E+04   -0.63006E-02   -0.27108E-02  1692   0.161E-01    0.738E-01
DAV:   3    -0.122320663533E+04    0.41258E-02   -0.21434E-02  1572   0.107E-01    0.577E-01
DAV:   4    -0.122320608285E+04    0.55249E-03   -0.23374E-03  1260   0.378E-02    0.337E-01
DAV:   5    -0.122320568445E+04    0.39840E-03   -0.46010E-04   960   0.179E-02    0.249E-01
DAV:   6    -0.122320545138E+04    0.23307E-03   -0.95200E-04  1032   0.273E-02    0.188E-01
DAV:   7    -0.122320540637E+04    0.45009E-04   -0.10536E-03   840   0.155E-02    0.183E-01
DAV:   8    -0.122320528197E+04    0.12440E-03   -0.10036E-03   648   0.109E-02    0.840E-02
DAV:   9    -0.122320530221E+04   -0.20241E-04   -0.68745E-04   684   0.902E-03
  98 F= -.12537508E+04 E0= -.12536848E+04  d E =-.921428E-03
       N       E                     dE             d eps       ncg     rms          rms(c)
DAV:   1    -0.122320378596E+04    0.14960E-02   -0.74582E-01  1152   0.718E-01    0.314E-01
DAV:   2    -0.122321333442E+04   -0.95485E-02   -0.41464E-02  1668   0.198E-01    0.878E-01
DAV:   3    -0.122320693673E+04    0.63977E-02   -0.33892E-02  1608   0.134E-01    0.679E-01
DAV:   4    -0.122320643552E+04    0.50121E-03   -0.37391E-03  1332   0.464E-02    0.443E-01
DAV:   5    -0.122320573401E+04    0.70151E-03   -0.69841E-04  1044   0.221E-02    0.326E-01
DAV:   6    -0.122320515925E+04    0.57477E-03   -0.14764E-03  1152   0.337E-02    0.200E-01
DAV:   7    -0.122320519599E+04   -0.36745E-04   -0.15338E-03   900   0.171E-02    0.249E-01
DAV:   8    -0.122320499875E+04    0.19724E-03   -0.14007E-03   720   0.137E-02    0.985E-02
DAV:   9    -0.122320499161E+04    0.71424E-05   -0.99475E-04   684   0.105E-02
  99 F= -.12537511E+04 E0= -.12536848E+04  d E =-.123638E-02
       N       E                     dE             d eps       ncg     rms          rms(c)
DAV:   1    -0.122320508236E+04   -0.83609E-04   -0.29028E-01  1152   0.443E-01    0.215E-01
DAV:   2    -0.122321025912E+04   -0.51768E-02   -0.22111E-02  1668   0.129E-01    0.723E-01
DAV:   3    -0.122320661858E+04    0.36405E-02   -0.20119E-02  1476   0.942E-02    0.502E-01
DAV:   4    -0.122320619697E+04    0.42161E-03   -0.27617E-03  1116   0.339E-02    0.311E-01
DAV:   5    -0.122320583809E+04    0.35888E-03   -0.70366E-04   792   0.159E-02    0.217E-01
DAV:   6    -0.122320557950E+04    0.25859E-03   -0.96084E-04   816   0.201E-02    0.124E-01
DAV:   7    -0.122320563954E+04   -0.60044E-04   -0.13397E-03   768   0.132E-02    0.174E-01
DAV:   8    -0.122320551888E+04    0.12066E-03   -0.84742E-04   636   0.117E-02    0.564E-02
DAV:   9    -0.122320555521E+04   -0.36323E-04   -0.58194E-04   624   0.768E-03
 100 F= -.12537518E+04 E0= -.12536861E+04  d E =-.761850E-03
       N       E                     dE             d eps       ncg     rms          rms(c)
DAV:   1    -0.122320342685E+04    0.20920E-02   -0.13152E+00  1152   0.945E-01    0.411E-01
DAV:   2    -0.122321310271E+04   -0.96759E-02   -0.53010E-02  1680   0.234E-01    0.842E-01
DAV:   3    -0.122321361161E+04   -0.50890E-03   -0.49000E-02  1596   0.168E-01    0.162E+00
DAV:   4    -0.122321010129E+04    0.35103E-02   -0.13850E-02  1440   0.879E-02    0.582E-01
DAV:   5    -0.122320743535E+04    0.26659E-02   -0.15140E-03  1152   0.307E-02    0.486E-01
DAV:   6    -0.122320581981E+04    0.16155E-02   -0.15437E-03  1224   0.373E-02    0.184E-01
DAV:   7    -0.122320623394E+04   -0.41413E-03   -0.18073E-03   996   0.249E-02    0.369E-01
DAV:   8    -0.122320580778E+04    0.42616E-03   -0.14527E-03   816   0.166E-02    0.185E-01
DAV:   9    -0.122320577663E+04    0.31154E-04   -0.12608E-03   696   0.141E-02    0.192E-01
DAV:  10    -0.122320560101E+04    0.17562E-03   -0.95035E-04   636   0.925E-03    0.952E-02
DAV:  11    -0.122320563402E+04   -0.33013E-04   -0.60043E-04   648   0.817E-03
 101 F= -.12537524E+04 E0= -.12536869E+04  d E =-.126883E-02
       N       E                     dE             d eps       ncg     rms          rms(c)
DAV:   1    -0.122320555803E+04    0.42978E-04   -0.32980E-01  1152   0.476E-01    0.218E-01
DAV:   2    -0.122320941227E+04   -0.38542E-02   -0.15629E-02  1692   0.126E-01    0.640E-01
DAV:   3    -0.122320805412E+04    0.13582E-02   -0.14409E-02  1404   0.880E-02    0.691E-01
DAV:   4    -0.122320698596E+04    0.10682E-02   -0.27437E-03  1164   0.407E-02    0.311E-01
DAV:   5    -0.122320649471E+04    0.49125E-03   -0.45107E-04   864   0.173E-02    0.234E-01
DAV:   6    -0.122320616481E+04    0.32990E-03   -0.50981E-04   864   0.217E-02    0.103E-01
DAV:   7    -0.122320629645E+04   -0.13163E-03   -0.21342E-04   768   0.134E-02    0.193E-01
DAV:   8    -0.122320611980E+04    0.17664E-03   -0.20205E-04   624   0.929E-03    0.653E-02
DAV:   9    -0.122320616397E+04   -0.44172E-04   -0.18020E-04   624   0.759E-03
 102 F= -.12537531E+04 E0= -.12536872E+04  d E =-.739610E-03
       N       E                     dE             d eps       ncg     rms          rms(c)
DAV:   1    -0.122320523197E+04    0.88783E-03   -0.54075E-01  1152   0.611E-01    0.282E-01
DAV:   2    -0.122321127558E+04   -0.60436E-02   -0.28448E-02  1704   0.160E-01    0.765E-01
DAV:   3    -0.122320923247E+04    0.20431E-02   -0.27862E-02  1572   0.117E-01    0.918E-01
DAV:   4    -0.122320788268E+04    0.13498E-02   -0.63605E-03  1224   0.559E-02    0.433E-01
DAV:   5    -0.122320679781E+04    0.10849E-02   -0.65188E-04   996   0.216E-02    0.306E-01
DAV:   6    -0.122320619947E+04    0.59833E-03   -0.59669E-04   972   0.228E-02    0.144E-01
DAV:   7    -0.122320640494E+04   -0.20546E-03   -0.74861E-04   888   0.183E-02    0.262E-01
DAV:   8    -0.122320612197E+04    0.28297E-03   -0.40529E-04   780   0.136E-02    0.688E-02
DAV:   9    -0.122320619290E+04   -0.70936E-04   -0.34037E-04   684   0.940E-03
 103 F= -.12537534E+04 E0= -.12536872E+04  d E =-.103931E-02
       N       E                     dE             d eps       ncg     rms          rms(c)
DAV:   1    -0.122320607804E+04    0.43923E-04   -0.34219E-01  1152   0.492E-01    0.220E-01
DAV:   2    -0.122321266449E+04   -0.65864E-02   -0.23845E-02  1692   0.146E-01    0.759E-01
DAV:   3    -0.122320735963E+04    0.53049E-02   -0.18824E-02  1512   0.103E-01    0.376E-01
DAV:   4    -0.122320706606E+04    0.29357E-03   -0.88488E-04  1164   0.250E-02    0.263E-01
DAV:   5    -0.122320691049E+04    0.15557E-03   -0.40311E-04   900   0.176E-02    0.205E-01
DAV:   6    -0.122320680788E+04    0.10261E-03   -0.72191E-04   972   0.249E-02    0.186E-01
DAV:   7    -0.122320667617E+04    0.13171E-03   -0.64111E-04   840   0.152E-02    0.119E-01
DAV:   8    -0.122320663753E+04    0.38645E-04   -0.60049E-04   648   0.866E-03
 104 F= -.12537541E+04 E0= -.12536894E+04  d E =-.737959E-03
       N       E                     dE             d eps       ncg     rms          rms(c)
DAV:   1    -0.122320635525E+04    0.32093E-03   -0.15867E-01  1152   0.336E-01    0.171E-01
DAV:   2    -0.122321201465E+04   -0.56594E-02   -0.17025E-02  1668   0.117E-01    0.769E-01
DAV:   3    -0.122320709752E+04    0.49171E-02   -0.14236E-02  1368   0.848E-02    0.257E-01
DAV:   4    -0.122320696790E+04    0.12963E-03   -0.84144E-04   984   0.194E-02    0.249E-01
DAV:   5    -0.122320674246E+04    0.22544E-03   -0.77416E-04   828   0.193E-02    0.158E-01
DAV:   6    -0.122320666371E+04    0.78753E-04   -0.77538E-04   912   0.194E-02
 105 F= -.12537544E+04 E0= -.12536890E+04  d E =-.964903E-03
       N       E                     dE             d eps       ncg     rms          rms(c)
DAV:   1    -0.122320668902E+04    0.53440E-04   -0.38056E-01  1152   0.523E-01    0.218E-01
DAV:   2    -0.122321125808E+04   -0.45691E-02   -0.20124E-02  1644   0.130E-01    0.680E-01
DAV:   3    -0.122320853303E+04    0.27251E-02   -0.17042E-02  1464   0.911E-02    0.533E-01
DAV:   4    -0.122320796606E+04    0.56697E-03   -0.25136E-03  1164   0.377E-02    0.320E-01
DAV:   5    -0.122320749768E+04    0.46838E-03   -0.36199E-04   960   0.164E-02    0.198E-01
DAV:   6    -0.122320729505E+04    0.20263E-03   -0.73279E-04   936   0.211E-02    0.146E-01
DAV:   7    -0.122320732309E+04   -0.28035E-04   -0.11372E-03   864   0.139E-02    0.165E-01
DAV:   8    -0.122320725096E+04    0.72132E-04   -0.81284E-04   696   0.123E-02
 106 F= -.12537553E+04 E0= -.12536906E+04  d E =-.901590E-03
       N       E                     dE             d eps       ncg     rms          rms(c)
DAV:   1    -0.122320662584E+04    0.69724E-03   -0.41800E-01  1152   0.545E-01    0.223E-01
DAV:   2    -0.122321006138E+04   -0.34355E-02   -0.17749E-02  1596   0.123E-01    0.590E-01
DAV:   3    -0.122320948442E+04    0.57695E-03   -0.16160E-02  1476   0.895E-02    0.755E-01
DAV:   4    -0.122320819785E+04    0.12866E-02   -0.36510E-03  1212   0.455E-02    0.325E-01
DAV:   5    -0.122320751882E+04    0.67903E-03   -0.37997E-04   996   0.173E-02    0.194E-01
DAV:   6    -0.122320730584E+04    0.21298E-03   -0.38431E-04   888   0.175E-02    0.131E-01
DAV:   7    -0.122320735103E+04   -0.45192E-04   -0.62115E-04   900   0.143E-02
 107 F= -.12537557E+04 E0= -.12536889E+04  d E =-.133289E-02
       N       E                     dE             d eps       ncg     rms          rms(c)
DAV:   1    -0.122320735965E+04   -0.53815E-04   -0.35137E-01  1152   0.497E-01    0.220E-01
[...]
DAV:   3    -0.122321163579E+04    0.45664E-03   -0.14182E-03  1080   0.308E-02    0.138E-01
DAV:   4    -0.122321157829E+04    0.57496E-04   -0.14291E-04   708   0.111E-02
 158 F= -.12537794E+04 E0= -.12537161E+04  d E =-.378484E-03
       N       E                     dE             d eps       ncg     rms          rms(c)
DAV:   1    -0.122321156751E+04    0.68279E-04   -0.94215E-02  1152   0.257E-01    0.110E-01
DAV:   2    -0.122321186464E+04   -0.29713E-03   -0.29824E-03  1644   0.565E-02    0.172E-01
DAV:   3    -0.122321239444E+04   -0.52980E-03   -0.25468E-03  1176   0.332E-02    0.318E-01
DAV:   4    -0.122321177861E+04    0.61582E-03   -0.15540E-03  1020   0.298E-02    0.110E-01
DAV:   5    -0.122321172418E+04    0.54432E-04   -0.13682E-04   672   0.754E-03
 159 F= -.12537797E+04 E0= -.12537163E+04  d E =-.311945E-03
       N       E                     dE             d eps       ncg     rms          rms(c)
DAV:   1    -0.122321170604E+04    0.72568E-04   -0.93693E-04  1080   0.234E-02    0.700E-02
DAV:   2    -0.122321221123E+04   -0.50519E-03   -0.20871E-03   912   0.208E-02    0.328E-01
DAV:   3    -0.122321201500E+04    0.19624E-03   -0.30544E-03   996   0.317E-02    0.227E-01
DAV:   4    -0.122321171044E+04    0.30456E-03   -0.67362E-04   732   0.146E-02    0.545E-02
DAV:   5    -0.122321169342E+04    0.17019E-04   -0.31637E-04   636   0.441E-03
 160 F= -.12537797E+04 E0= -.12537159E+04  d E =-.296062E-03
       N       E                     dE             d eps       ncg     rms          rms(c)
DAV:   1    -0.122321172767E+04   -0.17232E-04   -0.55531E-02  1152   0.194E-01    0.114E-01
DAV:   2    -0.122321208392E+04   -0.35625E-03   -0.20522E-03  1596   0.458E-02    0.212E-01
DAV:   3    -0.122321290025E+04   -0.81633E-03   -0.22951E-03  1152   0.360E-02    0.506E-01
DAV:   4    -0.122321217958E+04    0.72068E-03   -0.19713E-03   972   0.315E-02    0.186E-01
DAV:   5    -0.122321193209E+04    0.24749E-03   -0.19301E-04   672   0.110E-02    0.107E-01
DAV:   6    -0.122321186253E+04    0.69566E-04   -0.44863E-05   624   0.678E-03
 161 F= -.12537800E+04 E0= -.12537164E+04  d E =-.373051E-03
       N       E                     dE             d eps       ncg     rms          rms(c)
DAV:   1    -0.122321180795E+04    0.12414E-03   -0.90035E-03  1128   0.788E-02    0.916E-02
DAV:   2    -0.122321270570E+04   -0.89775E-03   -0.14653E-03  1272   0.341E-02    0.402E-01
DAV:   3    -0.122321249300E+04    0.21270E-03   -0.32605E-03  1092   0.410E-02    0.387E-01
DAV:   4    -0.122321201634E+04    0.47666E-03   -0.92418E-04   804   0.206E-02    0.155E-01
DAV:   5    -0.122321185340E+04    0.16294E-03   -0.10622E-04   672   0.820E-03    0.101E-01
DAV:   6    -0.122321180853E+04    0.44871E-04   -0.52667E-05   636   0.695E-03
 162 F= -.12537801E+04 E0= -.12537163E+04  d E =-.403423E-03
       N       E                     dE             d eps       ncg     rms          rms(c)
DAV:   1    -0.122321193515E+04   -0.81758E-04   -0.36689E-02  1152   0.158E-01    0.116E-01
DAV:   2    -0.122321344527E+04   -0.15101E-02   -0.35556E-03  1560   0.566E-02    0.481E-01
DAV:   3    -0.122321276063E+04    0.68464E-03   -0.49922E-03  1176   0.511E-02    0.401E-01
DAV:   4    -0.122321231672E+04    0.44391E-03   -0.12338E-03   948   0.249E-02    0.200E-01
DAV:   5    -0.122321208775E+04    0.22897E-03   -0.13660E-04   660   0.988E-03    0.123E-01
DAV:   6    -0.122321199993E+04    0.87825E-04   -0.95017E-05   660   0.934E-03
 163 F= -.12537804E+04 E0= -.12537165E+04  d E =-.328254E-03
       N       E                     dE             d eps       ncg     rms          rms(c)
DAV:   1    -0.122321194267E+04    0.14509E-03   -0.23826E-02  1152   0.128E-01    0.130E-01
DAV:   2    -0.122321440206E+04   -0.24594E-02   -0.48814E-03  1548   0.609E-02    0.607E-01
DAV:   3    -0.122321293795E+04    0.14641E-02   -0.76595E-03  1272   0.620E-02    0.450E-01
DAV:   4    -0.122321239063E+04    0.54732E-03   -0.14343E-03   888   0.256E-02    0.234E-01
DAV:   5    -0.122321205704E+04    0.33359E-03   -0.18719E-04   708   0.106E-02    0.125E-01
DAV:   6    -0.122321195943E+04    0.97609E-04   -0.12372E-04   684   0.106E-02
 164 F= -.12537805E+04 E0= -.12537168E+04  d E =-.399434E-03
       N       E                     dE             d eps       ncg     rms          rms(c)
DAV:   1    -0.122321202582E+04    0.31229E-04   -0.35383E-02  1152   0.159E-01    0.985E-02
DAV:   2    -0.122321322669E+04   -0.12009E-02   -0.24730E-03  1440   0.443E-02    0.448E-01
DAV:   3    -0.122321271701E+04    0.50968E-03   -0.38085E-03  1080   0.440E-02    0.372E-01
DAV:   4    -0.122321228275E+04    0.43426E-03   -0.89830E-04   840   0.206E-02    0.168E-01
DAV:   5    -0.122321210623E+04    0.17653E-03   -0.11440E-04   660   0.849E-03    0.102E-01
DAV:   6    -0.122321206711E+04    0.39121E-04   -0.68453E-05   636   0.849E-03
 165 F= -.12537807E+04 E0= -.12537169E+04  d E =-.183501E-03
       N       E                     dE             d eps       ncg     rms          rms(c)
DAV:   1    -0.122321204072E+04    0.65511E-04   -0.43726E-03  1104   0.572E-02    0.891E-02
DAV:   2    -0.122321291199E+04   -0.87128E-03   -0.11363E-03   996   0.271E-02    0.403E-01
DAV:   3    -0.122321273645E+04    0.17555E-03   -0.31227E-03  1068   0.397E-02    0.394E-01
DAV:   4    -0.122321223339E+04    0.50306E-03   -0.86627E-04   828   0.190E-02    0.152E-01
DAV:   5    -0.122321204974E+04    0.18365E-03   -0.10814E-04   660   0.797E-03    0.788E-02
DAV:   6    -0.122321204052E+04    0.92210E-05   -0.46469E-05   636   0.659E-03
 166 F= -.12537807E+04 E0= -.12537171E+04  d E =-.184075E-03
       N       E                     dE             d eps       ncg     rms          rms(c)
DAV:   1    -0.122321200004E+04    0.49696E-04   -0.37992E-02  1152   0.170E-01    0.728E-02
DAV:   2    -0.122321227678E+04   -0.27673E-03   -0.93968E-04  1416   0.296E-02    0.216E-01
DAV:   3    -0.122321235372E+04   -0.76945E-04   -0.93776E-04  1008   0.218E-02
 167 F= -.12537812E+04 E0= -.12537130E+04  d E =-.504522E-03
       N       E                     dE             d eps       ncg     rms          rms(c)
DAV:   1    -0.122321210881E+04    0.16797E-03   -0.69774E-03  1188   0.743E-02    0.136E-01
DAV:   2    -0.122322257958E+04   -0.10471E-01   -0.11256E-02  1356   0.764E-02    0.192E+00
DAV:   3    -0.122321519210E+04    0.73875E-02   -0.11664E-02  1296   0.772E-02    0.348E-01
DAV:   4    -0.122321305448E+04    0.21376E-02   -0.14122E-03  1032   0.272E-02    0.400E-01
DAV:   5    -0.122321211309E+04    0.94139E-03   -0.50828E-04   792   0.188E-02    0.113E-01
DAV:   6    -0.122321232691E+04   -0.21382E-03   -0.31505E-04   708   0.115E-02    0.240E-01
DAV:   7    -0.122321195701E+04    0.36990E-03   -0.19902E-04   672   0.107E-02    0.311E-02
DAV:   8    -0.122321205775E+04   -0.10074E-03   -0.16587E-04   648   0.724E-03    0.133E-01
DAV:   9    -0.122321193193E+04    0.12583E-03   -0.95650E-05   600   0.484E-03    0.329E-02
DAV:  10    -0.122321198190E+04   -0.49973E-04   -0.51847E-05   612   0.390E-03
 168 F= -.12537809E+04 E0= -.12537162E+04  d E =-.210940E-03
       N       E                     dE             d eps       ncg     rms          rms(c)
DAV:   1    -0.122321183394E+04    0.97987E-04   -0.39343E-02  1152   0.166E-01    0.956E-02
DAV:   2    -0.122321284520E+04   -0.10113E-02   -0.26916E-03  1476   0.479E-02    0.390E-01
DAV:   3    -0.122321246635E+04    0.37885E-03   -0.35689E-03  1128   0.429E-02    0.339E-01
DAV:   4    -0.122321205765E+04    0.40870E-03   -0.67523E-04   756   0.197E-02    0.132E-01
DAV:   5    -0.122321197243E+04    0.85217E-04   -0.96828E-05   636   0.802E-03
 169 F= -.12537811E+04 E0= -.12537166E+04  d E =-.247087E-03
       N       E                     dE             d eps       ncg     rms          rms(c)
DAV:   1    -0.122321181885E+04    0.23881E-03   -0.19152E-03  1092   0.381E-02    0.429E-02
DAV:   2    -0.122321245076E+04   -0.63191E-03   -0.11646E-03   996   0.284E-02    0.299E-01
DAV:   3    -0.122321182880E+04    0.62196E-03   -0.11459E-03   864   0.266E-02    0.757E-02
DAV:   4    -0.122321181915E+04    0.96484E-05   -0.40540E-05   612   0.504E-03
 170 F= -.12537810E+04 E0= -.12537173E+04  d E =-.151022E-03
       N       E                     dE             d eps       ncg     rms          rms(c)
DAV:   1    -0.122321182031E+04    0.84850E-05   -0.18635E-02  1152   0.114E-01    0.697E-02
DAV:   2    -0.122321231613E+04   -0.49582E-03   -0.12225E-03  1296   0.324E-02    0.280E-01
DAV:   3    -0.122321211206E+04    0.20407E-03   -0.17117E-03   960   0.315E-02    0.229E-01
DAV:   4    -0.122321191940E+04    0.19266E-03   -0.29707E-04   684   0.138E-02    0.874E-02
DAV:   5    -0.122321187781E+04    0.41584E-04   -0.44300E-05   648   0.545E-03
 171 F= -.12537812E+04 E0= -.12537172E+04  d E =-.202572E-03
       N       E                     dE             d eps       ncg     rms          rms(c)
DAV:   1    -0.122321120929E+04    0.71011E-03   -0.16549E-01  1152   0.339E-01    0.161E-01
DAV:   2    -0.122321164051E+04   -0.43122E-03   -0.51843E-03  1656   0.689E-02    0.163E-01
DAV:   3    -0.122321325878E+04   -0.16183E-02   -0.46283E-03  1200   0.440E-02    0.677E-01
DAV:   4    -0.122321185941E+04    0.13994E-02   -0.33730E-03  1140   0.384E-02    0.181E-01
DAV:   5    -0.122321163894E+04    0.22048E-03   -0.24157E-04   768   0.124E-02    0.147E-01
DAV:   6    -0.122321150738E+04    0.13156E-03   -0.11072E-04   660   0.957E-03    0.691E-02
DAV:   7    -0.122321156779E+04   -0.60412E-04   -0.87985E-05   720   0.981E-03
 172 F= -.12537813E+04 E0= -.12537166E+04  d E =-.323406E-03
       N       E                     dE             d eps       ncg     rms          rms(c)
DAV:   1    -0.122321150632E+04    0.10615E-05   -0.12131E-02  1140   0.922E-02    0.463E-02
DAV:   2    -0.122321161381E+04   -0.10750E-03   -0.66972E-04  1212   0.229E-02    0.112E-01
DAV:   3    -0.122321165807E+04   -0.44258E-04   -0.69320E-04   792   0.189E-02
 173 F= -.12537815E+04 E0= -.12537150E+04  d E =-.197497E-03
       N       E                     dE             d eps       ncg     rms          rms(c)
DAV:   1    -0.122321152226E+04    0.91557E-04   -0.16879E-02  1140   0.109E-01    0.654E-02
DAV:   2    -0.122321309455E+04   -0.15723E-02   -0.21207E-03  1272   0.417E-02    0.632E-01
DAV:   3    -0.122321175740E+04    0.13371E-02   -0.19573E-03  1080   0.340E-02    0.113E-01
DAV:   4    -0.122321162510E+04    0.13230E-03   -0.14858E-04   708   0.109E-02    0.113E-01
DAV:   5    -0.122321154029E+04    0.84812E-04   -0.50313E-05   624   0.767E-03
 174 F= -.12537815E+04 E0= -.12537174E+04  d E =-.204714E-03
       N       E                     dE             d eps       ncg     rms          rms(c)
DAV:   1    -0.122321129784E+04    0.32726E-03   -0.66239E-02  1152   0.214E-01    0.145E-01
DAV:   2    -0.122321224081E+04   -0.94297E-03   -0.29736E-03  1608   0.509E-02    0.411E-01
DAV:   3    -0.122321271922E+04   -0.47841E-03   -0.57517E-03  1308   0.552E-02    0.415E-01
DAV:   4    -0.122321140165E+04    0.13176E-02   -0.24333E-03  1116   0.385E-02    0.724E-02
DAV:   5    -0.122321136310E+04    0.38554E-04   -0.14575E-04   648   0.786E-03
 175 F= -.12537816E+04 E0= -.12537185E+04  d E =-.278110E-03
       N       E                     dE             d eps       ncg     rms          rms(c)
DAV:   1    -0.122321144027E+04   -0.38611E-04   -0.54801E-03  1116   0.604E-02    0.568E-02
DAV:   2    -0.122321156235E+04   -0.12209E-03   -0.13393E-03   816   0.152E-02    0.157E-01
DAV:   3    -0.122321151537E+04    0.46986E-04   -0.18253E-03   720   0.143E-02    0.117E-01
DAV:   4    -0.122321146218E+04    0.53187E-04   -0.86430E-04   720   0.116E-02
 176 F= -.12537818E+04 E0= -.12537172E+04  d E =-.162110E-03
       N       E                     dE             d eps       ncg     rms          rms(c)
DAV:   1    -0.122321144658E+04    0.68790E-04   -0.25050E-02  1152   0.128E-01    0.776E-02
DAV:   2    -0.122321166634E+04   -0.21976E-03   -0.35301E-03  1140   0.266E-02    0.204E-01
DAV:   3    -0.122321156794E+04    0.98398E-04   -0.42062E-03   708   0.130E-02    0.128E-01
DAV:   4    -0.122321159083E+04   -0.22882E-04   -0.21649E-03   708   0.146E-02    0.141E-01
DAV:   5    -0.122321148576E+04    0.10506E-03   -0.84734E-04   672   0.109E-02    0.526E-02
DAV:   6    -0.122321149094E+04   -0.51724E-05   -0.30952E-04   624   0.527E-03
 177 F= -.12537819E+04 E0= -.12537177E+04  d E =-.325803E-03
       N       E                     dE             d eps       ncg     rms          rms(c)
DAV:   1    -0.122321160413E+04   -0.11836E-03   -0.66633E-03  1116   0.640E-02    0.499E-02
DAV:   2    -0.122321181569E+04   -0.21156E-03   -0.15476E-03   888   0.184E-02    0.209E-01
DAV:   3    -0.122321176892E+04    0.46771E-04   -0.19733E-03   840   0.223E-02    0.168E-01
DAV:   4    -0.122321163764E+04    0.13128E-03   -0.47672E-04   708   0.123E-02    0.611E-02
DAV:   5    -0.122321161999E+04    0.17650E-04   -0.18281E-04   636   0.463E-03
 178 F= -.12537821E+04 E0= -.12537181E+04  d E =-.147498E-03
       N       E                     dE             d eps       ncg     rms          rms(c)
DAV:   1    -0.122321163384E+04    0.37946E-05   -0.20466E-02  1152   0.114E-01    0.591E-02
DAV:   2    -0.122321173563E+04   -0.10179E-03   -0.63892E-04  1272   0.246E-02    0.129E-01
DAV:   3    -0.122321188511E+04   -0.14948E-03   -0.77744E-04   912   0.213E-02    0.195E-01
DAV:   4    -0.122321169094E+04    0.19416E-03   -0.37499E-04   708   0.158E-02    0.648E-02
DAV:   5    -0.122321168231E+04    0.86279E-05   -0.59167E-05   636   0.527E-03
 179 F= -.12537822E+04 E0= -.12537186E+04  d E =-.242992E-03
       N       E                     dE             d eps       ncg     rms          rms(c)
DAV:   1    -0.122321173111E+04   -0.40170E-04   -0.80835E-03  1128   0.699E-02    0.488E-02
DAV:   2    -0.122321265723E+04   -0.92612E-03   -0.15913E-03  1056   0.345E-02    0.469E-01
DAV:   3    -0.122321185444E+04    0.80279E-03   -0.12794E-03   972   0.285E-02    0.959E-02
DAV:   4    -0.122321175679E+04    0.97642E-04   -0.94012E-05   672   0.820E-03
 180 F= -.12537823E+04 E0= -.12537182E+04  d E =-.934625E-04
       N       E                     dE             d eps       ncg     rms          rms(c)
DAV:   1    -0.122321178192E+04    0.72518E-04   -0.28671E-03  1080   0.417E-02    0.642E-02
DAV:   2    -0.122321200011E+04   -0.21819E-03   -0.44378E-04   792   0.149E-02    0.219E-01
DAV:   3    -0.122321207186E+04   -0.71751E-04   -0.11827E-03   828   0.224E-02    0.232E-01
DAV:   4    -0.122321184003E+04    0.23183E-03   -0.55898E-04   720   0.156E-02    0.937E-02
DAV:   5    -0.122321181667E+04    0.23369E-04   -0.70134E-05   636   0.541E-03
 181 F= -.12537823E+04 E0= -.12537190E+04  d E =-.164695E-03
       N       E                     dE             d eps       ncg     rms          rms(c)
DAV:   1    -0.122321171978E+04    0.12025E-03   -0.11450E-02  1140   0.833E-02    0.558E-02
DAV:   2    -0.122321216309E+04   -0.44331E-03   -0.11904E-03  1104   0.284E-02    0.310E-01
DAV:   3    -0.122321183814E+04    0.32495E-03   -0.11193E-03   960   0.255E-02    0.124E-01
DAV:   4    -0.122321177592E+04    0.62218E-04   -0.76220E-05   624   0.753E-03
 182 F= -.12537823E+04 E0= -.12537183E+04  d E =-.146792E-03
       N       E                     dE             d eps       ncg     rms          rms(c)
DAV:   1    -0.122321176340E+04    0.74741E-04   -0.22348E-03  1068   0.371E-02    0.450E-02
DAV:   2    -0.122321189679E+04   -0.13339E-03   -0.17921E-04   732   0.126E-02    0.144E-01
DAV:   3    -0.122321183080E+04    0.65988E-04   -0.41993E-04   744   0.170E-02
 183 F= -.12537824E+04 E0= -.12537165E+04  d E =-.191744E-03
       N       E                     dE             d eps       ncg     rms          rms(c)
DAV:   1    -0.122321179907E+04    0.97715E-04   -0.42424E-03  1092   0.535E-02    0.385E-02
DAV:   2    -0.122321201492E+04   -0.21584E-03   -0.37291E-04   852   0.177E-02    0.205E-01
DAV:   3    -0.122321184802E+04    0.16690E-03   -0.56919E-04   780   0.199E-02    0.105E-01
DAV:   4    -0.122321180020E+04    0.47824E-04   -0.71464E-05   624   0.843E-03
 184 F= -.12537824E+04 E0= -.12537180E+04  d E =-.803764E-05
       N       E                     dE             d eps       ncg     rms          rms(c)
DAV:   1    -0.122321179437E+04    0.53655E-04   -0.49446E-04   864   0.182E-02    0.253E-02
DAV:   2    -0.122321188261E+04   -0.88241E-04   -0.13568E-04   672   0.102E-02
 185 F= -.12537825E+04 E0= -.12537164E+04  d E =-.103833E-03
       N       E                     dE             d eps       ncg     rms          rms(c)
DAV:   1    -0.122321185890E+04   -0.64538E-04   -0.27699E-03  1152   0.399E-02    0.675E-02
DAV:   2    -0.122321574168E+04   -0.38828E-02   -0.46269E-03  1200   0.514E-02    0.107E+00
DAV:   3    -0.122321255606E+04    0.31856E-02   -0.41845E-03  1116   0.477E-02    0.164E-01
DAV:   4    -0.122321195709E+04    0.59897E-03   -0.39890E-04   840   0.150E-02    0.124E-01
DAV:   5    -0.122321183478E+04    0.12231E-03   -0.75843E-05   684   0.878E-03    0.319E-02
DAV:   6    -0.122321186953E+04   -0.34753E-04   -0.34419E-05   624   0.501E-03
 186 F= -.12537825E+04 E0= -.12537180E+04  d E =0.579054E-05
       N       E                     dE             d eps       ncg     rms          rms(c)
DAV:   1    -0.122321185556E+04   -0.20780E-04   -0.93819E-03  1116   0.702E-02    0.730E-02
DAV:   2    -0.122321349574E+04   -0.16402E-02   -0.38150E-03  1248   0.475E-02    0.465E-01
DAV:   3    -0.122321196265E+04    0.15331E-02   -0.34587E-03  1140   0.437E-02    0.117E-01
DAV:   4    -0.122321189449E+04    0.68162E-04   -0.20807E-04   696   0.898E-03
 187 F= -.12537825E+04 E0= -.12537186E+04  d E =-.331453E-04
       N       E                     dE             d eps       ncg     rms          rms(c)
DAV:   1    -0.122321194132E+04    0.21325E-04   -0.21899E-03  1080   0.354E-02    0.736E-02
DAV:   2    -0.122321260109E+04   -0.65976E-03   -0.16918E-03   912   0.240E-02    0.369E-01
DAV:   3    -0.122321230438E+04    0.29670E-03   -0.28654E-03   972   0.359E-02    0.239E-01
DAV:   4    -0.122321193909E+04    0.36529E-03   -0.55105E-04   744   0.153E-02    0.420E-02
DAV:   5    -0.122321192260E+04    0.16495E-04   -0.15502E-04   624   0.433E-03
 188 F= -.12537825E+04 E0= -.12537189E+04  d E =-.163577E-04
       N       E                     dE             d eps       ncg     rms          rms(c)
DAV:   1    -0.122321194816E+04   -0.90700E-05   -0.21325E-03  1080   0.354E-02    0.338E-02
DAV:   2    -0.122321201575E+04   -0.67591E-04   -0.21296E-04   696   0.918E-03
 189 F= -.12537826E+04 E0= -.12537199E+04  d E =-.972702E-04
       N       E                     dE             d eps       ncg     rms          rms(c)
DAV:   1    -0.122321201682E+04   -0.68661E-04   -0.47134E-04   792   0.149E-02    0.126E-01
DAV:   2    -0.122321901734E+04   -0.70005E-02   -0.18306E-02  1320   0.941E-02    0.822E-01
DAV:   3    -0.122321229201E+04    0.67253E-02   -0.13822E-02  1320   0.835E-02    0.160E-01
DAV:   4    -0.122321215678E+04    0.13523E-03   -0.54318E-04   816   0.144E-02    0.187E-01
DAV:   5    -0.122321199513E+04    0.16164E-03   -0.27761E-04   648   0.977E-03    0.666E-02
DAV:   6    -0.122321198009E+04    0.15044E-04   -0.14805E-04   648   0.801E-03
 190 F= -.12537826E+04 E0= -.12537190E+04  d E =-.642222E-04
       N       E                     dE             d eps       ncg     rms          rms(c)
DAV:   1    -0.122321195532E+04    0.39818E-04   -0.61625E-04  1020   0.210E-02    0.241E-02
DAV:   2    -0.122321221405E+04   -0.25873E-03   -0.53355E-04   780   0.160E-02    0.225E-01
DAV:   3    -0.122321196604E+04    0.24801E-03   -0.49719E-04   744   0.164E-02    0.622E-02
DAV:   4    -0.122321195707E+04    0.89745E-05   -0.49152E-05   600   0.378E-03
 191 F= -.12537826E+04 E0= -.12537186E+04  d E =0.144035E-04
