basalPlane                              
           1
    15.900000    0.000000    0.000000
    -7.950000   13.769804    0.000000
     0.000000    0.000000   32.380000
   C    Cr   H    Mo   S 
  10   1  10  50 100
Direct configuration=     1
   0.58401161  0.42894224  0.46450685
   0.51202670  0.40296807  0.49562587
   0.60548735  0.52035761  0.44749975
   0.54623453  0.55206482  0.46842926
   0.48787826  0.47841632  0.49839049
   0.34111007  0.28917663  0.41428917
   0.33843247  0.43350481  0.40785511
   0.30158123  0.34574652  0.43171450
   0.39929544  0.43083076  0.37616520
   0.40147266  0.34274936  0.38000308
   0.45313628  0.42206141  0.43785419
   0.43604645  0.48042298  0.51969378
   0.25099822  0.32468648  0.45741006
   0.32620268  0.21791063  0.42457888
   0.32376269  0.49242260  0.41336229
   0.44126074  0.48878840  0.35421714
   0.47854622  0.33568469  0.51322171
   0.61397510  0.38427463  0.45406746
   0.65711233  0.55874208  0.42283714
   0.54760109  0.62037612  0.46348341
   0.44384536  0.32127513  0.36087692
   0.60000000  0.60000000  0.65735022
   0.20000000  0.80000000  0.21911674
   0.20000000  0.60000000  0.65735022
   0.60000000  0.80000000  0.21911674
   0.20000000  0.60000000  0.21911674
   0.60000000  0.80000000  0.65735022
   0.20000000  0.40000000  0.21911674
   0.80000000  0.00000000  0.21911674
   0.20000000  0.20000000  0.65735022
   0.80000000  0.00000000  0.65735022
   0.20000000  0.20000000  0.21911674
   0.20000000  0.80000000  0.65735022
   0.20000000  0.40000000  0.65735022
   0.60000000  0.60000000  0.21911674
   0.40000000  0.60000000  0.21911674
   0.40000000  0.00000000  0.65735022
   0.60000000  0.40000000  0.65735022
   0.40000000  0.20000000  0.21911674
   0.60000000  0.40000000  0.21911674
   0.40000000  0.20000000  0.65735022
   0.40000000  0.40000000  0.21911674
   0.60000000  0.20000000  0.65735022
   0.40000000  0.40000000  0.65735022
   0.60000000  0.20000000  0.21911674
   0.40000000  0.80000000  0.65735022
   0.40000000  0.60000000  0.65735022
   0.60000000  0.00000000  0.65735022
   0.40000000  0.80000000  0.21911674
   0.60000000  0.00000000  0.21911674
   0.40000000  0.00000000  0.21911674
   0.80000000  0.20000000  0.21911674
   0.20000000  0.00000000  0.65735022
   0.20000000  0.00000000  0.21911674
   0.00000000  0.00000000  0.21911674
   0.80000000  0.80000000  0.65735022
   0.00000000  0.00000000  0.65735022
   0.80000000  0.80000000  0.21911674
   0.00000000  0.20000000  0.21911674
   0.00000000  0.20000000  0.65735022
   0.80000000  0.60000000  0.65735022
   0.00000000  0.40000000  0.21911674
   0.00000000  0.40000000  0.65735022
   0.00000000  0.60000000  0.21911674
   0.80000000  0.40000000  0.65735022
   0.00000000  0.60000000  0.65735022
   0.80000000  0.60000000  0.21911674
   0.80000000  0.40000000  0.21911674
   0.00000000  0.80000000  0.65735022
   0.00000000  0.80000000  0.21911674
   0.80000000  0.20000000  0.65735022
   0.93333333  0.06666667  0.16985794
   0.73333333  0.26666667  0.60809141
   0.73333333  0.26666667  0.70660902
   0.93333333  0.66666667  0.70660902
   0.93333333  0.66666667  0.60809141
   0.73333333  0.26666667  0.16985794
   0.73333333  0.26666667  0.26837554
   0.93333333  0.46666667  0.26837554
   0.73333333  0.06666667  0.60809141
   0.73333333  0.06666667  0.70660902
   0.93333333  0.06666667  0.70660902
   0.93333333  0.86666667  0.16985794
   0.73333333  0.06666667  0.16985794
   0.93333333  0.06666667  0.60809141
   0.73333333  0.06666667  0.26837554
   0.93333333  0.26666667  0.16985794
   0.93333333  0.26666667  0.70660902
   0.93333333  0.86666667  0.26837554
   0.73333333  0.46666667  0.26837554
   0.73333333  0.46666667  0.16985794
   0.73333333  0.86666667  0.16985794
   0.73333333  0.86666667  0.70660902
   0.73333333  0.86666667  0.26837554
   0.93333333  0.46666667  0.16985794
   0.73333333  0.86666667  0.60809141
   0.73333333  0.66666667  0.60809141
   0.73333333  0.66666667  0.70660902
   0.93333333  0.46666667  0.70660902
   0.73333333  0.66666667  0.16985794
   0.93333333  0.46666667  0.60809141
   0.73333333  0.66666667  0.26837554
   0.93333333  0.26666667  0.60809141
   0.93333333  0.26666667  0.26837554
   0.73333333  0.46666667  0.60809141
   0.73333333  0.46666667  0.70660902
   0.93333333  0.66666667  0.26837554
   0.93333333  0.06666667  0.26837554
   0.93333333  0.66666667  0.16985794
   0.53333333  0.86666667  0.60809141
   0.53333333  0.06666667  0.70660902
   0.53333333  0.86666667  0.16985794
   0.33333333  0.26666667  0.16985794
   0.33333333  0.26666667  0.26837554
   0.33333333  0.06666667  0.60809141
   0.33333333  0.06666667  0.70660902
   0.33333333  0.06666667  0.16985794
   0.33333333  0.06666667  0.26837554
   0.13333333  0.86666667  0.60809141
   0.13333333  0.86666667  0.70660902
   0.13333333  0.86666667  0.16985794
   0.13333333  0.86666667  0.26837554
   0.13333333  0.66666667  0.60809141
   0.13333333  0.66666667  0.70660902
   0.33333333  0.26666667  0.70660902
   0.13333333  0.66666667  0.16985794
   0.13333333  0.46666667  0.60809141
   0.13333333  0.46666667  0.70660902
   0.13333333  0.46666667  0.16985794
   0.13333333  0.46666667  0.26837554
   0.13333333  0.26666667  0.60809141
   0.13333333  0.26666667  0.70660902
   0.13333333  0.26666667  0.16985794
   0.13333333  0.26666667  0.26837554
   0.13333333  0.06666667  0.60809141
   0.13333333  0.06666667  0.70660902
   0.13333333  0.06666667  0.16985794
   0.13333333  0.06666667  0.26837554
   0.13333333  0.66666667  0.26837554
   0.33333333  0.26666667  0.60809141
   0.33333333  0.46666667  0.26837554
   0.33333333  0.46666667  0.16985794
   0.53333333  0.86666667  0.26837554
   0.53333333  0.66666667  0.60809141
   0.53333333  0.66666667  0.70660902
   0.53333333  0.66666667  0.16985794
   0.53333333  0.66666667  0.26837554
   0.53333333  0.46666667  0.60809141
   0.53333333  0.46666667  0.70660902
   0.53333333  0.46666667  0.16985794
   0.53333333  0.46666667  0.26837554
   0.53333333  0.26666667  0.60809141
   0.53333333  0.26666667  0.70660902
   0.53333333  0.26666667  0.16985794
   0.53333333  0.26666667  0.26837554
   0.53333333  0.06666667  0.60809141
   0.93333333  0.86666667  0.70660902
   0.53333333  0.06666667  0.16985794
   0.53333333  0.06666667  0.26837554
   0.33333333  0.86666667  0.60809141
   0.33333333  0.86666667  0.70660902
   0.33333333  0.86666667  0.16985794
   0.33333333  0.86666667  0.26837554
   0.33333333  0.66666667  0.60809141
   0.33333333  0.66666667  0.70660902
   0.33333333  0.66666667  0.16985794
   0.33333333  0.66666667  0.26837554
   0.33333333  0.46666667  0.60809141
   0.33333333  0.46666667  0.70660902
   0.53333333  0.86666667  0.70660902
   0.93333333  0.86666667  0.60809141
Direct configuration=     2
   0.58387757  0.42905691  0.46453520
   0.51189834  0.40300638  0.49554523
   0.60524527  0.52025302  0.44748217
   0.54610865  0.55173077  0.46846760
   0.48796203  0.47840631  0.49826546
   0.34127073  0.28944949  0.41426159
   0.33855606  0.43331844  0.40785891
   0.30179644  0.34587059  0.43169873
   0.39947125  0.43086608  0.37623551
   0.40137766  0.34280855  0.38007383
   0.45319426  0.42207084  0.43777833
   0.43601897  0.48037678  0.51971802
   0.25103593  0.32470095  0.45742213
   0.32621472  0.21796647  0.42459659
   0.32379713  0.49243457  0.41336684
   0.44124239  0.48871382  0.35420403
   0.47855769  0.33569665  0.51326248
   0.61397565  0.38428171  0.45406751
   0.65708493  0.55875183  0.42285129
   0.54756767  0.62033187  0.46349053
   0.44384240  0.32130647  0.36087760
   0.60001656  0.59999905  0.65733434
   0.20000000  0.80000000  0.21911674
   0.20000395  0.60001010  0.65734308
   0.60000000  0.80000000  0.21911674
   0.20000000  0.60000000  0.21911674
   0.60000659  0.80001956  0.65734349
   0.20000000  0.40000000  0.21911674
   0.80000000  0.00000000  0.21911674
   0.19997407  0.19997984  0.65734300
   0.79999803  0.00000571  0.65734557
   0.20000000  0.20000000  0.21911674
   0.19999992  0.80000405  0.65734465
   0.19995892  0.39997865  0.65734135
   0.60000000  0.60000000  0.21911674
   0.40000000  0.60000000  0.21911674
   0.39998178 -0.00000575  0.65734241
   0.60000395  0.40001985  0.65733911
   0.40000000  0.20000000  0.21911674
   0.60000000  0.40000000  0.21911674
   0.39999083  0.19997578  0.65734189
   0.40000000  0.40000000  0.21911674
   0.60001099  0.19998546  0.65734097
   0.40003767  0.40000422  0.65733865
   0.60000000  0.20000000  0.21911674
   0.39999435  0.79999915  0.65734236
   0.40001188  0.60003881  0.65733914
   0.60001837  0.00000129  0.65734201
   0.40000000  0.80000000  0.21911674
   0.60000000  0.00000000  0.21911674
   0.40000000  0.00000000  0.21911674
   0.80000000  0.20000000  0.21911674
   0.19999712 -0.00000640  0.65734491
   0.20000000  0.00000000  0.21911674
   0.00000000  0.00000000  0.21911674
   0.80000327  0.79999971  0.65734671
  -0.00000314 -0.00000471  0.65733635
   0.80000000  0.80000000  0.21911674
   0.00000000  0.20000000  0.21911674
  -0.00001686  0.19999135  0.65734273
   0.80000425  0.60001173  0.65734027
   0.00000000  0.40000000  0.21911674
  -0.00000404  0.39998354  0.65734299
   0.00000000  0.60000000  0.21911674
   0.79999497  0.39999606  0.65734534
   0.00000412  0.60002528  0.65734494
   0.80000000  0.60000000  0.21911674
   0.80000000  0.40000000  0.21911674
   0.00000347  0.79999799  0.65734676
   0.00000000  0.80000000  0.21911674
   0.80000172  0.19998968  0.65734175
   0.93333333  0.06666667  0.16985794
   0.73333594  0.26666932  0.60896923
   0.73332979  0.26666417  0.70573208
   0.93333116  0.66666568  0.70573287
   0.93332739  0.66666443  0.60896858
   0.73333333  0.26666667  0.16985794
   0.73333333  0.26666667  0.26837554
   0.93333333  0.46666667  0.26837554
   0.73333593  0.06666608  0.60897109
   0.73333335  0.06666624  0.70573289
   0.93333085  0.06666556  0.70573267
   0.93333333  0.86666667  0.16985794
   0.73333333  0.06666667  0.16985794
   0.93332675  0.06666191  0.60897061
   0.73333333  0.06666667  0.26837554
   0.93333333  0.26666667  0.16985794
   0.93333250  0.26666688  0.70573389
   0.93333333  0.86666667  0.26837554
   0.73333333  0.46666667  0.26837554
   0.73333333  0.46666667  0.16985794
   0.73333333  0.86666667  0.16985794
   0.73333199  0.86666834  0.70573296
   0.73333333  0.86666667  0.26837554
   0.93333333  0.46666667  0.16985794
   0.73333458  0.86666608  0.60896795
   0.73332761  0.66665702  0.60895332
   0.73333083  0.66666426  0.70573561
   0.93333401  0.46666711  0.70573343
   0.73333333  0.66666667  0.16985794
   0.93332848  0.46666742  0.60896859
   0.73333333  0.66666667  0.26837554
   0.93332885  0.26666573  0.60896993
   0.93333333  0.26666667  0.26837554
   0.73332840  0.46667367  0.60895217
   0.73333140  0.46666677  0.70573420
   0.93333333  0.66666667  0.26837554
   0.93333333  0.06666667  0.26837554
   0.93333333  0.66666667  0.16985794
   0.53333541  0.86666753  0.60896916
   0.53333316  0.06666943  0.70573316
   0.53333333  0.86666667  0.16985794
   0.33333333  0.26666667  0.16985794
   0.33333333  0.26666667  0.26837554
   0.33333014  0.06665700  0.60896774
   0.33333309  0.06666465  0.70573409
   0.33333333  0.06666667  0.16985794
   0.33333333  0.06666667  0.26837554
   0.13332969  0.86666341  0.60897078
   0.13333305  0.86666741  0.70573245
   0.13333333  0.86666667  0.16985794
   0.13333333  0.86666667  0.26837554
   0.13332949  0.66666659  0.60897136
   0.13333181  0.66666573  0.70573225
   0.33333359  0.26666752  0.70573741
   0.13333333  0.66666667  0.16985794
   0.13332410  0.46666841  0.60896914
   0.13333185  0.46666570  0.70573382
   0.13333333  0.46666667  0.16985794
   0.13333333  0.46666667  0.26837554
   0.13332479  0.26666018  0.60896456
   0.13333397  0.26666725  0.70573473
   0.13333333  0.26666667  0.16985794
   0.13333333  0.26666667  0.26837554
   0.13332662  0.06665953  0.60896858
   0.13333368  0.06666708  0.70573357
   0.13333333  0.06666667  0.16985794
   0.13333333  0.06666667  0.26837554
   0.13333333  0.66666667  0.26837554
   0.33335120  0.26667621  0.60893686
   0.33333333  0.46666667  0.26837554
   0.33333333  0.46666667  0.16985794
   0.53333333  0.86666667  0.26837554
   0.53334197  0.66665907  0.60894639
   0.53333686  0.66666594  0.70573657
   0.53333333  0.66666667  0.16985794
   0.53333333  0.66666667  0.26837554
   0.53338185  0.46668793  0.60899018
   0.53333292  0.46666647  0.70574265
   0.53333333  0.46666667  0.16985794
   0.53333333  0.46666667  0.26837554
   0.53333386  0.26668357  0.60894461
   0.53333494  0.26666844  0.70573422
   0.53333333  0.26666667  0.16985794
   0.53333333  0.26666667  0.26837554
   0.53333397  0.06666492  0.60897020
   0.93333348  0.86666698  0.70573328
   0.53333333  0.06666667  0.16985794
   0.53333333  0.06666667  0.26837554
   0.33333258  0.86666768  0.60897200
   0.33333433  0.86666867  0.70573217
   0.33333333  0.86666667  0.16985794
   0.33333333  0.86666667  0.26837554
   0.33333165  0.66667468  0.60896610
   0.33333218  0.66666800  0.70573602
   0.33333333  0.66666667  0.16985794
   0.33333333  0.66666667  0.26837554
   0.33335586  0.46667890  0.60893805
   0.33333277  0.46666434  0.70573770
   0.53333442  0.86666622  0.70573368
   0.93332821  0.86666158  0.60896831
Direct configuration=     3
   0.58384151  0.42908775  0.46454282
   0.51186382  0.40301668  0.49552354
   0.60518016  0.52022489  0.44747745
   0.54607480  0.55164092  0.46847792
   0.48798456  0.47840362  0.49823182
   0.34131394  0.28952288  0.41425417
   0.33858930  0.43326831  0.40785993
   0.30185433  0.34590396  0.43169448
   0.39951854  0.43087558  0.37625442
   0.40135211  0.34282448  0.38009286
   0.45320986  0.42207337  0.43775792
   0.43601158  0.48036436  0.51972454
   0.25104607  0.32470484  0.45742538
   0.32621795  0.21798149  0.42460135
   0.32380639  0.49243779  0.41336806
   0.44123745  0.48869375  0.35420050
   0.47856077  0.33569986  0.51327344
   0.61397580  0.38428361  0.45406752
   0.65707756  0.55875446  0.42285509
   0.54755868  0.62031996  0.46349244
   0.44384160  0.32131490  0.36087778
   0.60002102  0.59999880  0.65733007
   0.20000000  0.80000000  0.21911674
   0.20000501  0.60001281  0.65734117
   0.60000000  0.80000000  0.21911674
   0.20000000  0.60000000  0.21911674
   0.60000836  0.80002482  0.65734168
   0.20000000  0.40000000  0.21911674
   0.80000000  0.00000000  0.21911674
   0.19996710  0.19997442  0.65734106
   0.79999750  0.00000724  0.65734432
   0.20000000  0.20000000  0.21911674
   0.19999989  0.80000514  0.65734315
   0.19994787  0.39997291  0.65733896
   0.60000000  0.60000000  0.21911674
   0.40000000  0.60000000  0.21911674
   0.39997688 -0.00000730  0.65734032
   0.60000502  0.40002519  0.65733612
   0.40000000  0.20000000  0.21911674
   0.60000000  0.40000000  0.21911674
   0.39998836  0.19996926  0.65733965
   0.40000000  0.40000000  0.21911674
   0.60001395  0.19998156  0.65733848
   0.40004780  0.40000535  0.65733554
   0.60000000  0.20000000  0.21911674
   0.39999283  0.79999893  0.65734025
   0.40001507  0.60004925  0.65733616
   0.60002331  0.00000163  0.65733980
   0.40000000  0.80000000  0.21911674
   0.60000000  0.00000000  0.21911674
   0.40000000  0.00000000  0.21911674
   0.80000000  0.20000000  0.21911674
   0.19999635 -0.00000812  0.65734348
   0.20000000  0.00000000  0.21911674
   0.00000000  0.00000000  0.21911674
   0.80000414  0.79999964  0.65734577
  -0.00000399 -0.00000597  0.65733262
   0.80000000  0.80000000  0.21911674
   0.00000000  0.20000000  0.21911674
  -0.00002140  0.19998902  0.65734072
   0.80000540  0.60001488  0.65733759
   0.00000000  0.40000000  0.21911674
  -0.00000512  0.39997911  0.65734104
   0.00000000  0.60000000  0.21911674
   0.79999362  0.39999500  0.65734403
   0.00000522  0.60003208  0.65734352
   0.80000000  0.60000000  0.21911674
   0.80000000  0.40000000  0.21911674
   0.00000440  0.79999745  0.65734583
   0.00000000  0.80000000  0.21911674
   0.80000219  0.19998691  0.65733947
   0.93333333  0.06666667  0.16985794
   0.73333664  0.26667004  0.60920535
   0.73332884  0.26666350  0.70549620
   0.93333057  0.66666541  0.70549720
   0.93332579  0.66666382  0.60920452
   0.73333333  0.26666667  0.16985794
   0.73333333  0.26666667  0.26837554
   0.93333333  0.46666667  0.26837554
   0.73333663  0.06666592  0.60920770
   0.73333335  0.06666612  0.70549723
   0.93333018  0.06666526  0.70549695
   0.93333333  0.86666667  0.16985794
   0.73333333  0.06666667  0.16985794
   0.93332498  0.06666062  0.60920710
   0.73333333  0.06666667  0.26837554
   0.93333333  0.26666667  0.16985794
   0.93333227  0.26666694  0.70549850
   0.93333333  0.86666667  0.26837554
   0.73333333  0.46666667  0.26837554
   0.73333333  0.46666667  0.16985794
   0.73333333  0.86666667  0.16985794
   0.73333163  0.86666879  0.70549731
   0.73333333  0.86666667  0.26837554
   0.93333333  0.46666667  0.16985794
   0.73333491  0.86666592  0.60920372
   0.73332608  0.66665443  0.60918515
   0.73333016  0.66666361  0.70550068
   0.93333419  0.46666723  0.70549792
   0.73333333  0.66666667  0.16985794
   0.93332718  0.46666763  0.60920453
   0.73333333  0.66666667  0.26837554
   0.93332764  0.26666548  0.60920623
   0.93333333  0.26666667  0.26837554
   0.73332708  0.46667556  0.60918369
   0.73333088  0.46666679  0.70549889
   0.93333333  0.66666667  0.26837554
   0.93333333  0.06666667  0.26837554
   0.93333333  0.66666667  0.16985794
   0.53333597  0.86666777  0.60920526
   0.53333312  0.06667017  0.70549757
   0.53333333  0.86666667  0.16985794
   0.33333333  0.26666667  0.16985794
   0.33333333  0.26666667  0.26837554
   0.33332928  0.06665439  0.60920345
   0.33333303  0.06666411  0.70549875
   0.33333333  0.06666667  0.16985794
   0.33333333  0.06666667  0.26837554
   0.13332871  0.86666253  0.60920731
   0.13333298  0.86666761  0.70549667
   0.13333333  0.86666667  0.16985794
   0.13333333  0.86666667  0.26837554
   0.13332846  0.66666657  0.60920805
   0.13333140  0.66666547  0.70549642
   0.33333365  0.26666775  0.70550297
   0.13333333  0.66666667  0.16985794
   0.13332161  0.46666888  0.60920523
   0.13333145  0.46666544  0.70549841
   0.13333333  0.46666667  0.16985794
   0.13333333  0.46666667  0.26837554
   0.13332249  0.26665843  0.60919941
   0.13333414  0.26666741  0.70549957
   0.13333333  0.26666667  0.16985794
   0.13333333  0.26666667  0.26837554
   0.13332481  0.06665761  0.60920452
   0.13333377  0.06666720  0.70549810
   0.13333333  0.06666667  0.16985794
   0.13333333  0.06666667  0.26837554
   0.13333333  0.66666667  0.26837554
   0.33335601  0.26667878  0.60916426
   0.33333333  0.46666667  0.26837554
   0.33333333  0.46666667  0.16985794
   0.53333333  0.86666667  0.26837554
   0.53334430  0.66665703  0.60917637
   0.53333780  0.66666575  0.70550190
   0.53333333  0.66666667  0.16985794
   0.53333333  0.66666667  0.26837554
   0.53339490  0.46669364  0.60923194
   0.53333281  0.46666642  0.70550961
   0.53333333  0.46666667  0.16985794
   0.53333333  0.46666667  0.26837554
   0.53333400  0.26668811  0.60917410
   0.53333538  0.26666892  0.70549892
   0.53333333  0.26666667  0.16985794
   0.53333333  0.26666667  0.26837554
   0.53333414  0.06666445  0.60920658
   0.93333353  0.86666706  0.70549772
   0.53333333  0.06666667  0.16985794
   0.53333333  0.06666667  0.26837554
   0.33333238  0.86666795  0.60920886
   0.33333460  0.86666921  0.70549631
   0.33333333  0.86666667  0.16985794
   0.33333333  0.86666667  0.26837554
   0.33333120  0.66667684  0.60920137
   0.33333187  0.66666836  0.70550120
   0.33333333  0.66666667  0.16985794
   0.33333333  0.66666667  0.26837554
   0.33336192  0.46668219  0.60916578
   0.33333262  0.46666372  0.70550334
   0.53333472  0.86666610  0.70549823
   0.93332683  0.86666021  0.60920417
Direct configuration=     4
   0.58386010  0.42907185  0.46453889
   0.51188162  0.40301137  0.49553472
   0.60521372  0.52023939  0.44747988
   0.54609225  0.55168724  0.46847260
   0.48797295  0.47840501  0.49824916
   0.34129167  0.28948505  0.41425800
   0.33857217  0.43329415  0.40785940
   0.30182449  0.34588676  0.43169667
   0.39949416  0.43087068  0.37624467
   0.40136528  0.34281627  0.38008305
   0.45320182  0.42207207  0.43776844
   0.43601539  0.48037076  0.51972118
   0.25104085  0.32470283  0.45742371
   0.32621629  0.21797375  0.42459889
   0.32380162  0.49243613  0.41336743
   0.44123999  0.48870410  0.35420232
   0.47855918  0.33569820  0.51326779
   0.61397572  0.38428263  0.45406752
   0.65708136  0.55875310  0.42285313
   0.54756331  0.62032610  0.46349145
   0.44384201  0.32131056  0.36087769
   0.60001872  0.59999893  0.65733227
   0.20000000  0.80000000  0.21911674
   0.20000447  0.60001141  0.65734215
   0.60000000  0.80000000  0.21911674
   0.20000000  0.60000000  0.21911674
   0.60000745  0.80002210  0.65734261
   0.20000000  0.40000000  0.21911674
   0.80000000  0.00000000  0.21911674
   0.19997070  0.19997721  0.65734206
   0.79999777  0.00000645  0.65734497
   0.20000000  0.20000000  0.21911674
   0.19999990  0.80000458  0.65734393
   0.19995357  0.39997587  0.65734019
   0.60000000  0.60000000  0.21911674
   0.40000000  0.60000000  0.21911674
   0.39997941 -0.00000650  0.65734140
   0.60000447  0.40002244  0.65733766
   0.40000000  0.20000000  0.21911674
   0.60000000  0.40000000  0.21911674
   0.39998963  0.19997262  0.65734080
   0.40000000  0.40000000  0.21911674
   0.60001243  0.19998357  0.65733976
   0.40004258  0.40000477  0.65733715
   0.60000000  0.20000000  0.21911674
   0.39999361  0.79999904  0.65734134
   0.40001342  0.60004387  0.65733770
   0.60002076  0.00000145  0.65734094
   0.40000000  0.80000000  0.21911674
   0.60000000  0.00000000  0.21911674
   0.40000000  0.00000000  0.21911674
   0.80000000  0.20000000  0.21911674
   0.19999674 -0.00000723  0.65734421
   0.20000000  0.00000000  0.21911674
   0.00000000  0.00000000  0.21911674
   0.80000369  0.79999968  0.65734626
  -0.00000355 -0.00000532  0.65733454
   0.80000000  0.80000000  0.21911674
   0.00000000  0.20000000  0.21911674
  -0.00001906  0.19999022  0.65734175
   0.80000481  0.60001325  0.65733897
   0.00000000  0.40000000  0.21911674
  -0.00000456  0.39998139  0.65734205
   0.00000000  0.60000000  0.21911674
   0.79999432  0.39999554  0.65734471
   0.00000465  0.60002858  0.65734425
   0.80000000  0.60000000  0.21911674
   0.80000000  0.40000000  0.21911674
   0.00000392  0.79999773  0.65734631
   0.00000000  0.80000000  0.21911674
   0.80000195  0.19998834  0.65734065
   0.93333333  0.06666667  0.16985794
   0.73333628  0.26666967  0.60908363
   0.73332933  0.26666385  0.70561779
   0.93333088  0.66666555  0.70561868
   0.93332662  0.66666414  0.60908290
   0.73333333  0.26666667  0.16985794
   0.73333333  0.26666667  0.26837554
   0.93333333  0.46666667  0.26837554
   0.73333627  0.06666600  0.60908573
   0.73333335  0.06666618  0.70561871
   0.93333052  0.06666541  0.70561846
   0.93333333  0.86666667  0.16985794
   0.73333333  0.06666667  0.16985794
   0.93332589  0.06666128  0.60908519
   0.73333333  0.06666667  0.26837554
   0.93333333  0.26666667  0.16985794
   0.93333239  0.26666691  0.70561984
   0.93333333  0.86666667  0.26837554
   0.73333333  0.46666667  0.26837554
   0.73333333  0.46666667  0.16985794
   0.73333333  0.86666667  0.16985794
   0.73333181  0.86666856  0.70561878
   0.73333333  0.86666667  0.26837554
   0.93333333  0.46666667  0.16985794
   0.73333474  0.86666600  0.60908218
   0.73332687  0.66665577  0.60906565
   0.73333051  0.66666394  0.70562179
   0.93333409  0.46666717  0.70561932
   0.73333333  0.66666667  0.16985794
   0.93332785  0.46666752  0.60908291
   0.73333333  0.66666667  0.26837554
   0.93332826  0.26666561  0.60908442
   0.93333333  0.26666667  0.26837554
   0.73332776  0.46667459  0.60906435
   0.73333115  0.46666678  0.70562019
   0.93333333  0.66666667  0.26837554
   0.93333333  0.06666667  0.26837554
   0.93333333  0.66666667  0.16985794
   0.53333568  0.86666765  0.60908355
   0.53333314  0.06666979  0.70561901
   0.53333333  0.86666667  0.16985794
   0.33333333  0.26666667  0.16985794
   0.33333333  0.26666667  0.26837554
   0.33332972  0.06665574  0.60908195
   0.33333306  0.06666439  0.70562007
   0.33333333  0.06666667  0.16985794
   0.33333333  0.06666667  0.26837554
   0.13332921  0.86666298  0.60908538
   0.13333302  0.86666750  0.70561821
   0.13333333  0.86666667  0.16985794
   0.13333333  0.86666667  0.26837554
   0.13332899  0.66666658  0.60908604
   0.13333161  0.66666560  0.70561799
   0.33333362  0.26666764  0.70562382
   0.13333333  0.66666667  0.16985794
   0.13332289  0.46666864  0.60908353
   0.13333166  0.46666558  0.70561976
   0.13333333  0.46666667  0.16985794
   0.13333333  0.46666667  0.26837554
   0.13332367  0.26665933  0.60907835
   0.13333405  0.26666733  0.70562079
   0.13333333  0.26666667  0.16985794
   0.13333333  0.26666667  0.26837554
   0.13332574  0.06665860  0.60908290
   0.13333372  0.06666714  0.70561948
   0.13333333  0.06666667  0.16985794
   0.13333333  0.06666667  0.26837554
   0.13333333  0.66666667  0.26837554
   0.33335353  0.26667745  0.60904704
   0.33333333  0.46666667  0.26837554
   0.33333333  0.46666667  0.16985794
   0.53333333  0.86666667  0.26837554
   0.53334310  0.66665808  0.60905782
   0.53333732  0.66666585  0.70562287
   0.53333333  0.66666667  0.16985794
   0.53333333  0.66666667  0.26837554
   0.53338818  0.46669070  0.60910732
   0.53333286  0.46666645  0.70562974
   0.53333333  0.46666667  0.16985794
   0.53333333  0.46666667  0.26837554
   0.53333392  0.26668577  0.60905580
   0.53333515  0.26666867  0.70562021
   0.53333333  0.26666667  0.16985794
   0.53333333  0.26666667  0.26837554
   0.53333405  0.06666470  0.60908473
   0.93333350  0.86666702  0.70561915
   0.53333333  0.06666667  0.16985794
   0.53333333  0.06666667  0.26837554
   0.33333248  0.86666781  0.60908677
   0.33333447  0.86666893  0.70561789
   0.33333333  0.86666667  0.16985794
   0.33333333  0.86666667  0.26837554
   0.33333143  0.66667573  0.60908009
   0.33333203  0.66666817  0.70562224
   0.33333333  0.66666667  0.16985794
   0.33333333  0.66666667  0.26837554
   0.33335880  0.46668050  0.60904839
   0.33333269  0.46666404  0.70562415
   0.53333456  0.86666616  0.70561960
   0.93332754  0.86666092  0.60908259
Direct configuration=     5
   0.58439182  0.42856978  0.46442485
   0.51173990  0.40238316  0.49574407
   0.60579179  0.52049291  0.44734771
   0.54641039  0.55311435  0.46831548
   0.48702609  0.47815303  0.49872354
   0.34085273  0.28842754  0.41441554
   0.33840247  0.43431699  0.40784480
   0.30122313  0.34552936  0.43192474
   0.39956791  0.43108896  0.37605674
   0.40194464  0.34266163  0.37969337
   0.45318819  0.42204906  0.43780605
   0.43630183  0.48034186  0.51959143
   0.25127107  0.32481402  0.45734374
   0.32632775  0.21836224  0.42455050
   0.32392576  0.49207901  0.41333219
   0.44123712  0.48862492  0.35420331
   0.47864812  0.33592948  0.51322315
   0.61379999  0.38454570  0.45412509
   0.65693358  0.55868788  0.42290269
   0.54749043  0.61983380  0.46353866
   0.44364913  0.32139495  0.36095313
   0.60000482  0.59999607  0.65735129
   0.20000000  0.80000000  0.21911674
   0.20000842  0.59999983  0.65735125
   0.60000000  0.80000000  0.21911674
   0.20000000  0.60000000  0.21911674
   0.59999528  0.79998983  0.65734953
   0.20000000  0.40000000  0.21911674
   0.80000000  0.00000000  0.21911674
   0.20001218  0.20001459  0.65734383
   0.79999980  0.00000130  0.65735534
   0.20000000  0.20000000  0.21911674
   0.20000103  0.80000365  0.65735256
   0.20000616  0.39999133  0.65734238
   0.60000000  0.60000000  0.21911674
   0.40000000  0.60000000  0.21911674
   0.39999032  0.00000123  0.65735171
   0.59999553  0.40000935  0.65735489
   0.40000000  0.20000000  0.21911674
   0.60000000  0.40000000  0.21911674
   0.40000179  0.20000528  0.65733598
   0.40000000  0.40000000  0.21911674
   0.59999663  0.20000787  0.65734577
   0.40003655  0.40001028  0.65733871
   0.60000000  0.20000000  0.21911674
   0.40000295  0.80000085  0.65735163
   0.40001975  0.60001021  0.65733670
   0.60001047 -0.00000494  0.65735280
   0.40000000  0.80000000  0.21911674
   0.60000000  0.00000000  0.21911674
   0.40000000  0.00000000  0.21911674
   0.80000000  0.20000000  0.21911674
   0.20000248  0.00000650  0.65735206
   0.20000000  0.00000000  0.21911674
   0.00000000  0.00000000  0.21911674
   0.79998804  0.79998287  0.65735302
  -0.00000438 -0.00000500  0.65734695
   0.80000000  0.80000000  0.21911674
   0.00000000  0.20000000  0.21911674
  -0.00000876  0.19999417  0.65735332
   0.79998266  0.60000117  0.65734277
   0.00000000  0.40000000  0.21911674
  -0.00000649  0.39998740  0.65735291
   0.00000000  0.60000000  0.21911674
   0.79998102  0.39999926  0.65735134
  -0.00000162  0.60001366  0.65735247
   0.80000000  0.60000000  0.21911674
   0.80000000  0.40000000  0.21911674
  -0.00000500  0.79999819  0.65735407
   0.00000000  0.80000000  0.21911674
   0.80000453  0.19999361  0.65735150
   0.93333333  0.06666667  0.16985794
   0.73333952  0.26667179  0.60914431
   0.73332888  0.26665787  0.70554204
   0.93332682  0.66666861  0.70554722
   0.93332278  0.66666879  0.60914292
   0.73333333  0.26666667  0.16985794
   0.73333333  0.26666667  0.26837554
   0.93333333  0.46666667  0.26837554
   0.73334140  0.06666621  0.60914394
   0.73333654  0.06666873  0.70554778
   0.93333193  0.06666324  0.70554337
   0.93333333  0.86666667  0.16985794
   0.73333333  0.06666667  0.16985794
   0.93332065  0.06665879  0.60914467
   0.73333333  0.06666667  0.26837554
   0.93333333  0.26666667  0.16985794
   0.93332769  0.26665949  0.70554650
   0.93333333  0.86666667  0.26837554
   0.73333333  0.46666667  0.26837554
   0.73333333  0.46666667  0.16985794
   0.73333333  0.86666667  0.16985794
   0.73333107  0.86666916  0.70554444
   0.73333333  0.86666667  0.26837554
   0.93333333  0.46666667  0.16985794
   0.73333531  0.86666255  0.60914410