  93  93   0   0
  0.3967126E+02  0.9570947E-09  0.1276126E-08  0.3488026E-08  0.5000000E-15
  1.000000000000000E-004
  CAR 
 basalPlane                              
      2.53021114    -20.67926449  301      0.27390587      1.00000000
    -20.679  0.0000E+00  0.0000E+00
    -20.602  0.0000E+00  0.0000E+00
    -20.525  0.0000E+00  0.0000E+00
    -20.447  0.0000E+00  0.0000E+00
    -20.370  0.0000E+00  0.0000E+00
    -20.292  0.0000E+00  0.0000E+00
    -20.215  0.1435E-18  0.1110E-19
    -20.138  0.4970E-15  0.3846E-16
    -20.060  0.9004E-12  0.6970E-13
    -19.983  0.5061E-09  0.3923E-10
    -19.906  0.8911E-07  0.6933E-08
    -19.828  0.4978E-05  0.3921E-06
    -19.751  0.8980E-04  0.7340E-05
    -19.674  0.5337E-03  0.4863E-04
    -19.596  0.1064E-02  0.1309E-03
    -19.519  0.7174E-03  0.1864E-03
    -19.441  0.1635E-03  0.1991E-03
    -19.364  0.3353E-04  0.2017E-03
    -19.287  0.2315E-03  0.2196E-03
    -19.209  0.8352E-03  0.2842E-03
    -19.132  0.1017E-02  0.3629E-03
    -19.055  0.4190E-03  0.3953E-03
    -18.977  0.5773E-04  0.3998E-03
    -18.900  0.2611E-05  0.4000E-03
    -18.823  0.3799E-07  0.4000E-03
    -18.745  0.1749E-09  0.4000E-03
    -18.668  0.2518E-12  0.4000E-03
    -18.590  0.1125E-15  0.4000E-03
    -18.513  0.0000E+00  0.4000E-03
    -18.436  0.0000E+00  0.4000E-03
    -18.358  0.0000E+00  0.4000E-03
    -18.281  0.0000E+00  0.4000E-03
    -18.204  0.0000E+00  0.4000E-03
    -18.126  0.0000E+00  0.4000E-03
    -18.049  0.0000E+00  0.4000E-03
    -17.971  0.0000E+00  0.4000E-03
    -17.894  0.0000E+00  0.4000E-03
    -17.817  0.0000E+00  0.4000E-03
    -17.739  0.0000E+00  0.4000E-03
    -17.662  0.0000E+00  0.4000E-03
    -17.585  0.0000E+00  0.4000E-03
    -17.507  0.0000E+00  0.4000E-03
    -17.430  0.0000E+00  0.4000E-03
    -17.353  0.0000E+00  0.4000E-03
    -17.275  0.0000E+00  0.4000E-03
    -17.198  0.0000E+00  0.4000E-03
    -17.120  0.0000E+00  0.4000E-03
    -17.043  0.0000E+00  0.4000E-03
    -16.966  0.0000E+00  0.4000E-03
    -16.888  0.0000E+00  0.4000E-03
    -16.811  0.0000E+00  0.4000E-03
    -16.734  0.0000E+00  0.4000E-03
    -16.656  0.0000E+00  0.4000E-03
    -16.579  0.0000E+00  0.4000E-03
    -16.502  0.0000E+00  0.4000E-03
    -16.424  0.0000E+00  0.4000E-03
    -16.347  0.0000E+00  0.4000E-03
    -16.269  0.0000E+00  0.4000E-03
    -16.192  0.1292E-17  0.4000E-03
    -16.115  0.5180E-14  0.4000E-03
    -16.037  0.6643E-11  0.4000E-03
    -15.960  0.2657E-08  0.4000E-03
    -15.883  0.3364E-06  0.4000E-03
    -15.805  0.1382E-04  0.4011E-03
    -15.728  0.1922E-03  0.4160E-03
    -15.651  0.9660E-03  0.4907E-03
    -15.573  0.1898E-02  0.6375E-03
    -15.496  0.1534E-02  0.7562E-03
    -15.418  0.5016E-03  0.7950E-03
    -15.341  0.6171E-04  0.7998E-03
    -15.264  0.2653E-05  0.8000E-03
    -15.186  0.4088E-06  0.8000E-03
    -15.109  0.2044E-04  0.8016E-03
    -15.032  0.3711E-03  0.8303E-03
    -14.954  0.2336E-02  0.1011E-02
    -14.877  0.5681E-02  0.1451E-02
    -14.800  0.6548E-02  0.1957E-02
    -14.722  0.4246E-02  0.2286E-02
    -14.645  0.1868E-02  0.2430E-02
    -14.567  0.2500E-02  0.2624E-02
    -14.490  0.4387E-02  0.2963E-02
    -14.413  0.5283E-02  0.3372E-02
    -14.335  0.6335E-02  0.3862E-02
    -14.258  0.4991E-02  0.4248E-02
    -14.181  0.1783E-02  0.4386E-02
    -14.103  0.8417E-03  0.4451E-02
    -14.026  0.2712E-02  0.4661E-02
    -13.949  0.6006E-02  0.5125E-02
    -13.871  0.1025E-01  0.5918E-02
    -13.794  0.1361E-01  0.6971E-02
    -13.716  0.1105E-01  0.7826E-02
    -13.639  0.7681E-02  0.8421E-02
    -13.562  0.8575E-02  0.9084E-02
    -13.484  0.9431E-02  0.9814E-02
    -13.407  0.7513E-02  0.1039E-01
    -13.330  0.3992E-02  0.1070E-01
    -13.252  0.1111E-02  0.1079E-01
    -13.175  0.1277E-03  0.1080E-01
    -13.098  0.5280E-05  0.1080E-01
    -13.020  0.7316E-07  0.1080E-01
    -12.943  0.3267E-09  0.1080E-01
    -12.865  0.4599E-12  0.1080E-01
    -12.788  0.2015E-15  0.1080E-01
    -12.711  0.0000E+00  0.1080E-01
    -12.633  0.0000E+00  0.1080E-01
    -12.556  0.0000E+00  0.1080E-01
    -12.479  0.0000E+00  0.1080E-01
    -12.401  0.0000E+00  0.1080E-01
    -12.324  0.0000E+00  0.1080E-01
    -12.246  0.0000E+00  0.1080E-01
    -12.169  0.0000E+00  0.1080E-01
    -12.092  0.0000E+00  0.1080E-01
    -12.014  0.0000E+00  0.1080E-01
    -11.937  0.0000E+00  0.1080E-01
    -11.860  0.0000E+00  0.1080E-01
    -11.782  0.0000E+00  0.1080E-01
    -11.705  0.0000E+00  0.1080E-01
    -11.628  0.0000E+00  0.1080E-01
    -11.550  0.0000E+00  0.1080E-01
    -11.473  0.0000E+00  0.1080E-01
    -11.395  0.0000E+00  0.1080E-01
    -11.318  0.0000E+00  0.1080E-01
    -11.241  0.3817E-16  0.1080E-01
    -11.163  0.9954E-13  0.1080E-01
    -11.086  0.8052E-10  0.1080E-01
    -11.009  0.2039E-07  0.1080E-01
    -10.931  0.1644E-05  0.1080E-01
    -10.854  0.4347E-04  0.1080E-01
    -10.777  0.3968E-03  0.1083E-01
    -10.699  0.1360E-02  0.1094E-01
    -10.622  0.1966E-02  0.1109E-01
    -10.544  0.1673E-02  0.1122E-01
    -10.467  0.2209E-02  0.1139E-01
    -10.390  0.2965E-02  0.1162E-01
    -10.312  0.1834E-02  0.1176E-01
    -10.235  0.4762E-03  0.1180E-01
    -10.158  0.3595E-03  0.1183E-01
    -10.080  0.9440E-03  0.1190E-01
    -10.003  0.9342E-03  0.1197E-01
     -9.926  0.3126E-03  0.1200E-01
     -9.848  0.3488E-04  0.1200E-01
     -9.771  0.1272E-05  0.1200E-01
     -9.693  0.1488E-07  0.1200E-01
     -9.616  0.5495E-10  0.1200E-01
     -9.539  0.6330E-13  0.1200E-01
     -9.461  0.2239E-16  0.1200E-01
     -9.384  0.0000E+00  0.1200E-01
     -9.307  0.0000E+00  0.1200E-01
     -9.229  0.0000E+00  0.1200E-01
     -9.152  0.0000E+00  0.1200E-01
     -9.075  0.0000E+00  0.1200E-01
     -8.997  0.0000E+00  0.1200E-01
     -8.920  0.0000E+00  0.1200E-01
     -8.842  0.0000E+00  0.1200E-01
     -8.765  0.0000E+00  0.1200E-01
     -8.688  0.0000E+00  0.1200E-01
     -8.610  0.0000E+00  0.1200E-01
     -8.533  0.0000E+00  0.1200E-01
     -8.456  0.0000E+00  0.1200E-01
     -8.378  0.0000E+00  0.1200E-01
     -8.301  0.1435E-18  0.1200E-01
     -8.224  0.7287E-15  0.1200E-01
     -8.146  0.1249E-11  0.1200E-01
     -8.069  0.6641E-09  0.1200E-01
     -7.991  0.1107E-06  0.1200E-01
     -7.914  0.5858E-05  0.1200E-01
     -7.837  0.1002E-03  0.1201E-01
     -7.759  0.5652E-03  0.1205E-01
     -7.682  0.1070E-02  0.1213E-01
     -7.605  0.6855E-03  0.1219E-01
     -7.527  0.1542E-03  0.1220E-01
     -7.450  0.1376E-03  0.1221E-01
     -7.372  0.9330E-03  0.1228E-01
     -7.295  0.2946E-02  0.1251E-01
     -7.218  0.4571E-02  0.1286E-01
     -7.140  0.3671E-02  0.1315E-01
     -7.063  0.2277E-02  0.1332E-01
     -6.986  0.2299E-02  0.1350E-01
     -6.908  0.3247E-02  0.1375E-01
     -6.831  0.6473E-02  0.1425E-01
     -6.754  0.1086E-01  0.1509E-01
     -6.676  0.1040E-01  0.1590E-01
     -6.599  0.7639E-02  0.1649E-01
     -6.521  0.1067E-01  0.1732E-01
     -6.444  0.1486E-01  0.1847E-01
     -6.367  0.1370E-01  0.1952E-01
     -6.289  0.9885E-02  0.2029E-01
     -6.212  0.5073E-02  0.2068E-01
     -6.135  0.1362E-02  0.2079E-01
     -6.057  0.1563E-03  0.2080E-01
     -5.980  0.6924E-05  0.2080E-01
     -5.903  0.7883E-05  0.2080E-01
     -5.825  0.1687E-03  0.2081E-01
     -5.748  0.1331E-02  0.2092E-01
     -5.670  0.4110E-02  0.2123E-01
     -5.593  0.5538E-02  0.2166E-01
     -5.516  0.5083E-02  0.2206E-01
     -5.438  0.9834E-02  0.2282E-01
     -5.361  0.2002E-01  0.2437E-01
     -5.284  0.2041E-01  0.2594E-01
     -5.206  0.9381E-02  0.2667E-01
     -5.129  0.2955E-02  0.2690E-01
     -5.052  0.3567E-02  0.2717E-01
     -4.974  0.3722E-02  0.2746E-01
     -4.897  0.1824E-02  0.2760E-01
     -4.819  0.2482E-02  0.2780E-01
     -4.742  0.7175E-02  0.2835E-01
     -4.665  0.1012E-01  0.2913E-01
     -4.587  0.8170E-02  0.2977E-01
     -4.510  0.7567E-02  0.3035E-01
     -4.433  0.8933E-02  0.3104E-01
     -4.355  0.9270E-02  0.3176E-01
     -4.278  0.6424E-02  0.3226E-01
     -4.201  0.3699E-02  0.3254E-01
     -4.123  0.4874E-02  0.3292E-01
     -4.046  0.6384E-02  0.3341E-01
     -3.968  0.6304E-02  0.3390E-01
     -3.891  0.5584E-02  0.3433E-01
     -3.814  0.4242E-02  0.3466E-01
     -3.736  0.2643E-02  0.3487E-01
     -3.659  0.2433E-02  0.3505E-01
     -3.582  0.2200E-02  0.3522E-01
     -3.504  0.3081E-02  0.3546E-01
     -3.427  0.5490E-02  0.3589E-01
     -3.350  0.8981E-02  0.3658E-01
     -3.272  0.1369E-01  0.3764E-01
     -3.195  0.1438E-01  0.3875E-01
     -3.117  0.1098E-01  0.3960E-01
     -3.040  0.8332E-02  0.4025E-01
     -2.963  0.7323E-02  0.4082E-01
     -2.885  0.8827E-02  0.4150E-01
     -2.808  0.1097E-01  0.4235E-01
     -2.731  0.8881E-02  0.4303E-01
     -2.653  0.4236E-02  0.4336E-01
     -2.576  0.3253E-02  0.4361E-01
     -2.499  0.6772E-02  0.4414E-01
     -2.421  0.8826E-02  0.4482E-01
     -2.344  0.7427E-02  0.4539E-01
     -2.266  0.5224E-02  0.4580E-01
     -2.189  0.5126E-02  0.4620E-01
     -2.112  0.6127E-02  0.4667E-01
     -2.034  0.5611E-02  0.4710E-01
     -1.957  0.5052E-02  0.4749E-01
     -1.880  0.3116E-02  0.4774E-01
     -1.802  0.1379E-02  0.4784E-01
     -1.725  0.2607E-02  0.4804E-01
     -1.647  0.4148E-02  0.4836E-01
     -1.570  0.2961E-02  0.4859E-01
     -1.493  0.2170E-02  0.4876E-01
     -1.415  0.2033E-02  0.4892E-01
     -1.338  0.8947E-03  0.4899E-01
     -1.261  0.1439E-03  0.4900E-01
     -1.183  0.8062E-05  0.4900E-01
     -1.106  0.1518E-06  0.4900E-01
     -1.029  0.9310E-09  0.4900E-01
     -0.951  0.1819E-11  0.4900E-01
     -0.874  0.1114E-14  0.4900E-01
     -0.796  0.0000E+00  0.4900E-01
     -0.719  0.0000E+00  0.4900E-01
     -0.642  0.0000E+00  0.4900E-01
     -0.564  0.0000E+00  0.4900E-01
     -0.487  0.0000E+00  0.4900E-01
     -0.410  0.0000E+00  0.4900E-01
     -0.332  0.0000E+00  0.4900E-01
     -0.255  0.0000E+00  0.4900E-01
     -0.178  0.2452E-15  0.4900E-01
     -0.100  0.5542E-12  0.4900E-01
     -0.023  0.3973E-09  0.4900E-01
      0.055  0.9164E-07  0.4900E-01
      0.132  0.6938E-05  0.4900E-01
      0.209  0.1770E-03  0.4901E-01
      0.287  0.1570E-02  0.4914E-01
      0.364  0.5022E-02  0.4952E-01
      0.441  0.6287E-02  0.5001E-01
      0.519  0.4998E-02  0.5040E-01
      0.596  0.7133E-02  0.5095E-01
      0.673  0.1296E-01  0.5195E-01
      0.751  0.1654E-01  0.5323E-01
      0.828  0.1450E-01  0.5435E-01
      0.906  0.1272E-01  0.5534E-01
      0.983  0.8179E-02  0.5597E-01
      1.060  0.2828E-02  0.5619E-01
      1.138  0.2196E-02  0.5636E-01
      1.215  0.6427E-02  0.5686E-01
      1.292  0.1086E-01  0.5770E-01
      1.370  0.1145E-01  0.5858E-01
      1.447  0.9708E-02  0.5933E-01
      1.524  0.6197E-02  0.5981E-01
      1.602  0.2119E-02  0.5998E-01
      1.679  0.2990E-03  0.6000E-01
      1.757  0.1521E-04  0.6000E-01
      1.834  0.2601E-06  0.6000E-01
      1.911  0.1437E-08  0.6000E-01
      1.989  0.2508E-11  0.6000E-01
      2.066  0.1364E-14  0.6000E-01
      2.143  0.0000E+00  0.6000E-01
      2.221  0.0000E+00  0.6000E-01
      2.298  0.0000E+00  0.6000E-01
      2.375  0.0000E+00  0.6000E-01
      2.453  0.0000E+00  0.6000E-01
      2.530  0.0000E+00  0.6000E-01
