       N       E                     dE             d eps       ncg     rms          rms(c)
DAV:   1     0.436769267309E+04    0.43677E+04   -0.18211E+05   612   0.112E+03
DAV:   2    -0.169447942238E+02   -0.43846E+04   -0.42337E+04   972   0.266E+02
DAV:   3    -0.676452016377E+03   -0.65951E+03   -0.65131E+03   708   0.113E+02
DAV:   4    -0.709387474504E+03   -0.32935E+02   -0.32754E+02   804   0.276E+01
DAV:   5    -0.710679144884E+03   -0.12917E+01   -0.12854E+01   864   0.588E+00    0.123E+02
DAV:   6    -0.690473469364E+03    0.20206E+02   -0.56762E+02   792   0.371E+01    0.766E+01
DAV:   7    -0.711978197487E+03   -0.21505E+02   -0.31470E+02   828   0.536E+01    0.635E+01
DAV:   8    -0.740789196465E+03   -0.28811E+02   -0.23523E+02   852   0.200E+01    0.678E+01
DAV:   9    -0.771079091993E+03   -0.30290E+02   -0.92474E+02   792   0.166E+01    0.789E+01
DAV:  10    -0.684612867483E+03    0.86466E+02   -0.26309E+02   840   0.157E+01    0.333E+01
DAV:  11    -0.661056146316E+03    0.23557E+02   -0.76813E+01   864   0.174E+01    0.242E+01
DAV:  12    -0.658544653379E+03    0.25115E+01   -0.54919E+01   864   0.103E+01    0.251E+01
DAV:  13    -0.658956038899E+03   -0.41139E+00   -0.33555E+00   816   0.209E+00    0.247E+01
DAV:  14    -0.659204688706E+03   -0.24865E+00   -0.25852E-01   900   0.105E+00    0.235E+01
DAV:  15    -0.659229669724E+03   -0.24981E-01   -0.56833E-02   816   0.336E-01    0.231E+01
DAV:  16    -0.659882325090E+03   -0.65266E+00   -0.22147E+00   888   0.189E+00    0.172E+01
DAV:  17    -0.659333779921E+03    0.54855E+00   -0.10859E+01   852   0.233E+00    0.190E+01
DAV:  18    -0.658495826118E+03    0.83795E+00   -0.19595E+00   864   0.322E+00    0.190E+01
DAV:  19    -0.659627563074E+03   -0.11317E+01   -0.49305E+00   876   0.324E+00    0.329E+01
DAV:  20    -0.658861461451E+03    0.76610E+00   -0.22249E+01   888   0.220E+00    0.209E+01
DAV:  21    -0.658202189570E+03    0.65927E+00   -0.38134E+00   840   0.126E+00    0.185E+01
DAV:  22    -0.658036563994E+03    0.16563E+00   -0.82139E-02   852   0.404E-01    0.181E+01
DAV:  23    -0.657479933049E+03    0.55663E+00   -0.26024E-01   852   0.693E-01    0.140E+01
DAV:  24    -0.657028494181E+03    0.45144E+00   -0.47154E+00   852   0.165E+00    0.713E+00
DAV:  25    -0.657178528926E+03   -0.15003E+00   -0.24391E-01   804   0.793E-01    0.793E+00
DAV:  26    -0.657228859188E+03   -0.50330E-01   -0.22671E-02   840   0.252E-01    0.821E+00
DAV:  27    -0.657138174298E+03    0.90685E-01   -0.28655E-02   864   0.314E-01    0.723E+00
DAV:  28    -0.656910980999E+03    0.22719E+00   -0.17324E-01   816   0.669E-01    0.487E+00
DAV:  29    -0.656833563372E+03    0.77418E-01   -0.63743E-02   804   0.382E-01    0.413E+00
DAV:  30    -0.656773117802E+03    0.60446E-01   -0.12374E-02   816   0.188E-01    0.393E+00
DAV:  31    -0.656651523349E+03    0.12159E+00   -0.17704E-02   792   0.240E-01    0.340E+00
DAV:  32    -0.656578844713E+03    0.72679E-01   -0.66271E-03   840   0.189E-01    0.317E+00
DAV:  33    -0.656556750838E+03    0.22094E-01   -0.16265E-03   816   0.746E-02    0.316E+00
DAV:  34    -0.656537099012E+03    0.19652E-01   -0.69538E-04   768   0.513E-02    0.317E+00
DAV:  35    -0.656424279991E+03    0.11282E+00   -0.20048E-02   828   0.174E-01    0.230E+00
DAV:  36    -0.656397906553E+03    0.26373E-01   -0.70542E-01   864   0.220E-01    0.312E+00
DAV:  37    -0.656386292294E+03    0.11614E-01   -0.38192E-03   780   0.158E-01    0.177E+00
DAV:  38    -0.656377135576E+03    0.91567E-02   -0.14997E-03   756   0.914E-02    0.142E+00
DAV:  39    -0.656372587152E+03    0.45484E-02   -0.66463E-02   888   0.189E-01    0.180E+00
DAV:  40    -0.656374610136E+03   -0.20230E-02   -0.37979E-03   756   0.850E-02    0.187E+00
DAV:  41    -0.656374006142E+03    0.60399E-03   -0.24043E-04   612   0.212E-02    0.187E+00
DAV:  42    -0.656374643527E+03   -0.63738E-03   -0.45856E-03   684   0.557E-02    0.212E+00
DAV:  43    -0.656353940118E+03    0.20703E-01   -0.41202E-01   780   0.100E-01    0.852E-01
DAV:  44    -0.656355247928E+03   -0.13078E-02   -0.10795E-03   660   0.807E-02    0.937E-01
DAV:  45    -0.656366250462E+03   -0.11003E-01   -0.94939E-03   768   0.959E-02    0.148E+00
DAV:  46    -0.656370718487E+03   -0.44680E-02   -0.29336E-03   732   0.676E-02    0.935E-01
DAV:  47    -0.656378266268E+03   -0.75478E-02   -0.11116E-02   792   0.801E-02    0.646E-01
DAV:  48    -0.656388116552E+03   -0.98503E-02   -0.86295E-03   804   0.857E-02    0.741E-01
DAV:  49    -0.656397606325E+03   -0.94898E-02   -0.40470E-03   780   0.874E-02    0.125E+00
DAV:  50    -0.656400921968E+03   -0.33156E-02   -0.67488E-04   588   0.398E-02    0.153E+00
DAV:  51    -0.656393843532E+03    0.70784E-02   -0.13944E-03   576   0.488E-02    0.106E+00
DAV:  52    -0.656391522432E+03    0.23211E-02   -0.37177E-04   564   0.240E-02    0.115E+00
DAV:  53    -0.656390020959E+03    0.15015E-02   -0.11881E-04   456   0.185E-02    0.119E+00
DAV:  54    -0.656385321166E+03    0.46998E-02   -0.50668E-04   672   0.319E-02    0.993E-01
DAV:  55    -0.656380083745E+03    0.52374E-02   -0.13988E-03   720   0.541E-02    0.626E-01
DAV:  56    -0.656375528988E+03    0.45548E-02   -0.12171E-01   816   0.164E-01    0.184E+00
DAV:  57    -0.656367672516E+03    0.78565E-02   -0.59478E-03   672   0.705E-02    0.116E+00
DAV:  58    -0.656364210415E+03    0.34621E-02   -0.91329E-04   672   0.404E-02    0.105E+00
DAV:  59    -0.656364164966E+03    0.45449E-04   -0.22053E-04   528   0.199E-02
   1 F= -.67152826E+03 E0= -.67146953E+03  d E =-.671528E+03
       N       E                     dE             d eps       ncg     rms          rms(c)
DAV:   1    -0.656387331865E+03   -0.23121E-01   -0.14153E+01   624   0.571E+00    0.337E+00
DAV:   2    -0.656993422886E+03   -0.60609E+00   -0.63212E+00   804   0.331E+00    0.693E+00
DAV:   3    -0.656545407440E+03    0.44802E+00   -0.25464E+00   804   0.341E+00    0.444E+00
DAV:   4    -0.656518421506E+03    0.26986E-01   -0.45084E+00   792   0.118E+00    0.342E+00
DAV:   5    -0.656441932413E+03    0.76489E-01   -0.10715E-01   780   0.598E-01    0.964E-01
DAV:   6    -0.656447601002E+03   -0.56686E-02   -0.12574E-01   768   0.425E-01    0.283E+00
DAV:   7    -0.656430304234E+03    0.17297E-01   -0.50291E-01   840   0.406E-01    0.201E+00
DAV:   8    -0.656437563797E+03   -0.72596E-02   -0.19975E-01   780   0.228E-01    0.260E+00
DAV:   9    -0.656442097725E+03   -0.45339E-02   -0.30953E-01   828   0.180E-01    0.278E+00
DAV:  10    -0.656419315679E+03    0.22782E-01   -0.88786E-03   804   0.148E-01    0.143E+00
DAV:  11    -0.656412718626E+03    0.65971E-02   -0.31542E-02   852   0.989E-02    0.419E-01
DAV:  12    -0.656412790206E+03   -0.71580E-04   -0.20341E-03   708   0.549E-02    0.137E-01
DAV:  13    -0.656413102778E+03   -0.31257E-03   -0.19234E-04   492   0.210E-02    0.189E-01
DAV:  14    -0.656413124365E+03   -0.21587E-04   -0.62367E-05   372   0.136E-02
   2 F= -.67160013E+03 E0= -.67153778E+03  d E =-.718719E-01
       N       E                     dE             d eps       ncg     rms          rms(c)
DAV:   1    -0.656415886232E+03   -0.27835E-02   -0.20313E-01   624   0.684E-01    0.410E-01
DAV:   2    -0.656453418388E+03   -0.37532E-01   -0.37907E-01   816   0.417E-01    0.327E+00
DAV:   3    -0.656419508307E+03    0.33910E-01   -0.35706E-01   840   0.415E-01    0.902E-01
DAV:   4    -0.656417596475E+03    0.19118E-02   -0.10693E-02   768   0.108E-01    0.590E-01
DAV:   5    -0.656416991123E+03    0.60535E-03   -0.15318E-03   744   0.642E-02    0.252E-01
DAV:   6    -0.656416557232E+03    0.43389E-03   -0.31675E-03   732   0.612E-02    0.139E-01
DAV:   7    -0.656416730637E+03   -0.17341E-03   -0.75773E-04   600   0.519E-02    0.402E-01
DAV:   8    -0.656416589425E+03    0.14121E-03   -0.97465E-05   408   0.174E-02    0.342E-01
DAV:   9    -0.656416390933E+03    0.19849E-03   -0.11918E-04   360   0.153E-02    0.192E-01
DAV:  10    -0.656416350005E+03    0.40928E-04   -0.71937E-05   372   0.111E-02
   3 F= -.67160053E+03 E0= -.67153869E+03  d E =-.722716E-01
       N       E                     dE             d eps       ncg     rms          rms(c)
DAV:   1    -0.656415481677E+03    0.90926E-03   -0.24869E-02   624   0.239E-01    0.107E-01
DAV:   2    -0.656415680599E+03   -0.19892E-03   -0.13168E-03   708   0.576E-02    0.200E-01
DAV:   3    -0.656416375674E+03   -0.69507E-03   -0.50715E-03   504   0.639E-02    0.588E-01
DAV:   4    -0.656415597282E+03    0.77839E-03   -0.34527E-03   456   0.499E-02    0.926E-02
DAV:   5    -0.656415806223E+03   -0.20894E-03   -0.16208E-04   408   0.264E-02    0.174E-01
DAV:   6    -0.656415678694E+03    0.12753E-03   -0.25336E-04   360   0.240E-02    0.185E-01
DAV:   7    -0.656415625221E+03    0.53473E-04   -0.83106E-05   336   0.118E-02
   4 F= -.67160079E+03 E0= -.67153842E+03  d E =-.725313E-01
       N       E                     dE             d eps       ncg     rms          rms(c)
DAV:   1    -0.656399122431E+03    0.16556E-01   -0.28532E+00   600   0.237E+00    0.979E-01
DAV:   2    -0.656511990433E+03   -0.11287E+00   -0.29714E-01   852   0.943E-01    0.388E+00
DAV:   3    -0.656414281116E+03    0.97709E-01   -0.38878E-01   852   0.993E-01    0.159E+00
DAV:   4    -0.656418059846E+03   -0.37787E-02   -0.27529E-01   828   0.311E-01    0.189E+00
DAV:   5    -0.656406139912E+03    0.11920E-01   -0.20522E-02   804   0.165E-01    0.554E-01
DAV:   6    -0.656409447284E+03   -0.33074E-02   -0.67209E-02   816   0.165E-01    0.124E+00
DAV:   7    -0.656408464864E+03    0.98242E-03   -0.32247E-03   720   0.740E-02    0.121E+00
DAV:   8    -0.656408412141E+03    0.52723E-04   -0.19361E-04   444   0.213E-02
   5 F= -.67160180E+03 E0= -.67153795E+03  d E =-.101681E-02
       N       E                     dE             d eps       ncg     rms          rms(c)
DAV:   1    -0.656419049775E+03   -0.10585E-01   -0.61622E-01   600   0.110E+00    0.125E+00
DAV:   2    -0.656744979357E+03   -0.32593E+00   -0.11456E+00   876   0.165E+00    0.540E+00
DAV:   3    -0.656425091629E+03    0.31989E+00   -0.51167E-01   852   0.192E+00    0.128E+00
DAV:   4    -0.656416949222E+03    0.81424E-02   -0.24496E-02   780   0.213E-01    0.479E-01
DAV:   5    -0.656417255695E+03   -0.30647E-03   -0.35350E-03   816   0.811E-02    0.190E-01
DAV:   6    -0.656417279626E+03   -0.23931E-04   -0.72433E-04   588   0.338E-02
   6 F= -.67160682E+03 E0= -.67154453E+03  d E =-.603604E-02
       N       E                     dE             d eps       ncg     rms          rms(c)
DAV:   1    -0.656418461682E+03   -0.12060E-02   -0.19179E-02   612   0.195E-01    0.346E-01
DAV:   2    -0.656473575176E+03   -0.55113E-01   -0.54483E-01   888   0.416E-01    0.362E+00
DAV:   3    -0.656420384061E+03    0.53191E-01   -0.32686E-01   804   0.445E-01    0.566E-01
DAV:   4    -0.656419450517E+03    0.93354E-03   -0.17757E-02   708   0.100E-01    0.601E-01
DAV:   5    -0.656418482603E+03    0.96791E-03   -0.25489E-03   624   0.479E-02    0.467E-01
DAV:   6    -0.656418051094E+03    0.43151E-03   -0.75333E-04   492   0.240E-02    0.137E-01
DAV:   7    -0.656418086633E+03   -0.35539E-04   -0.36577E-04   480   0.259E-02
   7 F= -.67160694E+03 E0= -.67154484E+03  d E =-.615625E-02
       N       E                     dE             d eps       ncg     rms          rms(c)
DAV:   1    -0.656415001814E+03    0.30493E-02   -0.19815E+00   600   0.203E+00    0.634E-01
DAV:   2    -0.656440626720E+03   -0.25625E-01   -0.86583E-02   792   0.449E-01    0.269E+00
DAV:   3    -0.656425748400E+03    0.14878E-01   -0.24178E-01   852   0.411E-01    0.145E+00
DAV:   4    -0.656426374469E+03   -0.62607E-03   -0.19611E-01   792   0.246E-01    0.156E+00
DAV:   5    -0.656421464038E+03    0.49104E-02   -0.92473E-03   744   0.129E-01    0.101E+00
DAV:   6    -0.656418649732E+03    0.28143E-02   -0.51405E-03   780   0.110E-01    0.122E-01
DAV:   7    -0.656418702993E+03   -0.53262E-04   -0.87419E-04   600   0.423E-02
   8 F= -.67161289E+03 E0= -.67155116E+03  d E =-.594239E-02
       N       E                     dE             d eps       ncg     rms          rms(c)
DAV:   1    -0.656419922342E+03   -0.12726E-02   -0.77243E-02   600   0.401E-01    0.136E-01
DAV:   2    -0.656422546413E+03   -0.26241E-02   -0.60644E-03   792   0.137E-01    0.919E-01
DAV:   3    -0.656420735501E+03    0.18109E-02   -0.13169E-02   624   0.107E-01    0.469E-01
DAV:   4    -0.656420263004E+03    0.47250E-03   -0.48350E-03   648   0.586E-02    0.123E-01
DAV:   5    -0.656420081898E+03    0.18111E-03   -0.77546E-04   456   0.303E-02    0.212E-01
DAV:   6    -0.656420072089E+03    0.98098E-05   -0.15296E-04   432   0.219E-02
   9 F= -.67161319E+03 E0= -.67155061E+03  d E =-.624804E-02
       N       E                     dE             d eps       ncg     rms          rms(c)
DAV:   1    -0.656420769742E+03   -0.68784E-03   -0.59424E-01   600   0.834E-01    0.392E-01
DAV:   2    -0.656467673461E+03   -0.46904E-01   -0.99606E-02   876   0.392E-01    0.329E+00
DAV:   3    -0.656423138048E+03    0.44535E-01   -0.85319E-02   864   0.491E-01    0.533E-01
DAV:   4    -0.656424592659E+03   -0.14546E-02   -0.20668E-02   708   0.120E-01    0.117E+00
DAV:   5    -0.656422231496E+03    0.23612E-02   -0.12205E-03   588   0.458E-02    0.662E-01
DAV:   6    -0.656421259657E+03    0.97184E-03   -0.29006E-03   576   0.572E-02    0.992E-02
DAV:   7    -0.656421330702E+03   -0.71045E-04   -0.51917E-04   588   0.320E-02
  10 F= -.67161622E+03 E0= -.67155376E+03  d E =-.303074E-02
       N       E                     dE             d eps       ncg     rms          rms(c)
DAV:   1    -0.656420767589E+03    0.49207E-03   -0.11312E-01   600   0.366E-01    0.150E-01
DAV:   2    -0.656425779278E+03   -0.50117E-02   -0.16726E-02   876   0.138E-01    0.131E+00
DAV:   3    -0.656421816347E+03    0.39629E-02   -0.13104E-02   756   0.144E-01    0.437E-01
DAV:   4    -0.656421208040E+03    0.60831E-03   -0.18372E-03   720   0.734E-02    0.302E-01
DAV:   5    -0.656421008864E+03    0.19918E-03   -0.34858E-04   456   0.322E-02    0.325E-01
DAV:   6    -0.656420915874E+03    0.92990E-04   -0.18145E-04   504   0.223E-02
  11 F= -.67161659E+03 E0= -.67155510E+03  d E =-.339836E-02
       N       E                     dE             d eps       ncg     rms          rms(c)
DAV:   1    -0.656421819762E+03   -0.81090E-03   -0.89522E-02   600   0.316E-01    0.224E-01
DAV:   2    -0.656443538051E+03   -0.21718E-01   -0.21809E-01   852   0.307E-01    0.270E+00
DAV:   3    -0.656423560745E+03    0.19977E-01   -0.22428E-01   792   0.269E-01    0.602E-01
DAV:   4    -0.656422131690E+03    0.14291E-02   -0.30582E-03   576   0.647E-02    0.808E-02
DAV:   5    -0.656422008258E+03    0.12343E-03   -0.51464E-04   408   0.255E-02    0.215E-01
DAV:   6    -0.656422113756E+03   -0.10550E-03   -0.96134E-05   384   0.207E-02    0.287E-01
DAV:   7    -0.656422132296E+03   -0.18540E-04   -0.12985E-04   336   0.183E-02
  12 F= -.67161826E+03 E0= -.67155696E+03  d E =-.166696E-02
       N       E                     dE             d eps       ncg     rms          rms(c)
DAV:   1    -0.656422483743E+03   -0.36999E-03   -0.80914E-01   600   0.949E-01    0.365E-01
DAV:   2    -0.656450978219E+03   -0.28494E-01   -0.28537E-01   852   0.432E-01    0.288E+00
DAV:   3    -0.656427105666E+03    0.23873E-01   -0.31660E-01   840   0.334E-01    0.108E+00
DAV:   4    -0.656424713144E+03    0.23925E-02   -0.41922E-03   672   0.835E-02    0.585E-01
DAV:   5    -0.656424570123E+03    0.14302E-03   -0.10554E-03   732   0.487E-02    0.705E-01
DAV:   6    -0.656425404254E+03   -0.83413E-03   -0.70684E-04   684   0.458E-02    0.868E-01
DAV:   7    -0.656425091687E+03    0.31257E-03   -0.44468E-04   612   0.353E-02    0.869E-01
DAV:   8    -0.656423945392E+03    0.11463E-02   -0.52223E-04   444   0.294E-02    0.514E-01
DAV:   9    -0.656423511376E+03    0.43402E-03   -0.62699E-04   456   0.275E-02    0.190E-01
DAV:  10    -0.656423581549E+03   -0.70173E-04   -0.55740E-05   396   0.135E-02
  13 F= -.67162108E+03 E0= -.67155945E+03  d E =-.448803E-02
       N       E                     dE             d eps       ncg     rms          rms(c)
DAV:   1    -0.656414538110E+03    0.89733E-02   -0.32420E+00   600   0.189E+00    0.540E-01
DAV:   2    -0.656420353063E+03   -0.58150E-02   -0.79037E-02   828   0.400E-01    0.422E-01
DAV:   3    -0.656423004951E+03   -0.26519E-02   -0.14970E-02   888   0.156E-01    0.131E+00
DAV:   4    -0.656421769458E+03    0.12355E-02   -0.66500E-04   648   0.460E-02    0.108E+00
DAV:   5    -0.656421635576E+03    0.13388E-03   -0.13172E-03   756   0.597E-02    0.114E+00
DAV:   6    -0.656423261196E+03   -0.16256E-02   -0.16207E-03   780   0.640E-02    0.141E+00
DAV:   7    -0.656442170689E+03   -0.18909E-01   -0.84089E-03   840   0.183E-01    0.285E+00
DAV:   8    -0.656457215475E+03   -0.15045E-01   -0.27504E-03   792   0.116E-01    0.320E+00
DAV:   9    -0.656462195118E+03   -0.49796E-02   -0.14216E-03   840   0.713E-02    0.322E+00
DAV:  10    -0.656459874182E+03    0.23209E-02   -0.46228E-04   696   0.403E-02    0.309E+00
DAV:  11    -0.656455201491E+03    0.46727E-02   -0.27529E-04   504   0.374E-02    0.292E+00
DAV:  12    -0.656445104657E+03    0.10097E-01   -0.96506E-04   672   0.644E-02    0.248E+00
DAV:  13    -0.656442884873E+03    0.22198E-02   -0.28682E-04   600   0.276E-02    0.245E+00
DAV:  14    -0.656441024344E+03    0.18605E-02   -0.36809E-05   396   0.119E-02    0.238E+00
DAV:  15    -0.656437238763E+03    0.37856E-02   -0.10136E-04   492   0.190E-02    0.228E+00
DAV:  16    -0.656432174173E+03    0.50646E-02   -0.16631E-04   564   0.216E-02    0.210E+00
DAV:  17    -0.656425116394E+03    0.70578E-02   -0.49444E-04   600   0.379E-02    0.163E+00
DAV:  18    -0.656424309879E+03    0.80651E-03   -0.18635E-04   492   0.237E-02    0.154E+00
DAV:  19    -0.656423755274E+03    0.55461E-03   -0.66139E-05   408   0.143E-02    0.144E+00
DAV:  20    -0.656421810188E+03    0.19451E-02   -0.33442E-04   492   0.282E-02    0.114E+00
DAV:  21    -0.656419455861E+03    0.23543E-02   -0.94857E-04   612   0.422E-02    0.611E-01
DAV:  22    -0.656419557824E+03   -0.10196E-03   -0.33483E-04   552   0.277E-02    0.497E-01
DAV:  23    -0.656419400193E+03    0.15763E-03   -0.44820E-05   360   0.113E-02    0.409E-01
DAV:  24    -0.656419213960E+03    0.18623E-03   -0.96285E-05   408   0.130E-02    0.247E-01
DAV:  25    -0.656419207903E+03    0.60573E-05   -0.51935E-05   360   0.102E-02
  14 F= -.67161954E+03 E0= -.67155806E+03  d E =-.294764E-02
       N       E                     dE             d eps       ncg     rms          rms(c)
DAV:   1    -0.656421218621E+03   -0.20047E-02   -0.14396E+00   600   0.126E+00    0.396E-01
DAV:   2    -0.656452288827E+03   -0.31070E-01   -0.33147E-01   816   0.339E-01    0.311E+00
DAV:   3    -0.656425346313E+03    0.26943E-01   -0.25830E-01   840   0.343E-01    0.524E-01
DAV:   4    -0.656427400182E+03   -0.20539E-02   -0.52165E-02   684   0.130E-01    0.140E+00
DAV:   5    -0.656425657924E+03    0.17423E-02   -0.50336E-03   588   0.523E-02    0.107E+00
DAV:   6    -0.656425739864E+03   -0.81940E-04   -0.20521E-03   744   0.750E-02    0.733E-01
DAV:   7    -0.656423092391E+03    0.26475E-02   -0.13616E-02   756   0.994E-02    0.135E-01
DAV:   8    -0.656423221162E+03   -0.12877E-03   -0.48203E-04   516   0.336E-02    0.127E-01
DAV:   9    -0.656423209144E+03    0.12018E-04   -0.84742E-05   396   0.170E-02
  15 F= -.67162164E+03 E0= -.67155939E+03  d E =-.504703E-02
       N       E                     dE             d eps       ncg     rms          rms(c)
DAV:   1    -0.656424551873E+03   -0.13307E-02   -0.86474E-02   600   0.365E-01    0.184E-01
DAV:   2    -0.656434963079E+03   -0.10411E-01   -0.25029E-02   888   0.181E-01    0.202E+00
DAV:   3    -0.656425135453E+03    0.98276E-02   -0.27235E-02   732   0.218E-01    0.349E-01
DAV:   4    -0.656425540994E+03   -0.40554E-03   -0.48914E-03   600   0.692E-02    0.601E-01
DAV:   5    -0.656424916991E+03    0.62400E-03   -0.25254E-04   456   0.350E-02    0.376E-01
DAV:   6    -0.656424589640E+03    0.32735E-03   -0.54377E-04   420   0.259E-02    0.153E-01
DAV:   7    -0.656424590994E+03   -0.13541E-05   -0.17075E-04   372   0.169E-02
  16 F= -.67162340E+03 E0= -.67156147E+03  d E =-.176819E-02
       N       E                     dE             d eps       ncg     rms          rms(c)
DAV:   1    -0.656424868843E+03   -0.27920E-03   -0.44787E-01   600   0.831E-01    0.294E-01
DAV:   2    -0.656431683718E+03   -0.68149E-02   -0.27799E-02   840   0.195E-01    0.164E+00
DAV:   3    -0.656427378151E+03    0.43056E-02   -0.55681E-02   816   0.236E-01    0.865E-01
DAV:   4    -0.656426941635E+03    0.43652E-03   -0.28420E-02   600   0.122E-01    0.823E-01
DAV:   5    -0.656425775478E+03    0.11662E-02   -0.82908E-04   540   0.438E-02    0.405E-01
DAV:   6    -0.656425399621E+03    0.37586E-03   -0.76161E-04   492   0.359E-02    0.237E-01
DAV:   7    -0.656425383155E+03    0.16467E-04   -0.23277E-04   420   0.265E-02
  17 F= -.67162509E+03 E0= -.67156284E+03  d E =-.345327E-02
       N       E                     dE             d eps       ncg     rms          rms(c)
DAV:   1    -0.656426445908E+03   -0.10463E-02   -0.68349E-02   624   0.338E-01    0.108E-01
DAV:   2    -0.656427669008E+03   -0.12231E-02   -0.55088E-03   816   0.103E-01    0.652E-01
DAV:   3    -0.656426725805E+03    0.94320E-03   -0.70367E-03   612   0.719E-02    0.282E-01
DAV:   4    -0.656426791814E+03   -0.66009E-04   -0.16726E-03   552   0.389E-02    0.897E-02
DAV:   5    -0.656426600819E+03    0.19100E-03   -0.71466E-04   432   0.294E-02    0.138E-01
DAV:   6    -0.656426578438E+03    0.22380E-04   -0.11330E-04   396   0.192E-02
  18 F= -.67162665E+03 E0= -.67156463E+03  d E =-.155693E-02
       N       E                     dE             d eps       ncg     rms          rms(c)
DAV:   1    -0.656426583521E+03    0.17297E-04   -0.31475E-01   612   0.725E-01    0.207E-01
DAV:   2    -0.656427646528E+03   -0.10630E-02   -0.10639E-02   816   0.143E-01    0.449E-01
DAV:   3    -0.656429077982E+03   -0.14315E-02   -0.23471E-02   756   0.115E-01    0.901E-01
DAV:   4    -0.656427904352E+03    0.11736E-02   -0.17754E-02   660   0.110E-01    0.490E-01
DAV:   5    -0.656427331917E+03    0.57243E-03   -0.63154E-04   648   0.544E-02    0.249E-01
DAV:   6    -0.656427089247E+03    0.24267E-03   -0.61646E-04   540   0.372E-02    0.120E-01
DAV:   7    -0.656427112758E+03   -0.23511E-04   -0.90999E-05   396   0.191E-02
  19 F= -.67162797E+03 E0= -.67156610E+03  d E =-.287698E-02
       N       E                     dE             d eps       ncg     rms          rms(c)
DAV:   1    -0.656427778265E+03   -0.68902E-03   -0.21747E-02   624   0.175E-01    0.618E-02
DAV:   2    -0.656427930776E+03   -0.15251E-03   -0.10561E-03   540   0.499E-02    0.216E-01
DAV:   3    -0.656427899373E+03    0.31404E-04   -0.12934E-03   456   0.363E-02    0.187E-01
DAV:   4    -0.656427819391E+03    0.79981E-04   -0.25569E-04   372   0.164E-02
  20 F= -.67162897E+03 E0= -.67156677E+03  d E =-.100371E-02
       N       E                     dE             d eps       ncg     rms          rms(c)
DAV:   1    -0.656428814443E+03   -0.91507E-03   -0.19333E-01   624   0.522E-01    0.190E-01
DAV:   2    -0.656431331649E+03   -0.25172E-02   -0.11254E-02   876   0.129E-01    0.998E-01
DAV:   3    -0.656429945813E+03    0.13858E-02   -0.21733E-02   672   0.146E-01    0.603E-01
DAV:   4    -0.656429391330E+03    0.55448E-03   -0.96917E-03   588   0.748E-02    0.296E-01
DAV:   5    -0.656429181207E+03    0.21012E-03   -0.10568E-03   552   0.398E-02    0.126E-01
DAV:   6    -0.656429063666E+03    0.11754E-03   -0.27075E-04   540   0.309E-02    0.384E-02
DAV:   7    -0.656429044515E+03    0.19151E-04   -0.10607E-04   336   0.162E-02
  21 F= -.67163109E+03 E0= -.67156891E+03  d E =-.312281E-02
       N       E                     dE             d eps       ncg     rms          rms(c)
DAV:   1    -0.656426178909E+03    0.28848E-02   -0.77701E-01   624   0.105E+00    0.416E-01
DAV:   2    -0.656450373708E+03   -0.24195E-01   -0.77575E-02   888   0.352E-01    0.277E+00
DAV:   3    -0.656431051549E+03    0.19322E-01   -0.11863E-01   864   0.385E-01    0.114E+00
DAV:   4    -0.656429801908E+03    0.12496E-02   -0.25391E-02   780   0.148E-01    0.697E-01
DAV:   5    -0.656427672769E+03    0.21291E-02   -0.20064E-03   744   0.843E-02    0.470E-01
DAV:   6    -0.656427154087E+03    0.51868E-03   -0.14709E-03   552   0.494E-02    0.105E-01
DAV:   7    -0.656427185312E+03   -0.31225E-04   -0.89605E-04   528   0.358E-02
  22 F= -.67163103E+03 E0= -.67156870E+03  d E =-.306367E-02
       N       E                     dE             d eps       ncg     rms          rms(c)
DAV:   1    -0.656428585353E+03   -0.14313E-02   -0.19494E-01   624   0.524E-01    0.171E-01
DAV:   2    -0.656429492574E+03   -0.90722E-03   -0.59961E-03   852   0.122E-01    0.238E-01
DAV:   3    -0.656430675638E+03   -0.11831E-02   -0.95591E-03   744   0.111E-01    0.900E-01
DAV:   4    -0.656429233315E+03    0.14423E-02   -0.13924E-02   600   0.855E-02    0.213E-01
DAV:   5    -0.656428955835E+03    0.27748E-03   -0.30167E-03   588   0.538E-02    0.232E-01
DAV:   6    -0.656428836925E+03    0.11891E-03   -0.45640E-04   468   0.244E-02    0.886E-02
DAV:   7    -0.656428830034E+03    0.68910E-05   -0.12593E-04   360   0.147E-02
  23 F= -.67163177E+03 E0= -.67156935E+03  d E =-.380708E-02
       N       E                     dE             d eps       ncg     rms          rms(c)
DAV:   1    -0.656429397611E+03   -0.56069E-03   -0.41176E-02   624   0.268E-01    0.106E-01
DAV:   2    -0.656431732941E+03   -0.23353E-02   -0.70936E-03   840   0.101E-01    0.100E+00
DAV:   3    -0.656429718427E+03    0.20145E-02   -0.10352E-02   612   0.110E-01    0.295E-01
DAV:   4    -0.656429590531E+03    0.12790E-03   -0.20860E-03   468   0.381E-02    0.196E-01
DAV:   5    -0.656429479084E+03    0.11145E-03   -0.24545E-04   408   0.187E-02    0.649E-02
DAV:   6    -0.656429485021E+03   -0.59375E-05   -0.51598E-05   360   0.155E-02
  24 F= -.67163312E+03 E0= -.67157066E+03  d E =-.134921E-02
       N       E                     dE             d eps       ncg     rms          rms(c)
DAV:   1    -0.656428468454E+03    0.10106E-02   -0.36832E-01   624   0.803E-01    0.314E-01
DAV:   2    -0.656444794321E+03   -0.16326E-01   -0.40590E-02   888   0.282E-01    0.240E+00
DAV:   3    -0.656431200896E+03    0.13593E-01   -0.78620E-02   828   0.300E-01    0.873E-01
DAV:   4    -0.656430235080E+03    0.96582E-03   -0.21149E-02   708   0.105E-01    0.633E-01
DAV:   5    -0.656429309344E+03    0.92574E-03   -0.10646E-03   648   0.558E-02    0.120E-01
DAV:   6    -0.656429286008E+03    0.23337E-04   -0.33483E-03   648   0.574E-02    0.299E-01
DAV:   7    -0.656429158756E+03    0.12725E-03   -0.45828E-04   456   0.255E-02    0.256E-01
DAV:   8    -0.656429041542E+03    0.11721E-03   -0.99933E-05   408   0.156E-02    0.145E-01
DAV:   9    -0.656429015121E+03    0.26422E-04   -0.95975E-05   396   0.106E-02
  25 F= -.67163474E+03 E0= -.67157232E+03  d E =-.296707E-02
       N       E                     dE             d eps       ncg     rms          rms(c)
DAV:   1    -0.656428967072E+03    0.74471E-04   -0.45048E-02   624   0.281E-01    0.105E-01
DAV:   2    -0.656429995839E+03   -0.10288E-02   -0.39143E-03   804   0.861E-02    0.641E-01
DAV:   3    -0.656429297859E+03    0.69798E-03   -0.61072E-03   540   0.862E-02    0.285E-01
DAV:   4    -0.656429238361E+03    0.59498E-04   -0.26631E-03   444   0.418E-02    0.185E-01
DAV:   5    -0.656429112960E+03    0.12540E-03   -0.29566E-04   360   0.240E-02    0.114E-01
DAV:   6    -0.656429078734E+03    0.34227E-04   -0.65924E-05   360   0.146E-02
  26 F= -.67163550E+03 E0= -.67157328E+03  d E =-.763661E-03
       N       E                     dE             d eps       ncg     rms          rms(c)
DAV:   1    -0.656428714268E+03    0.39869E-03   -0.18041E-02   624   0.179E-01    0.664E-02
DAV:   2    -0.656429100024E+03   -0.38576E-03   -0.28487E-03   612   0.646E-02    0.362E-01
DAV:   3    -0.656428853819E+03    0.24620E-03   -0.33053E-03   456   0.498E-02    0.211E-01
DAV:   4    -0.656428841355E+03    0.12464E-04   -0.16411E-04   384   0.261E-02
  27 F= -.67163571E+03 E0= -.67157306E+03  d E =-.971783E-03
       N       E                     dE             d eps       ncg     rms          rms(c)
DAV:   1    -0.656428542312E+03    0.31151E-03   -0.40142E-02   624   0.283E-01    0.123E-01
DAV:   2    -0.656429925925E+03   -0.13836E-02   -0.94952E-03   816   0.108E-01    0.752E-01
DAV:   3    -0.656428799899E+03    0.11260E-02   -0.12710E-02   636   0.840E-02    0.331E-01
DAV:   4    -0.656428692706E+03    0.10719E-03   -0.54761E-04   492   0.349E-02    0.730E-02
DAV:   5    -0.656428688990E+03    0.37160E-05   -0.16358E-04   396   0.250E-02
  28 F= -.67163627E+03 E0= -.67157441E+03  d E =-.554369E-03
       N       E                     dE             d eps       ncg     rms          rms(c)
DAV:   1    -0.656428385391E+03    0.30731E-03   -0.88778E-03   612   0.135E-01    0.958E-02
DAV:   2    -0.656430485951E+03   -0.21006E-02   -0.18458E-02   804   0.109E-01    0.875E-01
DAV:   3    -0.656428817026E+03    0.16689E-02   -0.23859E-02   636   0.981E-02    0.401E-01
DAV:   4    -0.656428459426E+03    0.35760E-03   -0.72568E-04   636   0.493E-02    0.630E-02
DAV:   5    -0.656428371561E+03    0.87865E-04   -0.12546E-04   396   0.232E-02
  29 F= -.67163628E+03 E0= -.67157412E+03  d E =-.569222E-03
       N       E                     dE             d eps       ncg     rms          rms(c)
DAV:   1    -0.656428462118E+03   -0.26919E-05   -0.13523E-02   624   0.157E-01    0.667E-02
DAV:   2    -0.656428830873E+03   -0.36876E-03   -0.24707E-03   600   0.568E-02    0.374E-01
DAV:   3    -0.656428613363E+03    0.21751E-03   -0.37387E-03   492   0.536E-02    0.251E-01
DAV:   4    -0.656428560064E+03    0.53299E-04   -0.18250E-04   396   0.271E-02
  30 F= -.67163659E+03 E0= -.67157400E+03  d E =-.305498E-03
       N       E                     dE             d eps       ncg     rms          rms(c)
DAV:   1    -0.656428427280E+03    0.18608E-03   -0.21136E-02   624   0.195E-01    0.127E-01
DAV:   2    -0.656433127250E+03   -0.47000E-02   -0.36243E-02   780   0.151E-01    0.141E+00
DAV:   3    -0.656428925174E+03    0.42021E-02   -0.46185E-02   624   0.135E-01    0.388E-01
DAV:   4    -0.656428544729E+03    0.38045E-03   -0.16207E-03   456   0.446E-02    0.926E-02
DAV:   5    -0.656428446168E+03    0.98561E-04   -0.26806E-04   372   0.210E-02
  31 F= -.67163662E+03 E0= -.67157435E+03  d E =-.338441E-03
       N       E                     dE             d eps       ncg     rms          rms(c)
DAV:   1    -0.656428566876E+03   -0.22147E-04   -0.12120E-02   624   0.145E-01    0.859E-02
DAV:   2    -0.656431104290E+03   -0.25374E-02   -0.10322E-02   684   0.114E-01    0.101E+00
DAV:   3    -0.656428858142E+03    0.22461E-02   -0.16188E-02   588   0.104E-01    0.337E-01
DAV:   4    -0.656428613243E+03    0.24490E-03   -0.10955E-03   444   0.392E-02    0.597E-02
DAV:   5    -0.656428585257E+03    0.27986E-04   -0.90062E-05   360   0.156E-02
  32 F= -.67163681E+03 E0= -.67157489E+03  d E =-.191863E-03
       N       E                     dE             d eps       ncg     rms          rms(c)
DAV:   1    -0.656428544236E+03    0.69007E-04   -0.26849E-02   612   0.214E-01    0.130E-01
DAV:   2    -0.656435060053E+03   -0.65158E-02   -0.55887E-02   828   0.190E-01    0.163E+00
DAV:   3    -0.656429173761E+03    0.58863E-02   -0.64464E-02   648   0.152E-01    0.386E-01
DAV:   4    -0.656428669259E+03    0.50450E-03   -0.10863E-03   492   0.460E-02    0.710E-02
DAV:   5    -0.656428577197E+03    0.92063E-04   -0.11195E-04   384   0.193E-02
  33 F= -.67163688E+03 E0= -.67157489E+03  d E =-.263159E-03
       N       E                     dE             d eps       ncg     rms          rms(c)
DAV:   1    -0.656428701046E+03   -0.31786E-04   -0.63481E-03   588   0.101E-01    0.111E-01
DAV:   2    -0.656434094499E+03   -0.53935E-02   -0.50257E-02   804   0.163E-01    0.149E+00
DAV:   3    -0.656429245264E+03    0.48492E-02   -0.56322E-02   636   0.138E-01    0.376E-01
DAV:   4    -0.656428743492E+03    0.50177E-03   -0.75536E-04   528   0.456E-02    0.449E-02
DAV:   5    -0.656428695179E+03    0.48313E-04   -0.84643E-05   372   0.167E-02
  34 F= -.67163703E+03 E0= -.67157493E+03  d E =-.145419E-03
       N       E                     dE             d eps       ncg     rms          rms(c)
DAV:   1    -0.656428799393E+03   -0.55901E-04   -0.56926E-02   600   0.301E-01    0.114E-01
DAV:   2    -0.656430846420E+03   -0.20470E-02   -0.11096E-02   828   0.128E-01    0.911E-01
DAV:   3    -0.656429116110E+03    0.17303E-02   -0.15723E-02   612   0.100E-01    0.355E-01
DAV:   4    -0.656429037862E+03    0.78249E-04   -0.12074E-03   516   0.382E-02    0.105E-01
DAV:   5    -0.656428914797E+03    0.12306E-03   -0.38115E-04   396   0.259E-02    0.161E-01
DAV:   6    -0.656428903950E+03    0.10847E-04   -0.76418E-05   384   0.174E-02
  35 F= -.67163732E+03 E0= -.67157560E+03  d E =-.437182E-03
       N       E                     dE             d eps       ncg     rms          rms(c)
DAV:   1    -0.656428322037E+03    0.59276E-03   -0.22711E-01   600   0.599E-01    0.264E-01
DAV:   2    -0.656443258199E+03   -0.14936E-01   -0.14362E-01   864   0.300E-01    0.232E+00
DAV:   3    -0.656430403296E+03    0.12855E-01   -0.17094E-01   828   0.246E-01    0.732E-01
DAV:   4    -0.656429039022E+03    0.13643E-02   -0.41797E-03   636   0.717E-02    0.154E-01
DAV:   5    -0.656428710918E+03    0.32810E-03   -0.88281E-04   564   0.428E-02    0.177E-01
DAV:   6    -0.656428707854E+03    0.30636E-05   -0.36767E-04   492   0.329E-02
  36 F= -.67163729E+03 E0= -.67157586E+03  d E =-.410177E-03
       N       E                     dE             d eps       ncg     rms          rms(c)
DAV:   1    -0.656428935423E+03   -0.22451E-03   -0.75701E-02   600   0.345E-01    0.334E-01
DAV:   2    -0.656474384887E+03   -0.45449E-01   -0.44143E-01   876   0.440E-01    0.343E+00
DAV:   3    -0.656431151794E+03    0.43233E-01   -0.30795E-01   840   0.409E-01    0.649E-01
DAV:   4    -0.656429543233E+03    0.16086E-02   -0.74510E-03   732   0.915E-02    0.427E-01
DAV:   5    -0.656429042896E+03    0.50034E-03   -0.75148E-04   480   0.437E-02    0.327E-01
DAV:   6    -0.656428906826E+03    0.13607E-03   -0.37561E-04   312   0.201E-02    0.237E-01
DAV:   7    -0.656428835768E+03    0.71058E-04   -0.18631E-04   348   0.177E-02
  37 F= -.67163733E+03 E0= -.67157505E+03  d E =-.441722E-03
       N       E                     dE             d eps       ncg     rms          rms(c)
DAV:   1    -0.656428869646E+03    0.37180E-04   -0.24784E-02   600   0.200E-01    0.553E-02
DAV:   2    -0.656429071283E+03   -0.20164E-03   -0.13502E-03   792   0.488E-02    0.136E-01
DAV:   3    -0.656429089313E+03   -0.18030E-04   -0.22098E-03   468   0.473E-02    0.297E-01
DAV:   4    -0.656428952302E+03    0.13701E-03   -0.49326E-04   444   0.329E-02    0.545E-02
DAV:   5    -0.656428943673E+03    0.86284E-05   -0.66763E-05   348   0.196E-02
  38 F= -.67163764E+03 E0= -.67157582E+03  d E =-.311941E-03
       N       E                     dE             d eps       ncg     rms          rms(c)
DAV:   1    -0.656428485121E+03    0.46718E-03   -0.13491E-01   600   0.465E-01    0.133E-01
DAV:   2    -0.656428770369E+03   -0.28525E-03   -0.36167E-03   828   0.887E-02    0.135E-01
DAV:   3    -0.656429379200E+03   -0.60883E-03   -0.63613E-03   672   0.653E-02    0.516E-01
DAV:   4    -0.656429011343E+03    0.36786E-03   -0.77942E-03   528   0.768E-02    0.372E-01
DAV:   5    -0.656428732991E+03    0.27835E-03   -0.21250E-04   492   0.324E-02    0.145E-01
DAV:   6    -0.656428691105E+03    0.41886E-04   -0.11439E-04   360   0.187E-02
  39 F= -.67163787E+03 E0= -.67157605E+03  d E =-.541550E-03
       N       E                     dE             d eps       ncg     rms          rms(c)
DAV:   1    -0.656428669421E+03    0.63570E-04   -0.23579E-02   600   0.186E-01    0.115E-01
DAV:   2    -0.656434283469E+03   -0.56140E-02   -0.43768E-02   708   0.154E-01    0.154E+00
DAV:   3    -0.656429152763E+03    0.51307E-02   -0.48966E-02   636   0.143E-01    0.303E-01
DAV:   4    -0.656428786920E+03    0.36584E-03   -0.12918E-03   480   0.425E-02    0.990E-02
DAV:   5    -0.656428702858E+03    0.84061E-04   -0.10546E-04   372   0.190E-02
  40 F= -.67163810E+03 E0= -.67157584E+03  d E =-.232680E-03
       N       E                     dE             d eps       ncg     rms          rms(c)
DAV:   1    -0.656428267956E+03    0.51896E-03   -0.10985E-01   600   0.400E-01    0.124E-01
DAV:   2    -0.656429669577E+03   -0.14016E-02   -0.78525E-03   876   0.105E-01    0.740E-01
DAV:   3    -0.656428730793E+03    0.93878E-03   -0.89521E-03   612   0.912E-02    0.342E-01
DAV:   4    -0.656428674165E+03    0.56628E-04   -0.11862E-03   576   0.503E-02    0.193E-01
DAV:   5    -0.656428428226E+03    0.24594E-03   -0.28271E-04   420   0.302E-02    0.111E-01
DAV:   6    -0.656428407702E+03    0.20524E-04   -0.19195E-04   384   0.206E-02
  41 F= -.67163828E+03 E0= -.67157634E+03  d E =-.409826E-03
       N       E                     dE             d eps       ncg     rms          rms(c)
DAV:   1    -0.656428444733E+03   -0.16506E-04   -0.36196E-02   600   0.232E-01    0.671E-02
DAV:   2    -0.656429051311E+03   -0.60658E-03   -0.33472E-03   768   0.646E-02    0.499E-01
DAV:   3    -0.656428496219E+03    0.55509E-03   -0.36826E-03   456   0.598E-02    0.137E-01
DAV:   4    -0.656428535474E+03   -0.39255E-04   -0.48899E-04   408   0.218E-02
  42 F= -.67163864E+03 E0= -.67157658E+03  d E =-.366257E-03
       N       E                     dE             d eps       ncg     rms          rms(c)
DAV:   1    -0.656428189999E+03    0.30622E-03   -0.32776E-01   600   0.695E-01    0.198E-01
DAV:   2    -0.656430869011E+03   -0.26790E-02   -0.11058E-02   888   0.156E-01    0.957E-01
DAV:   3    -0.656429585724E+03    0.12833E-02   -0.22778E-02   684   0.133E-01    0.616E-01
DAV:   4    -0.656429213816E+03    0.37191E-03   -0.11871E-02   732   0.923E-02    0.210E-01
DAV:   5    -0.656428578884E+03    0.63493E-03   -0.13440E-03   648   0.480E-02    0.946E-02
DAV:   6    -0.656428552304E+03    0.26580E-04   -0.32196E-04   516   0.264E-02
  43 F= -.67163938E+03 E0= -.67157731E+03  d E =-.109969E-02
       N       E                     dE             d eps       ncg     rms          rms(c)
DAV:   1    -0.656426071458E+03    0.25074E-02   -0.13125E+00   600   0.139E+00    0.378E-01
DAV:   2    -0.656434023397E+03   -0.79519E-02   -0.38538E-02   864   0.289E-01    0.162E+00
DAV:   3    -0.656431304955E+03    0.27184E-02   -0.94940E-02   864   0.248E-01    0.121E+00
DAV:   4    -0.656428705214E+03    0.25997E-02   -0.44855E-02   756   0.139E-01    0.457E-01
DAV:   5    -0.656428236625E+03    0.46859E-03   -0.43600E-03   756   0.764E-02    0.175E-01
DAV:   6    -0.656427811076E+03    0.42555E-03   -0.12058E-03   708   0.615E-02    0.277E-01
DAV:   7    -0.656427686291E+03    0.12479E-03   -0.30197E-04   540   0.277E-02    0.131E-01
DAV:   8    -0.656427653672E+03    0.32618E-04   -0.94884E-05   396   0.173E-02
  44 F= -.67163992E+03 E0= -.67157759E+03  d E =-.163916E-02
       N       E                     dE             d eps       ncg     rms          rms(c)
DAV:   1    -0.656427823924E+03   -0.13763E-03   -0.56634E-02   600   0.279E-01    0.102E-01
DAV:   2    -0.656429894709E+03   -0.20708E-02   -0.69450E-03   828   0.101E-01    0.950E-01
DAV:   3    -0.656428142599E+03    0.17521E-02   -0.10254E-02   576   0.101E-01    0.290E-01
DAV:   4    -0.656428054448E+03    0.88151E-04   -0.20347E-03   456   0.402E-02    0.242E-01
DAV:   5    -0.656427894898E+03    0.15955E-03   -0.16441E-04   396   0.178E-02    0.640E-02
DAV:   6    -0.656427889922E+03    0.49758E-05   -0.16765E-04   372   0.141E-02
  45 F= -.67164031E+03 E0= -.67157814E+03  d E =-.393193E-03
       N       E                     dE             d eps       ncg     rms          rms(c)
DAV:   1    -0.656427640817E+03    0.25408E-03   -0.50685E-01   600   0.836E-01    0.244E-01
DAV:   2    -0.656430560345E+03   -0.29195E-02   -0.13271E-02   864   0.164E-01    0.998E-01
DAV:   3    -0.656430224483E+03    0.33586E-03   -0.38649E-02   720   0.161E-01    0.915E-01
DAV:   4    -0.656428864878E+03    0.13596E-02   -0.25044E-02   756   0.122E-01    0.292E-01
DAV:   5    -0.656428236968E+03    0.62791E-03   -0.19543E-03   648   0.537E-02    0.107E-01
DAV:   6    -0.656428134590E+03    0.10238E-03   -0.27639E-04   516   0.271E-02    0.483E-02
DAV:   7    -0.656428127443E+03    0.71477E-05   -0.10020E-04   348   0.153E-02
  46 F= -.67164102E+03 E0= -.67157866E+03  d E =-.110185E-02
       N       E                     dE             d eps       ncg     rms          rms(c)
DAV:   1    -0.656427828913E+03    0.30568E-03   -0.12138E-01   600   0.408E-01    0.111E-01
DAV:   2    -0.656428109693E+03   -0.28078E-03   -0.25190E-03   816   0.690E-02    0.249E-01
DAV:   3    -0.656428644755E+03   -0.53506E-03   -0.59939E-03   540   0.686E-02    0.553E-01
DAV:   4    -0.656427970067E+03    0.67469E-03   -0.49023E-03   444   0.579E-02    0.130E-01
DAV:   5    -0.656428111077E+03   -0.14101E-03   -0.10030E-03   408   0.297E-02    0.116E-01
DAV:   6    -0.656427980108E+03    0.13097E-03   -0.17787E-04   420   0.217E-02    0.104E-01
DAV:   7    -0.656427965527E+03    0.14581E-04   -0.48634E-05   336   0.108E-02
  47 F= -.67164109E+03 E0= -.67157870E+03  d E =-.117060E-02
       N       E                     dE             d eps       ncg     rms          rms(c)
DAV:   1    -0.656428486787E+03   -0.50668E-03   -0.15386E-01   600   0.451E-01    0.125E-01
DAV:   2    -0.656429023660E+03   -0.53687E-03   -0.37530E-03   840   0.848E-02    0.411E-01
DAV:   3    -0.656429149084E+03   -0.12542E-03   -0.67916E-03   600   0.726E-02    0.478E-01
DAV:   4    -0.656428662667E+03    0.48642E-03   -0.29991E-03   444   0.477E-02    0.115E-01
DAV:   5    -0.656428831501E+03   -0.16883E-03   -0.27339E-04   468   0.276E-02    0.182E-01
DAV:   6    -0.656428683058E+03    0.14844E-03   -0.23172E-04   360   0.235E-02    0.142E-01
DAV:   7    -0.656428649372E+03    0.33686E-04   -0.81555E-05   300   0.127E-02
  48 F= -.67164177E+03 E0= -.67157921E+03  d E =-.685926E-03
       N       E                     dE             d eps       ncg     rms          rms(c)
DAV:   1    -0.656428197474E+03    0.48558E-03   -0.13853E+00   600   0.136E+00    0.366E-01
DAV:   2    -0.656430613389E+03   -0.24159E-02   -0.26031E-02   852   0.222E-01    0.636E-01
DAV:   3    -0.656438423640E+03   -0.78103E-02   -0.11594E-01   816   0.217E-01    0.188E+00
DAV:   4    -0.656430258486E+03    0.81652E-02   -0.88069E-02   648   0.174E-01    0.363E-01
DAV:   5    -0.656430861588E+03   -0.60310E-03   -0.16653E-02   720   0.870E-02    0.640E-01
DAV:   6    -0.656430084313E+03    0.77728E-03   -0.52056E-03   720   0.593E-02    0.449E-01
DAV:   7    -0.656429538102E+03    0.54621E-03   -0.24301E-04   540   0.294E-02    0.246E-01
DAV:   8    -0.656429466647E+03    0.71455E-04   -0.58181E-04   456   0.312E-02
  49 F= -.67164259E+03 E0= -.67158009E+03  d E =-.150572E-02
       N       E                     dE             d eps       ncg     rms          rms(c)
DAV:   1    -0.656430639911E+03   -0.11018E-02   -0.35713E-01   600   0.682E-01    0.167E-01
DAV:   2    -0.656431763116E+03   -0.11232E-02   -0.91928E-03   852   0.122E-01    0.557E-01
DAV:   3    -0.656431696865E+03    0.66251E-04   -0.10053E-02   648   0.103E-01    0.571E-01
DAV:   4    -0.656431118046E+03    0.57882E-03   -0.26062E-03   540   0.528E-02    0.916E-02
DAV:   5    -0.656431307818E+03   -0.18977E-03   -0.11089E-03   588   0.381E-02    0.131E-01
DAV:   6    -0.656431066683E+03    0.24114E-03   -0.49271E-04   564   0.337E-02    0.110E-01
DAV:   7    -0.656431039977E+03    0.26706E-04   -0.97106E-05   384   0.194E-02
  50 F= -.67164369E+03 E0= -.67158154E+03  d E =-.109842E-02
       N       E                     dE             d eps       ncg     rms          rms(c)
DAV:   1    -0.656430718649E+03    0.34803E-03   -0.32091E+00   600   0.205E+00    0.523E-01
DAV:   2    -0.656452048556E+03   -0.21330E-01   -0.22976E-01   828   0.433E-01    0.253E+00
DAV:   3    -0.656439025893E+03    0.13023E-01   -0.28311E-01   852   0.332E-01    0.135E+00
DAV:   4    -0.656434841813E+03    0.41841E-02   -0.17613E-02   720   0.127E-01    0.415E-01
DAV:   5    -0.656435328553E+03   -0.48674E-03   -0.66438E-03   804   0.904E-02    0.332E-01
DAV:   6    -0.656435067322E+03    0.26123E-03   -0.55555E-03   696   0.889E-02    0.232E-01
DAV:   7    -0.656434011990E+03    0.10553E-02   -0.38236E-03   732   0.774E-02    0.228E-01
DAV:   8    -0.656433954456E+03    0.57535E-04   -0.17792E-04   420   0.232E-02
  51 F= -.67164517E+03 E0= -.67158318E+03  d E =-.257393E-02
       N       E                     dE             d eps       ncg     rms          rms(c)
DAV:   1    -0.656434872934E+03   -0.86094E-03   -0.84472E-01   600   0.107E+00    0.290E-01
DAV:   2    -0.656447565660E+03   -0.12693E-01   -0.12534E-01   900   0.280E-01    0.214E+00
DAV:   3    -0.656437392706E+03    0.10173E-01   -0.14445E-01   828   0.232E-01    0.690E-01
DAV:   4    -0.656436291309E+03    0.11014E-02   -0.81097E-03   624   0.793E-02    0.359E-01
DAV:   5    -0.656436133817E+03    0.15749E-03   -0.21879E-03   672   0.500E-02    0.217E-01
DAV:   6    -0.656436131176E+03    0.26413E-05   -0.12131E-03   696   0.473E-02    0.166E-01
DAV:   7    -0.656435791328E+03    0.33985E-03   -0.13125E-03   576   0.454E-02    0.979E-02
DAV:   8    -0.656435802155E+03   -0.10828E-04   -0.78203E-05   372   0.173E-02
  52 F= -.67164634E+03 E0= -.67158413E+03  d E =-.117509E-02
       N       E                     dE             d eps       ncg     rms          rms(c)
DAV:   1    -0.656435987909E+03   -0.19658E-03   -0.11932E-01   600   0.401E-01    0.118E-01
DAV:   2    -0.656438782464E+03   -0.27946E-02   -0.20412E-02   864   0.124E-01    0.108E+00
DAV:   3    -0.656436333586E+03    0.24489E-02   -0.23695E-02   612   0.113E-01    0.286E-01
DAV:   4    -0.656436240075E+03    0.93511E-04   -0.17543E-03   468   0.397E-02    0.157E-01
DAV:   5    -0.656436164332E+03    0.75744E-04   -0.39532E-04   372   0.241E-02
  53 F= -.67164645E+03 E0= -.67158366E+03  d E =-.128249E-02
       N       E                     dE             d eps       ncg     rms          rms(c)
DAV:   1    -0.656436833017E+03   -0.59294E-03   -0.64160E-01   600   0.926E-01    0.225E-01
DAV:   2    -0.656439762437E+03   -0.29294E-02   -0.16939E-02   888   0.181E-01    0.910E-01
DAV:   3    -0.656438592740E+03    0.11697E-02   -0.17495E-02   780   0.131E-01    0.664E-01
DAV:   4    -0.656438361541E+03    0.23120E-03   -0.28000E-03   756   0.888E-02    0.200E-01
DAV:   5    -0.656437373491E+03    0.98805E-03   -0.12004E-03   696   0.573E-02    0.891E-02
DAV:   6    -0.656437419582E+03   -0.46091E-04   -0.37287E-04   672   0.299E-02
  54 F= -.67164746E+03 E0= -.67158490E+03  d E =-.101272E-02
       N       E                     dE             d eps       ncg     rms          rms(c)
DAV:   1    -0.656437570203E+03   -0.19671E-03   -0.35307E-01   600   0.686E-01    0.165E-01
DAV:   2    -0.656438503428E+03   -0.93322E-03   -0.68678E-03   876   0.117E-01    0.474E-01
DAV:   3    -0.656438790132E+03   -0.28670E-03   -0.10783E-02   636   0.917E-02    0.620E-01
DAV:   4    -0.656438089246E+03    0.70089E-03   -0.76115E-03   672   0.726E-02    0.122E-01
DAV:   5    -0.656438034912E+03    0.54334E-04   -0.13979E-03   612   0.416E-02    0.113E-01
DAV:   6    -0.656437960214E+03    0.74697E-04   -0.43772E-04   684   0.302E-02
  55 F= -.67164782E+03 E0= -.67158514E+03  d E =-.136961E-02
       N       E                     dE             d eps       ncg     rms          rms(c)
DAV:   1    -0.656436584754E+03    0.14502E-02   -0.14121E+00   600   0.137E+00    0.320E-01
DAV:   2    -0.656441110307E+03   -0.45256E-02   -0.30130E-02   876   0.244E-01    0.113E+00
DAV:   3    -0.656440300927E+03    0.80938E-03   -0.44710E-02   816   0.174E-01    0.978E-01
DAV:   4    -0.656438379455E+03    0.19215E-02   -0.12850E-02   708   0.963E-02    0.211E-01
DAV:   5    -0.656439103540E+03   -0.72409E-03   -0.17383E-03   732   0.742E-02    0.303E-01
DAV:   6    -0.656438215853E+03    0.88769E-03   -0.31976E-03   744   0.632E-02    0.317E-01
DAV:   7    -0.656437988180E+03    0.22767E-03   -0.70073E-04   588   0.309E-02    0.166E-01
DAV:   8    -0.656437953936E+03    0.34245E-04   -0.16431E-04   432   0.204E-02
  56 F= -.67164743E+03 E0= -.67158482E+03  d E =-.985268E-03
       N       E                     dE             d eps       ncg     rms          rms(c)
DAV:   1    -0.656437297794E+03    0.69039E-03   -0.81061E-01   600   0.104E+00    0.231E-01
DAV:   2    -0.656438375314E+03   -0.10775E-02   -0.13255E-02   840   0.150E-01    0.301E-01
DAV:   3    -0.656441414753E+03   -0.30394E-02   -0.31705E-02   660   0.128E-01    0.119E+00
DAV:   4    -0.656438374417E+03    0.30403E-02   -0.33269E-02   588   0.120E-01    0.311E-01
DAV:   5    -0.656438556050E+03   -0.18163E-03   -0.35160E-03   660   0.571E-02    0.169E-01
DAV:   6    -0.656438166975E+03    0.38908E-03   -0.15830E-03   660   0.482E-02    0.971E-02
DAV:   7    -0.656438061320E+03    0.10566E-03   -0.19076E-04   336   0.235E-02    0.704E-02
DAV:   8    -0.656438046872E+03    0.14448E-04   -0.82524E-05   336   0.163E-02
  57 F= -.67164781E+03 E0= -.67158536E+03  d E =-.136586E-02
       N       E                     dE             d eps       ncg     rms          rms(c)
DAV:   1    -0.656438762114E+03   -0.70079E-03   -0.41422E-01   600   0.728E-01    0.187E-01
DAV:   2    -0.656439380783E+03   -0.61867E-03   -0.74191E-03   840   0.113E-01    0.302E-01
DAV:   3    -0.656441271776E+03   -0.18910E-02   -0.21040E-02   612   0.108E-01    0.968E-01
DAV:   4    -0.656439221718E+03    0.20501E-02   -0.16647E-02   564   0.907E-02    0.201E-01
DAV:   5    -0.656439214072E+03    0.76468E-05   -0.97930E-04   504   0.310E-02
  58 F= -.67164918E+03 E0= -.67158641E+03  d E =-.136693E-02
       N       E                     dE             d eps       ncg     rms          rms(c)
DAV:   1    -0.656437989952E+03    0.12318E-02   -0.16857E+00   600   0.147E+00    0.399E-01
DAV:   2    -0.656448810225E+03   -0.10820E-01   -0.48972E-02   900   0.319E-01    0.190E+00
DAV:   3    -0.656442132181E+03    0.66780E-02   -0.89474E-02   840   0.259E-01    0.101E+00
DAV:   4    -0.656440625985E+03    0.15062E-02   -0.36685E-02   768   0.125E-01    0.422E-01
DAV:   5    -0.656440201233E+03    0.42475E-03   -0.49330E-03   720   0.803E-02    0.179E-01
DAV:   6    -0.656439674179E+03    0.52705E-03   -0.13287E-03   720   0.607E-02    0.168E-01
DAV:   7    -0.656439549714E+03    0.12447E-03   -0.25330E-04   504   0.269E-02    0.984E-02
DAV:   8    -0.656439513714E+03    0.35999E-04   -0.10131E-04   396   0.157E-02
  59 F= -.67164987E+03 E0= -.67158741E+03  d E =-.205630E-02
       N       E                     dE             d eps       ncg     rms          rms(c)
DAV:   1    -0.656439820312E+03   -0.27060E-03   -0.86551E-02   600   0.333E-01    0.102E-01
DAV:   2    -0.656441490210E+03   -0.16699E-02   -0.62712E-03   828   0.998E-02    0.836E-01
DAV:   3    -0.656440067088E+03    0.14231E-02   -0.77319E-03   600   0.865E-02    0.243E-01
DAV:   4    -0.656439984266E+03    0.82822E-04   -0.13515E-03   432   0.338E-02    0.124E-01
DAV:   5    -0.656439941386E+03    0.42880E-04   -0.26372E-04   360   0.201E-02
  60 F= -.67165042E+03 E0= -.67158834E+03  d E =-.547567E-03
       N       E                     dE             d eps       ncg     rms          rms(c)
DAV:   1    -0.656440006718E+03   -0.22452E-04   -0.77271E-01   600   0.996E-01    0.260E-01
DAV:   2    -0.656442266830E+03   -0.22601E-02   -0.15340E-02   888   0.177E-01    0.712E-01
DAV:   3    -0.656443008575E+03   -0.74174E-03   -0.35017E-02   648   0.145E-01    0.987E-01
DAV:   4    -0.656441719604E+03    0.12890E-02   -0.27899E-02   792   0.121E-01    0.234E-01
DAV:   5    -0.656440820120E+03    0.89948E-03   -0.35566E-03   708   0.649E-02    0.149E-01
DAV:   6    -0.656440697604E+03    0.12252E-03   -0.55255E-04   576   0.312E-02    0.869E-02
DAV:   7    -0.656440677190E+03    0.20414E-04   -0.15654E-04   432   0.232E-02
  61 F= -.67165151E+03 E0= -.67158911E+03  d E =-.163677E-02
       N       E                     dE             d eps       ncg     rms          rms(c)
DAV:   1    -0.656437289438E+03    0.34082E-02   -0.31037E+00   600   0.200E+00    0.513E-01
DAV:   2    -0.656445195031E+03   -0.79056E-02   -0.66818E-02   888   0.358E-01    0.139E+00
DAV:   3    -0.656448477413E+03   -0.32824E-02   -0.17314E-01   852   0.280E-01    0.182E+00
DAV:   4    -0.656441186561E+03    0.72909E-02   -0.75209E-02   684   0.153E-01    0.378E-01
DAV:   5    -0.656440715889E+03    0.47067E-03   -0.43041E-03   648   0.644E-02    0.430E-01
DAV:   6    -0.656440684678E+03    0.31212E-04   -0.11383E-03   696   0.524E-02    0.415E-01
DAV:   7    -0.656440460170E+03    0.22451E-03   -0.41374E-04   588   0.421E-02    0.243E-01
DAV:   8    -0.656440236470E+03    0.22370E-03   -0.77573E-04   456   0.327E-02    0.930E-02
DAV:   9    -0.656440265435E+03   -0.28965E-04   -0.79311E-05   408   0.136E-02
  62 F= -.67165177E+03 E0= -.67158948E+03  d E =-.190395E-02
       N       E                     dE             d eps       ncg     rms          rms(c)
DAV:   1    -0.656440294025E+03   -0.57555E-04   -0.51429E-01   600   0.813E-01    0.207E-01
DAV:   2    -0.656440890418E+03   -0.59639E-03   -0.87608E-03   852   0.123E-01    0.169E-01
DAV:   3    -0.656443615239E+03   -0.27248E-02   -0.10405E-02   624   0.116E-01    0.113E+00
DAV:   4    -0.656440809514E+03    0.28057E-02   -0.89649E-03   552   0.945E-02    0.146E-01
DAV:   5    -0.656440982714E+03   -0.17320E-03   -0.17212E-03   492   0.367E-02    0.290E-01
DAV:   6    -0.656440956049E+03    0.26665E-04   -0.71658E-04   540   0.345E-02
  63 F= -.67165219E+03 E0= -.67159084E+03  d E =-.232266E-02
       N       E                     dE             d eps       ncg     rms          rms(c)
DAV:   1    -0.656441639795E+03   -0.65708E-03   -0.37533E-02   600   0.243E-01    0.159E-01
DAV:   2    -0.656452889223E+03   -0.11249E-01   -0.10686E-01   840   0.210E-01    0.210E+00
DAV:   3    -0.656442517615E+03    0.10372E-01   -0.11161E-01   720   0.187E-01    0.402E-01
DAV:   4    -0.656441864412E+03    0.65320E-03   -0.17691E-03   600   0.549E-02    0.186E-01
DAV:   5    -0.656441708110E+03    0.15630E-03   -0.29734E-04   372   0.273E-02    0.138E-01
DAV:   6    -0.656441662562E+03    0.45549E-04   -0.19311E-04   312   0.135E-02
  64 F= -.67165278E+03 E0= -.67159033E+03  d E =-.581477E-03
       N       E                     dE             d eps       ncg     rms          rms(c)
DAV:   1    -0.656442676289E+03   -0.96818E-03   -0.33260E-01   600   0.717E-01    0.196E-01
DAV:   2    -0.656443547450E+03   -0.87116E-03   -0.92416E-03   840   0.118E-01    0.463E-01
DAV:   3    -0.656445023749E+03   -0.14763E-02   -0.15617E-02   660   0.130E-01    0.943E-01
DAV:   4    -0.656443176236E+03    0.18475E-02   -0.68686E-03   564   0.831E-02    0.167E-01
DAV:   5    -0.656443097629E+03    0.78607E-04   -0.83132E-04   540   0.294E-02
  65 F= -.67165384E+03 E0= -.67159193E+03  d E =-.164181E-02
       N       E                     dE             d eps       ncg     rms          rms(c)
DAV:   1    -0.656444223623E+03   -0.10474E-02   -0.69412E-02   600   0.345E-01    0.191E-01
DAV:   2    -0.656457859364E+03   -0.13636E-01   -0.13357E-01   888   0.243E-01    0.227E+00
DAV:   3    -0.656445352736E+03    0.12507E-01   -0.14052E-01   732   0.211E-01    0.506E-01
DAV:   4    -0.656444606214E+03    0.74652E-03   -0.44899E-03   624   0.678E-02    0.193E-01
DAV:   5    -0.656444303738E+03    0.30248E-03   -0.60504E-04   468   0.360E-02    0.102E-01
DAV:   6    -0.656444252263E+03    0.51475E-04   -0.65016E-05   360   0.184E-02
  66 F= -.67165455E+03 E0= -.67159236E+03  d E =-.711201E-03
       N       E                     dE             d eps       ncg     rms          rms(c)
DAV:   1    -0.656444983564E+03   -0.67983E-03   -0.88427E-02   600   0.386E-01    0.182E-01
DAV:   2    -0.656455396131E+03   -0.10413E-01   -0.97560E-02   900   0.217E-01    0.202E+00
DAV:   3    -0.656445971135E+03    0.94250E-02   -0.11069E-01   756   0.190E-01    0.492E-01
DAV:   4    -0.656445308724E+03    0.66241E-03   -0.30809E-03   540   0.573E-02    0.216E-01
DAV:   5    -0.656445069004E+03    0.23972E-03   -0.28922E-04   396   0.245E-02    0.747E-02
DAV:   6    -0.656445090290E+03   -0.21285E-04   -0.10837E-04   348   0.187E-02
  67 F= -.67165489E+03 E0= -.67159294E+03  d E =-.105154E-02
       N       E                     dE             d eps       ncg     rms          rms(c)
DAV:   1    -0.656445755767E+03   -0.68676E-03   -0.21560E-02   600   0.189E-01    0.148E-01
DAV:   2    -0.656453561390E+03   -0.78056E-02   -0.73326E-02   876   0.180E-01    0.178E+00
DAV:   3    -0.656446520448E+03    0.70409E-02   -0.82512E-02   732   0.164E-01    0.436E-01
DAV:   4    -0.656445982478E+03    0.53797E-03   -0.13846E-03   612   0.568E-02    0.155E-01
DAV:   5    -0.656445768785E+03    0.21369E-03   -0.29636E-04   396   0.295E-02    0.709E-02
DAV:   6    -0.656445747854E+03    0.20931E-04   -0.13668E-04   312   0.139E-02
  68 F= -.67165527E+03 E0= -.67159283E+03  d E =-.387119E-03
       N       E                     dE             d eps       ncg     rms          rms(c)
DAV:   1    -0.656446525738E+03   -0.75695E-03   -0.91085E-02   600   0.389E-01    0.169E-01
DAV:   2    -0.656449633918E+03   -0.31082E-02   -0.26385E-02   900   0.139E-01    0.113E+00
DAV:   3    -0.656447354220E+03    0.22797E-02   -0.36352E-02   696   0.133E-01    0.531E-01
DAV:   4    -0.656446884697E+03    0.46952E-03   -0.17355E-03   588   0.549E-02    0.162E-01
DAV:   5    -0.656446681382E+03    0.20332E-03   -0.23984E-04   456   0.318E-02    0.503E-02
DAV:   6    -0.656446662907E+03    0.18475E-04   -0.14388E-04   432   0.195E-02
  69 F= -.67165563E+03 E0= -.67159312E+03  d E =-.745853E-03
       N       E                     dE             d eps       ncg     rms          rms(c)
DAV:   1    -0.656447175706E+03   -0.49432E-03   -0.30776E-02   600   0.224E-01    0.107E-01
DAV:   2    -0.656450072141E+03   -0.28964E-02   -0.20909E-02   864   0.115E-01    0.112E+00
DAV:   3    -0.656447442926E+03    0.26292E-02   -0.24529E-02   624   0.110E-01    0.283E-01
DAV:   4    -0.656447300076E+03    0.14285E-03   -0.10904E-03   492   0.361E-02    0.136E-01
DAV:   5    -0.656447223838E+03    0.76237E-04   -0.77439E-05   408   0.148E-02
  70 F= -.67165599E+03 E0= -.67159362E+03  d E =-.358276E-03
       N       E                     dE             d eps       ncg     rms          rms(c)
DAV:   1    -0.656447417454E+03   -0.11738E-03   -0.15262E-02   600   0.157E-01    0.714E-02
DAV:   2    -0.656448103551E+03   -0.68610E-03   -0.46726E-03   756   0.628E-02    0.545E-01
DAV:   3    -0.656447464838E+03    0.63871E-03   -0.55857E-03   564   0.643E-02    0.205E-01
DAV:   4    -0.656447469690E+03   -0.48516E-05   -0.32240E-04   468   0.260E-02
  71 F= -.67165610E+03 E0= -.67159352E+03  d E =-.462387E-03
       N       E                     dE             d eps       ncg     rms          rms(c)
DAV:   1    -0.656447682571E+03   -0.21773E-03   -0.19590E-02   600   0.176E-01    0.645E-02
DAV:   2    -0.656447840034E+03   -0.15746E-03   -0.10414E-03   732   0.448E-02    0.165E-01
DAV:   3    -0.656447946863E+03   -0.10683E-03   -0.26627E-03   456   0.485E-02    0.343E-01
DAV:   4    -0.656447779137E+03    0.16773E-03   -0.86863E-04   480   0.380E-02    0.704E-02
DAV:   5    -0.656447702555E+03    0.76583E-04   -0.56197E-05   360   0.205E-02
  72 F= -.67165637E+03 E0= -.67159388E+03  d E =-.279497E-03
       N       E                     dE             d eps       ncg     rms          rms(c)
DAV:   1    -0.656447728965E+03    0.50172E-04   -0.91206E-02   600   0.379E-01    0.139E-01
DAV:   2    -0.656448301143E+03   -0.57218E-03   -0.36791E-03   900   0.904E-02    0.444E-01
DAV:   3    -0.656448810444E+03   -0.50930E-03   -0.11417E-02   600   0.927E-02    0.668E-01
DAV:   4    -0.656447832905E+03    0.97754E-03   -0.64121E-03   480   0.612E-02    0.806E-02
DAV:   5    -0.656447887017E+03   -0.54113E-04   -0.65864E-04   432   0.274E-02
  73 F= -.67165666E+03 E0= -.67159431E+03  d E =-.565944E-03
       N       E                     dE             d eps       ncg     rms          rms(c)
DAV:   1    -0.656447958923E+03   -0.12602E-03   -0.17285E-02   600   0.171E-01    0.150E-01
DAV:   2    -0.656457824459E+03   -0.98655E-02   -0.20900E-02   804   0.214E-01    0.198E+00
DAV:   3    -0.656448344503E+03    0.94800E-02   -0.29027E-02   720   0.190E-01    0.374E-01
DAV:   4    -0.656448151067E+03    0.19344E-03   -0.39062E-03   564   0.550E-02    0.186E-01
DAV:   5    -0.656447948834E+03    0.20223E-03   -0.25836E-04   408   0.258E-02    0.779E-02
DAV:   6    -0.656447936345E+03    0.12489E-04   -0.10585E-04   348   0.144E-02
  74 F= -.67165682E+03 E0= -.67159437E+03  d E =-.159177E-03
       N       E                     dE             d eps       ncg     rms          rms(c)
DAV:   1    -0.656447930468E+03    0.18366E-04   -0.41357E-02   600   0.262E-01    0.128E-01
DAV:   2    -0.656452242886E+03   -0.43124E-02   -0.10047E-02   852   0.151E-01    0.135E+00
DAV:   3    -0.656448250032E+03    0.39929E-02   -0.17110E-02   636   0.134E-01    0.376E-01
DAV:   4    -0.656448158157E+03    0.91875E-04   -0.32463E-03   576   0.517E-02    0.121E-01
DAV:   5    -0.656447965660E+03    0.19250E-03   -0.44865E-04   432   0.273E-02    0.360E-02
DAV:   6    -0.656447986272E+03   -0.20612E-04   -0.82583E-05   384   0.150E-02
  75 F= -.67165704E+03 E0= -.67159436E+03  d E =-.377470E-03
       N       E                     dE             d eps       ncg     rms          rms(c)
DAV:   1    -0.656447265836E+03    0.69982E-03   -0.16529E-01   600   0.523E-01    0.267E-01
DAV:   2    -0.656466624068E+03   -0.19358E-01   -0.39025E-02   876   0.327E-01    0.258E+00
DAV:   3    -0.656448854371E+03    0.17770E-01   -0.61540E-02   840   0.295E-01    0.676E-01
DAV:   4    -0.656447884127E+03    0.97024E-03   -0.10838E-02   636   0.790E-02    0.345E-01
DAV:   5    -0.656447433622E+03    0.45051E-03   -0.14612E-03   552   0.362E-02    0.161E-01
DAV:   6    -0.656447558567E+03   -0.12495E-03   -0.47375E-04   444   0.271E-02    0.293E-01
DAV:   7    -0.656447535987E+03    0.22580E-04   -0.74810E-05   408   0.143E-02
  76 F= -.67165693E+03 E0= -.67159390E+03  d E =-.265458E-03
       N       E                     dE             d eps       ncg     rms          rms(c)
DAV:   1    -0.656447786904E+03   -0.22834E-03   -0.84208E-02   600   0.372E-01    0.177E-01
DAV:   2    -0.656457770995E+03   -0.99841E-02   -0.27728E-02   852   0.230E-01    0.198E+00
DAV:   3    -0.656448541522E+03    0.92295E-02   -0.26215E-02   792   0.199E-01    0.425E-01
DAV:   4    -0.656448396633E+03    0.14489E-03   -0.22350E-03   708   0.710E-02    0.276E-01
DAV:   5    -0.656447952496E+03    0.44414E-03   -0.31108E-04   432   0.351E-02    0.209E-01
DAV:   6    -0.656447896178E+03    0.56317E-04   -0.98920E-05   300   0.169E-02
  77 F= -.67165705E+03 E0= -.67159492E+03  d E =-.385225E-03
       N       E                     dE             d eps       ncg     rms          rms(c)
DAV:   1    -0.656447925288E+03    0.27207E-04   -0.30682E-03   564   0.730E-02    0.901E-02
DAV:   2    -0.656451856270E+03   -0.39310E-02   -0.27682E-02   528   0.127E-01    0.130E+00
DAV:   3    -0.656448200655E+03    0.36556E-02   -0.32980E-02   516   0.116E-01    0.259E-01
DAV:   4    -0.656447970539E+03    0.23012E-03   -0.86658E-04   420   0.341E-02    0.471E-02
DAV:   5    -0.656447928246E+03    0.42293E-04   -0.44777E-05   324   0.119E-02
  78 F= -.67165703E+03 E0= -.67159465E+03  d E =-.370681E-03
       N       E                     dE             d eps       ncg     rms          rms(c)
DAV:   1    -0.656448229112E+03   -0.25857E-03   -0.35531E-02   600   0.231E-01    0.774E-02
DAV:   2    -0.656448309250E+03   -0.80138E-04   -0.10776E-03   732   0.431E-02    0.626E-02
DAV:   3    -0.656448582420E+03   -0.27317E-03   -0.88342E-04   408   0.399E-02    0.351E-01
DAV:   4    -0.656448305798E+03    0.27662E-03   -0.13345E-03   384   0.390E-02    0.827E-02
DAV:   5    -0.656448290786E+03    0.15012E-04   -0.34047E-04   324   0.194E-02
  79 F= -.67165742E+03 E0= -.67159497E+03  d E =-.384046E-03
       N       E                     dE             d eps       ncg     rms          rms(c)
DAV:   1    -0.656448289710E+03    0.16088E-04   -0.77050E-02   600   0.341E-01    0.124E-01
DAV:   2    -0.656450000303E+03   -0.17106E-02   -0.67826E-03   900   0.117E-01    0.842E-01
DAV:   3    -0.656448686021E+03    0.13143E-02   -0.93693E-03   576   0.960E-02    0.362E-01
DAV:   4    -0.656448426961E+03    0.25906E-03   -0.12608E-03   420   0.363E-02    0.655E-02
DAV:   5    -0.656448427719E+03   -0.75886E-06   -0.99257E-05   348   0.194E-02
  80 F= -.67165759E+03 E0= -.67159473E+03  d E =-.553722E-03
       N       E                     dE             d eps       ncg     rms          rms(c)
DAV:   1    -0.656448699993E+03   -0.27303E-03   -0.40906E-02   600   0.251E-01    0.142E-01
DAV:   2    -0.656456204008E+03   -0.75040E-02   -0.20723E-02   876   0.201E-01    0.170E+00
DAV:   3    -0.656449341403E+03    0.68626E-02   -0.17769E-02   780   0.178E-01    0.397E-01
DAV:   4    -0.656448858445E+03    0.48296E-03   -0.11414E-03   720   0.622E-02    0.117E-01
DAV:   5    -0.656448696113E+03    0.16233E-03   -0.14015E-04   384   0.239E-02    0.499E-02
DAV:   6    -0.656448693827E+03    0.22859E-05   -0.48548E-05   300   0.119E-02
  81 F= -.67165776E+03 E0= -.67159527E+03  d E =-.173439E-03
       N       E                     dE             d eps       ncg     rms          rms(c)
DAV:   1    -0.656448749151E+03   -0.53037E-04   -0.33676E-01   600   0.715E-01    0.221E-01
DAV:   2    -0.656449665725E+03   -0.91657E-03   -0.91406E-03   876   0.146E-01    0.389E-01
DAV:   3    -0.656453350891E+03   -0.36852E-02   -0.45139E-02   660   0.161E-01    0.135E+00
DAV:   4    -0.656449458275E+03    0.38926E-02   -0.32520E-02   588   0.102E-01    0.104E-01
DAV:   5    -0.656449559427E+03   -0.10115E-03   -0.25571E-03   528   0.471E-02    0.322E-01
DAV:   6    -0.656449390777E+03    0.16865E-03   -0.45374E-04   528   0.295E-02    0.305E-01
DAV:   7    -0.656449210408E+03    0.18037E-03   -0.20077E-04   348   0.197E-02    0.113E-01
DAV:   8    -0.656449218017E+03   -0.76097E-05   -0.14087E-04   384   0.151E-02
  82 F= -.67165802E+03 E0= -.67159555E+03  d E =-.433525E-03
       N       E                     dE             d eps       ncg     rms          rms(c)
DAV:   1    -0.656449775704E+03   -0.56530E-03   -0.48336E-02   600   0.267E-01    0.884E-02
DAV:   2    -0.656449923262E+03   -0.14756E-03   -0.15147E-03   816   0.505E-02    0.185E-01
DAV:   3    -0.656450463025E+03   -0.53976E-03   -0.30865E-03   516   0.594E-02    0.526E-01
DAV:   4    -0.656449881074E+03    0.58195E-03   -0.24972E-03   456   0.535E-02    0.104E-01
DAV:   5    -0.656449869222E+03    0.11852E-04   -0.36395E-04   396   0.188E-02
  83 F= -.67165846E+03 E0= -.67159598E+03  d E =-.436183E-03
       N       E                     dE             d eps       ncg     rms          rms(c)
DAV:   1    -0.656450243415E+03   -0.36234E-03   -0.15685E-01   600   0.483E-01    0.172E-01
DAV:   2    -0.656452865950E+03   -0.26225E-02   -0.19177E-02   900   0.128E-01    0.105E+00
DAV:   3    -0.656451162133E+03    0.17038E-02   -0.28385E-02   672   0.122E-01    0.559E-01
DAV:   4    -0.656450699325E+03    0.46281E-03   -0.53805E-03   528   0.725E-02    0.290E-01
DAV:   5    -0.656450511803E+03    0.18752E-03   -0.10485E-03   444   0.324E-02    0.131E-01
DAV:   6    -0.656450413922E+03    0.97881E-04   -0.15824E-04   408   0.215E-02
  84 F= -.67165861E+03 E0= -.67159614E+03  d E =-.593225E-03
       N       E                     dE             d eps       ncg     rms          rms(c)
DAV:   1    -0.656450330536E+03    0.18127E-03   -0.67366E-03   576   0.100E-01    0.353E-02
DAV:   2    -0.656450371283E+03   -0.40747E-04   -0.29486E-04   432   0.255E-02
  85 F= -.67165865E+03 E0= -.67159632E+03  d E =-.628058E-03
       N       E                     dE             d eps       ncg     rms          rms(c)
DAV:   1    -0.656451159259E+03   -0.82872E-03   -0.75216E-02   600   0.349E-01    0.281E-01
DAV:   2    -0.656483412723E+03   -0.32253E-01   -0.31842E-01   876   0.384E-01    0.311E+00
DAV:   3    -0.656452740191E+03    0.30673E-01   -0.27572E-01   780   0.325E-01    0.619E-01
DAV:   4    -0.656451979289E+03    0.76090E-03   -0.67455E-03   684   0.897E-02    0.495E-01
DAV:   5    -0.656451226501E+03    0.75279E-03   -0.51154E-04   516   0.406E-02    0.282E-01
DAV:   6    -0.656451145354E+03    0.81147E-04   -0.25865E-04   372   0.200E-02
  86 F= -.67165903E+03 E0= -.67159612E+03  d E =-.384025E-03
       N       E                     dE             d eps       ncg     rms          rms(c)
DAV:   1    -0.656451303282E+03   -0.76781E-04   -0.16921E-02   600   0.165E-01    0.608E-02
DAV:   2    -0.656451408512E+03   -0.10523E-03   -0.53434E-04   564   0.378E-02    0.946E-02
DAV:   3    -0.656451577280E+03   -0.16877E-03   -0.11547E-03   444   0.446E-02    0.324E-01
DAV:   4    -0.656451381796E+03    0.19548E-03   -0.15930E-03   384   0.340E-02    0.970E-02
DAV:   5    -0.656451351423E+03    0.30373E-04   -0.32298E-04   336   0.203E-02
  87 F= -.67165905E+03 E0= -.67159669E+03  d E =-.406037E-03
       N       E                     dE             d eps       ncg     rms          rms(c)
DAV:   1    -0.656451643521E+03   -0.26172E-03   -0.66239E-02   600   0.328E-01    0.146E-01
DAV:   2    -0.656456605190E+03   -0.49617E-02   -0.42713E-02   876   0.143E-01    0.145E+00
DAV:   3    -0.656452311544E+03    0.42936E-02   -0.55441E-02   684   0.138E-01    0.447E-01
DAV:   4    -0.656451922945E+03    0.38860E-03   -0.27140E-03   492   0.576E-02    0.270E-01
DAV:   5    -0.656451704554E+03    0.21839E-03   -0.18166E-04   384   0.249E-02    0.763E-02
DAV:   6    -0.656451678428E+03    0.26126E-04   -0.21997E-04   312   0.189E-02
  88 F= -.67165901E+03 E0= -.67159647E+03  d E =-.365126E-03
       N       E                     dE             d eps       ncg     rms          rms(c)
DAV:   1    -0.656451491576E+03    0.21298E-03   -0.21482E-02   600   0.186E-01    0.622E-02
DAV:   2    -0.656452136365E+03   -0.64479E-03   -0.31052E-03   684   0.611E-02    0.517E-01
DAV:   3    -0.656451518562E+03    0.61780E-03   -0.37872E-03   420   0.545E-02    0.153E-01
DAV:   4    -0.656451582307E+03   -0.63745E-04   -0.61409E-04   372   0.265E-02
  89 F= -.67165912E+03 E0= -.67159691E+03  d E =-.475582E-03
       N       E                     dE             d eps       ncg     rms          rms(c)
DAV:   1    -0.656452086866E+03   -0.56830E-03   -0.89022E-02   600   0.376E-01    0.118E-01
DAV:   2    -0.656453663194E+03   -0.15763E-02   -0.10716E-02   828   0.954E-02    0.814E-01
DAV:   3    -0.656452536162E+03    0.11270E-02   -0.15892E-02   564   0.927E-02    0.412E-01
DAV:   4    -0.656452302665E+03    0.23350E-03   -0.17726E-03   420   0.494E-02    0.184E-01
DAV:   5    -0.656452220931E+03    0.81734E-04   -0.93817E-05   348   0.211E-02
  90 F= -.67165946E+03 E0= -.67159728E+03  d E =-.335254E-03
       N       E                     dE             d eps       ncg     rms          rms(c)
DAV:   1    -0.656452504470E+03   -0.20180E-03   -0.39014E-01   600   0.787E-01    0.233E-01
DAV:   2    -0.656455373155E+03   -0.28687E-02   -0.24544E-02   864   0.155E-01    0.105E+00
DAV:   3    -0.656454728081E+03    0.64507E-03   -0.42419E-02   780   0.147E-01    0.874E-01
DAV:   4    -0.656453302495E+03    0.14256E-02   -0.72850E-03   624   0.100E-01    0.341E-01
DAV:   5    -0.656453177045E+03    0.12545E-03   -0.53886E-04   648   0.460E-02    0.130E-01
DAV:   6    -0.656452844545E+03    0.33250E-03   -0.86941E-04   624   0.363E-02    0.445E-02
DAV:   7    -0.656452862970E+03   -0.18425E-04   -0.13799E-04   432   0.246E-02
  91 F= -.67165946E+03 E0= -.67159745E+03  d E =-.339825E-03
       N       E                     dE             d eps       ncg     rms          rms(c)
DAV:   1    -0.656452674005E+03    0.17054E-03   -0.50912E-02   600   0.284E-01    0.805E-02
DAV:   2    -0.656452752572E+03   -0.78566E-04   -0.10630E-03   732   0.492E-02    0.839E-02
DAV:   3    -0.656453122329E+03   -0.36976E-03   -0.23130E-03   396   0.422E-02    0.417E-01
DAV:   4    -0.656452744955E+03    0.37737E-03   -0.26780E-03   396   0.430E-02    0.136E-01
DAV:   5    -0.656452757067E+03   -0.12112E-04   -0.79979E-05   360   0.189E-02
  92 F= -.67165959E+03 E0= -.67159704E+03  d E =-.462777E-03
       N       E                     dE             d eps       ncg     rms          rms(c)
DAV:   1    -0.656453030729E+03   -0.28577E-03   -0.93362E-02   600   0.365E-01    0.117E-01
DAV:   2    -0.656453958312E+03   -0.92758E-03   -0.49082E-03   888   0.840E-02    0.593E-01
DAV:   3    -0.656453593386E+03    0.36493E-03   -0.87347E-03   624   0.818E-02    0.463E-01
DAV:   4    -0.656453291068E+03    0.30232E-03   -0.31375E-03   516   0.552E-02    0.144E-01
DAV:   5    -0.656453169737E+03    0.12133E-03   -0.47875E-04   348   0.247E-02    0.405E-02
DAV:   6    -0.656453162500E+03    0.72363E-05   -0.65211E-05   300   0.150E-02
  93 F= -.67165993E+03 E0= -.67159752E+03  d E =-.340009E-03
       N       E                     dE             d eps       ncg     rms          rms(c)
DAV:   1    -0.656452496486E+03    0.67325E-03   -0.73035E-01   600   0.102E+00    0.315E-01
DAV:   2    -0.656457351744E+03   -0.48553E-02   -0.44285E-02   864   0.206E-01    0.131E+00
DAV:   3    -0.656457277790E+03    0.73955E-04   -0.81213E-02   864   0.199E-01    0.124E+00
DAV:   4    -0.656453911116E+03    0.33667E-02   -0.12499E-02   660   0.127E-01    0.359E-01
DAV:   5    -0.656453794929E+03    0.11619E-03   -0.92664E-04   696   0.530E-02    0.138E-01
DAV:   6    -0.656453411737E+03    0.38319E-03   -0.13865E-03   672   0.451E-02    0.755E-02
DAV:   7    -0.656453424832E+03   -0.13096E-04   -0.21991E-04   480   0.297E-02
  94 F= -.67166000E+03 E0= -.67159837E+03  d E =-.419447E-03
       N       E                     dE             d eps       ncg     rms          rms(c)
DAV:   1    -0.656453325919E+03    0.85818E-04   -0.10674E-01   600   0.389E-01    0.122E-01
DAV:   2    -0.656455064858E+03   -0.17389E-02   -0.12191E-02   900   0.116E-01    0.833E-01
DAV:   3    -0.656453629922E+03    0.14349E-02   -0.12952E-02   600   0.861E-02    0.293E-01
DAV:   4    -0.656453500837E+03    0.12909E-03   -0.73760E-04   540   0.354E-02    0.787E-02
DAV:   5    -0.656453462357E+03    0.38480E-04   -0.10299E-04   348   0.180E-02
  95 F= -.67166011E+03 E0= -.67159797E+03  d E =-.526365E-03
       N       E                     dE             d eps       ncg     rms          rms(c)
DAV:   1    -0.656453616893E+03   -0.11606E-03   -0.69733E-02   600   0.312E-01    0.111E-01
DAV:   2    -0.656455333058E+03   -0.17162E-02   -0.70019E-03   864   0.948E-02    0.822E-01
DAV:   3    -0.656454023939E+03    0.13091E-02   -0.11419E-02   600   0.901E-02    0.372E-01
DAV:   4    -0.656453990154E+03    0.33785E-04   -0.35637E-03   600   0.570E-02    0.164E-01
DAV:   5    -0.656453705788E+03    0.28437E-03   -0.56218E-04   372   0.292E-02    0.576E-02
DAV:   6    -0.656453708466E+03   -0.26788E-05   -0.73983E-05   300   0.167E-02
  96 F= -.67166045E+03 E0= -.67159807E+03  d E =-.341410E-03
       N       E                     dE             d eps       ncg     rms          rms(c)
DAV:   1    -0.656453023151E+03    0.68264E-03   -0.61180E-01   600   0.926E-01    0.284E-01
DAV:   2    -0.656454009976E+03   -0.98682E-03   -0.13464E-02   840   0.160E-01    0.261E-01
DAV:   3    -0.656458595005E+03   -0.45850E-02   -0.15379E-02   768   0.135E-01    0.142E+00
DAV:   4    -0.656454167302E+03    0.44277E-02   -0.19096E-02   648   0.147E-01    0.420E-01
DAV:   5    -0.656454263426E+03   -0.96125E-04   -0.16181E-03   756   0.599E-02    0.217E-01
DAV:   6    -0.656453779592E+03    0.48383E-03   -0.75879E-04   612   0.388E-02    0.130E-01
DAV:   7    -0.656453758872E+03    0.20721E-04   -0.19904E-04   372   0.215E-02
  97 F= -.67166079E+03 E0= -.67159900E+03  d E =-.678505E-03
       N       E                     dE             d eps       ncg     rms          rms(c)
DAV:   1    -0.656453695449E+03    0.84143E-04   -0.12332E-01   600   0.432E-01    0.124E-01
DAV:   2    -0.656454094619E+03   -0.39917E-03   -0.35574E-03   816   0.788E-02    0.332E-01
DAV:   3    -0.656454617361E+03   -0.52274E-03   -0.61880E-03   540   0.710E-02    0.578E-01
DAV:   4    -0.656453956175E+03    0.66119E-03   -0.42122E-03   504   0.620E-02    0.197E-01
DAV:   5    -0.656453879195E+03    0.76980E-04   -0.45669E-04   420   0.242E-02
  98 F= -.67166123E+03 E0= -.67159905E+03  d E =-.435609E-03
       N       E                     dE             d eps       ncg     rms          rms(c)
DAV:   1    -0.656451979222E+03    0.19770E-02   -0.11086E+00   600   0.129E+00    0.359E-01
DAV:   2    -0.656453766835E+03   -0.17876E-02   -0.25952E-02   804   0.219E-01    0.300E-01
DAV:   3    -0.656461663752E+03   -0.78969E-02   -0.92441E-02   840   0.202E-01    0.183E+00
DAV:   4    -0.656454041773E+03    0.76220E-02   -0.62267E-02   696   0.162E-01    0.264E-01
DAV:   5    -0.656453773274E+03    0.26850E-03   -0.15666E-03   720   0.741E-02    0.459E-01
DAV:   6    -0.656453448894E+03    0.32438E-03   -0.10054E-03   672   0.482E-02    0.271E-01
DAV:   7    -0.656453138137E+03    0.31076E-03   -0.12610E-03   648   0.355E-02    0.116E-01
DAV:   8    -0.656453140340E+03   -0.22023E-05   -0.19352E-04   504   0.242E-02
  99 F= -.67166143E+03 E0= -.67159938E+03  d E =-.643940E-03
       N       E                     dE             d eps       ncg     rms          rms(c)
DAV:   1    -0.656453402545E+03   -0.26441E-03   -0.84870E-02   600   0.357E-01    0.101E-01
DAV:   2    -0.656453526878E+03   -0.12433E-03   -0.18155E-03   780   0.597E-02    0.674E-02
DAV:   3    -0.656453595708E+03   -0.68831E-04   -0.62506E-04   396   0.260E-02
 100 F= -.67166163E+03 E0= -.67159953E+03  d E =-.837866E-03
       N       E                     dE             d eps       ncg     rms          rms(c)
DAV:   1    -0.656453322724E+03    0.20415E-03   -0.15461E-01   600   0.484E-01    0.210E-01
DAV:   2    -0.656470082946E+03   -0.16760E-01   -0.16264E-01   888   0.236E-01    0.246E+00
DAV:   3    -0.656454605830E+03    0.15477E-01   -0.16138E-01   768   0.233E-01    0.501E-01
DAV:   4    -0.656454003443E+03    0.60239E-03   -0.53812E-03   636   0.740E-02    0.288E-01
DAV:   5    -0.656453534222E+03    0.46922E-03   -0.67473E-04   432   0.382E-02    0.157E-01
DAV:   6    -0.656453510791E+03    0.23431E-04   -0.74426E-05   336   0.188E-02
 101 F= -.67166202E+03 E0= -.67159977E+03  d E =-.396378E-03
       N       E                     dE             d eps       ncg     rms          rms(c)
DAV:   1    -0.656450832994E+03    0.27012E-02   -0.13748E+00   600   0.145E+00    0.376E-01
DAV:   2    -0.656457038178E+03   -0.62052E-02   -0.38524E-02   852   0.273E-01    0.138E+00
DAV:   3    -0.656456983088E+03    0.55090E-04   -0.95192E-02   864   0.249E-01    0.140E+00
DAV:   4    -0.656452965423E+03    0.40177E-02   -0.29631E-02   744   0.123E-01    0.272E-01
DAV:   5    -0.656453391575E+03   -0.42615E-03   -0.15782E-03   768   0.753E-02    0.389E-01
DAV:   6    -0.656452804924E+03    0.58665E-03   -0.43513E-03   804   0.665E-02    0.442E-01
[...]
DAV:   1    -0.656421454744E+03    0.46882E-03   -0.94103E-03   600   0.132E-01    0.508E-02
DAV:   2    -0.656421774228E+03   -0.31948E-03   -0.22369E-03   444   0.460E-02    0.275E-01
DAV:   3    -0.656421601958E+03    0.17227E-03   -0.33695E-03   408   0.499E-02    0.251E-01
DAV:   4    -0.656421459205E+03    0.14275E-03   -0.24361E-04   360   0.238E-02    0.390E-02
DAV:   5    -0.656421449793E+03    0.94114E-05   -0.29652E-05   312   0.146E-02
 422 F= -.67178587E+03 E0= -.67172344E+03  d E =-.158676E-03
       N       E                     dE             d eps       ncg     rms          rms(c)
DAV:   1    -0.656421852578E+03   -0.39337E-03   -0.25284E-02   600   0.210E-01    0.795E-02
DAV:   2    -0.656422696492E+03   -0.84391E-03   -0.41246E-03   636   0.711E-02    0.608E-01
DAV:   3    -0.656421967262E+03    0.72923E-03   -0.69793E-03   480   0.735E-02    0.237E-01
DAV:   4    -0.656421961086E+03    0.61764E-05   -0.16038E-03   420   0.322E-02    0.104E-01
DAV:   5    -0.656421883326E+03    0.77760E-04   -0.19336E-04   324   0.182E-02
 423 F= -.67178604E+03 E0= -.67172387E+03  d E =-.175115E-03
       N       E                     dE             d eps       ncg     rms          rms(c)
DAV:   1    -0.656422591775E+03   -0.63069E-03   -0.22068E-01   600   0.622E-01    0.205E-01
DAV:   2    -0.656423050711E+03   -0.45894E-03   -0.65477E-03   804   0.108E-01    0.332E-01
DAV:   3    -0.656426399406E+03   -0.33487E-02   -0.37800E-02   672   0.140E-01    0.123E+00
DAV:   4    -0.656423030850E+03    0.33686E-02   -0.29999E-02   600   0.128E-01    0.254E-01
DAV:   5    -0.656422882484E+03    0.14837E-03   -0.10530E-03   444   0.391E-02    0.159E-01
DAV:   6    -0.656422805422E+03    0.77062E-04   -0.28702E-04   360   0.256E-02
 424 F= -.67178620E+03 E0= -.67172386E+03  d E =-.329918E-03
       N       E                     dE             d eps       ncg     rms          rms(c)
DAV:   1    -0.656423136943E+03   -0.25446E-03   -0.16914E-02   600   0.175E-01    0.117E-01
DAV:   2    -0.656428472793E+03   -0.53359E-02   -0.14419E-02   756   0.151E-01    0.142E+00
DAV:   3    -0.656423902280E+03    0.45705E-02   -0.34147E-02   612   0.150E-01    0.369E-01
DAV:   4    -0.656423151271E+03    0.75101E-03   -0.58031E-03   600   0.582E-02    0.117E-01
DAV:   5    -0.656423090316E+03    0.60955E-04   -0.14897E-04   336   0.213E-02
 425 F= -.67178625E+03 E0= -.67172379E+03  d E =-.490255E-04
       N       E                     dE             d eps       ncg     rms          rms(c)
DAV:   1    -0.656423499768E+03   -0.34850E-03   -0.39709E-02   600   0.267E-01    0.742E-02
DAV:   2    -0.656423794587E+03   -0.29482E-03   -0.21729E-03   756   0.634E-02    0.326E-01
DAV:   3    -0.656423614304E+03    0.18028E-03   -0.32813E-03   420   0.470E-02    0.222E-01
DAV:   4    -0.656423557787E+03    0.56517E-04   -0.63263E-04   360   0.210E-02
 426 F= -.67178635E+03 E0= -.67172407E+03  d E =-.154768E-03
       N       E                     dE             d eps       ncg     rms          rms(c)
DAV:   1    -0.656424124812E+03   -0.51051E-03   -0.15896E-01   600   0.534E-01    0.148E-01
DAV:   2    -0.656425096764E+03   -0.97195E-03   -0.98213E-03   852   0.118E-01    0.562E-01
DAV:   3    -0.656424758244E+03    0.33852E-03   -0.15038E-02   624   0.934E-02    0.489E-01
DAV:   4    -0.656424486198E+03    0.27205E-03   -0.11758E-03   576   0.471E-02    0.987E-02
DAV:   5    -0.656424328512E+03    0.15769E-03   -0.27026E-04   432   0.316E-02    0.143E-01
DAV:   6    -0.656424265626E+03    0.62887E-04   -0.16228E-04   432   0.244E-02
 427 F= -.67178634E+03 E0= -.67172373E+03  d E =-.139835E-03
       N       E                     dE             d eps       ncg     rms          rms(c)
DAV:   1    -0.656424953862E+03   -0.62535E-03   -0.60243E-02   600   0.328E-01    0.114E-01
DAV:   2    -0.656427626779E+03   -0.26729E-02   -0.21205E-02   864   0.119E-01    0.106E+00
DAV:   3    -0.656425240284E+03    0.23865E-02   -0.26103E-02   624   0.120E-01    0.283E-01
DAV:   4    -0.656425076857E+03    0.16343E-03   -0.16823E-03   420   0.373E-02    0.127E-01
DAV:   5    -0.656425006853E+03    0.70004E-04   -0.16431E-04   324   0.150E-02
 428 F= -.67178662E+03 E0= -.67172405E+03  d E =-.277310E-03
       N       E                     dE             d eps       ncg     rms          rms(c)
DAV:   1    -0.656426102894E+03   -0.10260E-02   -0.54177E-01   600   0.981E-01    0.268E-01
DAV:   2    -0.656427308064E+03   -0.12052E-02   -0.12395E-02   804   0.164E-01    0.313E-01
DAV:   3    -0.656431871392E+03   -0.45633E-02   -0.16547E-02   756   0.164E-01    0.145E+00
DAV:   4    -0.656428137464E+03    0.37339E-02   -0.40043E-02   780   0.150E-01    0.394E-01
DAV:   5    -0.656426759775E+03    0.13777E-02   -0.10444E-02   672   0.729E-02    0.248E-01
DAV:   6    -0.656426639179E+03    0.12060E-03   -0.33710E-04   444   0.283E-02    0.941E-02
DAV:   7    -0.656426592021E+03    0.47158E-04   -0.38630E-04   396   0.244E-02
 429 F= -.67178681E+03 E0= -.67172427E+03  d E =-.472954E-03
       N       E                     dE             d eps       ncg     rms          rms(c)
DAV:   1    -0.656427421332E+03   -0.78215E-03   -0.15459E-01   600   0.523E-01    0.124E-01
DAV:   2    -0.656427687622E+03   -0.26629E-03   -0.32809E-03   804   0.842E-02    0.178E-01
DAV:   3    -0.656428832543E+03   -0.11449E-02   -0.77965E-03   504   0.783E-02    0.748E-01
DAV:   4    -0.656427560851E+03    0.12717E-02   -0.66351E-03   480   0.725E-02    0.123E-01
DAV:   5    -0.656427705951E+03   -0.14510E-03   -0.11366E-03   456   0.265E-02    0.199E-01
DAV:   6    -0.656427635426E+03    0.70525E-04   -0.13884E-04   348   0.186E-02
 430 F= -.67178712E+03 E0= -.67172502E+03  d E =-.308837E-03
       N       E                     dE             d eps       ncg     rms          rms(c)
DAV:   1    -0.656427999755E+03   -0.29380E-03   -0.49744E-02   600   0.297E-01    0.138E-01
DAV:   2    -0.656434005253E+03   -0.60055E-02   -0.50967E-02   888   0.163E-01    0.153E+00
DAV:   3    -0.656428514654E+03    0.54906E-02   -0.56490E-02   768   0.163E-01    0.371E-01
DAV:   4    -0.656428312017E+03    0.20264E-03   -0.14157E-03   648   0.571E-02    0.171E-01
DAV:   5    -0.656428047065E+03    0.26495E-03   -0.42397E-04   372   0.306E-02    0.107E-01
DAV:   6    -0.656428033337E+03    0.13728E-04   -0.10064E-04   300   0.156E-02
 431 F= -.67178710E+03 E0= -.67172456E+03  d E =-.290785E-03
       N       E                     dE             d eps       ncg     rms          rms(c)
DAV:   1    -0.656428942338E+03   -0.89527E-03   -0.12088E-01   600   0.465E-01    0.137E-01
DAV:   2    -0.656429151870E+03   -0.20953E-03   -0.30497E-03   792   0.789E-02    0.911E-02
DAV:   3    -0.656429442731E+03   -0.29086E-03   -0.28840E-03   612   0.477E-02    0.268E-01
DAV:   4    -0.656429221661E+03    0.22107E-03   -0.27935E-03   408   0.460E-02    0.220E-01
DAV:   5    -0.656429072991E+03    0.14867E-03   -0.44926E-04   456   0.305E-02    0.961E-02
DAV:   6    -0.656429053114E+03    0.19877E-04   -0.74797E-05   360   0.167E-02
 432 F= -.67178747E+03 E0= -.67172499E+03  d E =-.371203E-03
       N       E                     dE             d eps       ncg     rms          rms(c)
DAV:   1    -0.656429557743E+03   -0.48475E-03   -0.71845E-02   600   0.359E-01    0.107E-01
DAV:   2    -0.656429752818E+03   -0.19507E-03   -0.24270E-03   792   0.677E-02    0.206E-01
DAV:   3    -0.656430532279E+03   -0.77946E-03   -0.82216E-03   528   0.740E-02    0.648E-01
DAV:   4    -0.656429662487E+03    0.86979E-03   -0.36300E-03   432   0.583E-02    0.871E-02
DAV:   5    -0.656429644697E+03    0.17790E-04   -0.11529E-04   408   0.238E-02
 433 F= -.67178756E+03 E0= -.67172541E+03  d E =-.462170E-03
       N       E                     dE             d eps       ncg     rms          rms(c)
DAV:   1    -0.656430130467E+03   -0.46798E-03   -0.31473E-02   600   0.242E-01    0.738E-02
DAV:   2    -0.656431040189E+03   -0.90972E-03   -0.60503E-03   744   0.783E-02    0.621E-01
DAV:   3    -0.656430205315E+03    0.83487E-03   -0.75005E-03   492   0.686E-02    0.183E-01
DAV:   4    -0.656430193660E+03    0.11655E-04   -0.75020E-04   408   0.246E-02
 434 F= -.67178773E+03 E0= -.67172531E+03  d E =-.165373E-03
       N       E                     dE             d eps       ncg     rms          rms(c)
DAV:   1    -0.656430593146E+03   -0.38783E-03   -0.32550E-02   600   0.245E-01    0.718E-02
DAV:   2    -0.656430965145E+03   -0.37200E-03   -0.16970E-03   708   0.516E-02    0.145E-01
DAV:   3    -0.656430812100E+03    0.15304E-03   -0.38973E-03   528   0.528E-02    0.322E-01
DAV:   4    -0.656430669069E+03    0.14303E-03   -0.14507E-03   396   0.396E-02    0.115E-01
DAV:   5    -0.656430603269E+03    0.65800E-04   -0.83383E-05   336   0.195E-02
 435 F= -.67178775E+03 E0= -.67172545E+03  d E =-.188264E-03
       N       E                     dE             d eps       ncg     rms          rms(c)
DAV:   1    -0.656431015640E+03   -0.34657E-03   -0.18012E-02   600   0.182E-01    0.550E-02
DAV:   2    -0.656431097631E+03   -0.81990E-04   -0.79843E-04   492   0.359E-02
 436 F= -.67178795E+03 E0= -.67172529E+03  d E =-.201553E-03
       N       E                     dE             d eps       ncg     rms          rms(c)
DAV:   1    -0.656431394818E+03   -0.37918E-03   -0.12263E-02   648   0.147E-01    0.206E-01
DAV:   2    -0.656450744278E+03   -0.19349E-01   -0.18241E-01   840   0.271E-01    0.253E+00
DAV:   3    -0.656431867943E+03    0.18876E-01   -0.15642E-01   768   0.257E-01    0.395E-01
DAV:   4    -0.656431536012E+03    0.33193E-03   -0.36647E-03   576   0.594E-02    0.220E-01
DAV:   5    -0.656431368390E+03    0.16762E-03   -0.32830E-04   348   0.270E-02    0.195E-01
DAV:   6    -0.656431315222E+03    0.53168E-04   -0.11146E-04   312   0.156E-02
 437 F= -.67178795E+03 E0= -.67172553E+03  d E =-.196472E-03
       N       E                     dE             d eps       ncg     rms          rms(c)
DAV:   1    -0.656431742435E+03   -0.37405E-03   -0.42413E-02   600   0.278E-01    0.884E-02
DAV:   2    -0.656432302541E+03   -0.56011E-03   -0.42732E-03   804   0.627E-02    0.364E-01
DAV:   3    -0.656432177104E+03    0.12544E-03   -0.83833E-03   540   0.701E-02    0.435E-01
DAV:   4    -0.656431953723E+03    0.22338E-03   -0.13832E-03   588   0.514E-02    0.111E-01
DAV:   5    -0.656431769703E+03    0.18402E-03   -0.14633E-04   360   0.249E-02    0.381E-02
DAV:   6    -0.656431769682E+03    0.20675E-07   -0.47235E-05   300   0.124E-02
 438 F= -.67178796E+03 E0= -.67172556E+03  d E =-.206003E-03
       N       E                     dE             d eps       ncg     rms          rms(c)
DAV:   1    -0.656432322922E+03   -0.55322E-03   -0.38166E-02   600   0.263E-01    0.751E-02
DAV:   2    -0.656432393358E+03   -0.70437E-04   -0.85860E-04   696   0.450E-02
 439 F= -.67178810E+03 E0= -.67172568E+03  d E =-.141669E-03
       N       E                     dE             d eps       ncg     rms          rms(c)
DAV:   1    -0.656433014835E+03   -0.69191E-03   -0.65842E-03   672   0.974E-02    0.481E-01
DAV:   2    -0.656517618377E+03   -0.84604E-01   -0.77096E-01   852   0.679E-01    0.369E+00
DAV:   3    -0.656433815225E+03    0.83803E-01   -0.16742E-01   828   0.586E-01    0.415E-01
DAV:   4    -0.656433346746E+03    0.46848E-03   -0.10697E-02   720   0.910E-02    0.550E-01
DAV:   5    -0.656432620247E+03    0.72650E-03   -0.13746E-03   540   0.373E-02    0.276E-01
DAV:   6    -0.656432484810E+03    0.13544E-03   -0.38373E-04   432   0.226E-02    0.173E-01
DAV:   7    -0.656432497975E+03   -0.13165E-04   -0.24342E-04   444   0.169E-02
 440 F= -.67178807E+03 E0= -.67172597E+03  d E =-.112400E-03
       N       E                     dE             d eps       ncg     rms          rms(c)
DAV:   1    -0.656432797085E+03   -0.31228E-03   -0.11970E-02   600   0.148E-01    0.393E-02
DAV:   2    -0.656432978233E+03   -0.18115E-03   -0.80288E-04   492   0.397E-02    0.263E-01
DAV:   3    -0.656432814075E+03    0.16416E-03   -0.87976E-04   384   0.303E-02    0.527E-02
DAV:   4    -0.656432842384E+03   -0.28310E-04   -0.32408E-04   324   0.165E-02
 441 F= -.67178815E+03 E0= -.67172571E+03  d E =-.189133E-03
       N       E                     dE             d eps       ncg     rms          rms(c)
DAV:   1    -0.656433321788E+03   -0.50771E-03   -0.47691E-02   600   0.293E-01    0.959E-02
DAV:   2    -0.656434600489E+03   -0.12787E-02   -0.70519E-03   828   0.896E-02    0.737E-01
DAV:   3    -0.656433560270E+03    0.10402E-02   -0.10903E-02   528   0.869E-02    0.304E-01
DAV:   4    -0.656433464941E+03    0.95330E-04   -0.18286E-03   420   0.371E-02    0.108E-01
DAV:   5    -0.656433375439E+03    0.89502E-04   -0.33870E-04   336   0.218E-02
 442 F= -.67178815E+03 E0= -.67172567E+03  d E =-.187195E-03
       N       E                     dE             d eps       ncg     rms          rms(c)
DAV:   1    -0.656434045073E+03   -0.58013E-03   -0.52373E-02   600   0.307E-01    0.844E-02
DAV:   2    -0.656434454588E+03   -0.40952E-03   -0.17399E-03   780   0.615E-02    0.364E-01
DAV:   3    -0.656434327597E+03    0.12699E-03   -0.38087E-03   480   0.592E-02    0.340E-01
DAV:   4    -0.656434256465E+03    0.71132E-04   -0.27154E-03   480   0.438E-02    0.114E-01
DAV:   5    -0.656434085342E+03    0.17112E-03   -0.41053E-04   360   0.242E-02    0.308E-02
DAV:   6    -0.656434093512E+03   -0.81699E-05   -0.60277E-05   300   0.133E-02
 443 F= -.67178834E+03 E0= -.67172594E+03  d E =-.192032E-03
       N       E                     dE             d eps       ncg     rms          rms(c)
DAV:   1    -0.656434556248E+03   -0.47091E-03   -0.41759E-02   600   0.274E-01    0.703E-02
DAV:   2    -0.656434707307E+03   -0.15106E-03   -0.15017E-03   744   0.539E-02    0.210E-01
DAV:   3    -0.656434782650E+03   -0.75343E-04   -0.25628E-03   480   0.456E-02    0.296E-01
DAV:   4    -0.656434593618E+03    0.18903E-03   -0.76952E-04   384   0.248E-02    0.337E-02
DAV:   5    -0.656434609648E+03   -0.16030E-04   -0.42368E-05   324   0.933E-03
 444 F= -.67178839E+03 E0= -.67172596E+03  d E =-.239632E-03
       N       E                     dE             d eps       ncg     rms          rms(c)
DAV:   1    -0.656435068428E+03   -0.47481E-03   -0.37201E-02   600   0.262E-01    0.943E-02
DAV:   2    -0.656436768121E+03   -0.16997E-02   -0.99506E-03   840   0.101E-01    0.810E-01
DAV:   3    -0.656435349819E+03    0.14183E-02   -0.11962E-02   600   0.966E-02    0.333E-01
DAV:   4    -0.656435227061E+03    0.12276E-03   -0.64096E-04   612   0.439E-02    0.755E-02
DAV:   5    -0.656435084064E+03    0.14300E-03   -0.16529E-04   336   0.228E-02    0.276E-02
DAV:   6    -0.656435088054E+03   -0.39897E-05   -0.43178E-05   300   0.120E-02
 445 F= -.67178849E+03 E0= -.67172615E+03  d E =-.998781E-04
       N       E                     dE             d eps       ncg     rms          rms(c)
DAV:   1    -0.656435329028E+03   -0.24496E-03   -0.15073E-02   600   0.167E-01    0.595E-02
DAV:   2    -0.656435788519E+03   -0.45949E-03   -0.22755E-03   528   0.566E-02    0.452E-01
DAV:   3    -0.656435417293E+03    0.37123E-03   -0.39845E-03   420   0.552E-02    0.204E-01
DAV:   4    -0.656435364877E+03    0.52416E-04   -0.70025E-04   396   0.228E-02
 446 F= -.67178852E+03 E0= -.67172631E+03  d E =-.135316E-03
       N       E                     dE             d eps       ncg     rms          rms(c)
DAV:   1    -0.656435814672E+03   -0.39738E-03   -0.25554E-02   600   0.220E-01    0.591E-02
DAV:   2    -0.656435928003E+03   -0.11333E-03   -0.74843E-04   576   0.396E-02    0.106E-01
DAV:   3    -0.656436019754E+03   -0.91752E-04   -0.20955E-03   384   0.416E-02    0.293E-01
DAV:   4    -0.656435895599E+03    0.12416E-03   -0.10319E-03   396   0.349E-02    0.964E-02
DAV:   5    -0.656435833541E+03    0.62058E-04   -0.50176E-05   336   0.177E-02
 447 F= -.67178859E+03 E0= -.67172618E+03  d E =-.701688E-04
       N       E                     dE             d eps       ncg     rms          rms(c)
DAV:   1    -0.656436166832E+03   -0.27123E-03   -0.18473E-02   600   0.188E-01    0.468E-02
DAV:   2    -0.656436184850E+03   -0.18018E-04   -0.31347E-04   444   0.289E-02
 448 F= -.67178860E+03 E0= -.67172619E+03  d E =-.799849E-04
       N       E                     dE             d eps       ncg     rms          rms(c)
DAV:   1    -0.656436083293E+03    0.83540E-04   -0.47973E-03   576   0.961E-02    0.179E-01
DAV:   2    -0.656451691911E+03   -0.15609E-01   -0.14805E-01   768   0.254E-01    0.234E+00
DAV:   3    -0.656436567755E+03    0.15124E-01   -0.13662E-01   696   0.234E-01    0.399E-01
DAV:   4    -0.656436171441E+03    0.39631E-03   -0.27254E-03   528   0.571E-02    0.135E-01
DAV:   5    -0.656436053760E+03    0.11768E-03   -0.27371E-04   348   0.255E-02    0.119E-01
DAV:   6    -0.656436035037E+03    0.18724E-04   -0.64559E-05   312   0.118E-02
 449 F= -.67178862E+03 E0= -.67172607E+03  d E =-.991990E-04
       N       E                     dE             d eps       ncg     rms          rms(c)
DAV:   1    -0.656436399615E+03   -0.34585E-03   -0.22321E-02   600   0.203E-01    0.117E-01
DAV:   2    -0.656441459831E+03   -0.50602E-02   -0.21009E-02   744   0.143E-01    0.150E+00
DAV:   3    -0.656436651510E+03    0.48083E-02   -0.26321E-02   624   0.146E-01    0.315E-01
DAV:   4    -0.656436564925E+03    0.86585E-04   -0.16490E-03   456   0.413E-02    0.167E-01
DAV:   5    -0.656436430288E+03    0.13464E-03   -0.16621E-04   348   0.223E-02    0.849E-02
DAV:   6    -0.656436406336E+03    0.23952E-04   -0.16004E-04   300   0.136E-02
 450 F= -.67178870E+03 E0= -.67172649E+03  d E =-.844354E-04
       N       E                     dE             d eps       ncg     rms          rms(c)
DAV:   1    -0.656436679427E+03   -0.24914E-03   -0.16236E-02   600   0.174E-01    0.791E-02
DAV:   2    -0.656438538007E+03   -0.18586E-02   -0.78294E-03   528   0.875E-02    0.916E-01
DAV:   3    -0.656436675688E+03    0.18623E-02   -0.11219E-02   516   0.910E-02    0.209E-01
DAV:   4    -0.656436796846E+03   -0.12116E-03   -0.14996E-03   432   0.322E-02    0.133E-01
DAV:   5    -0.656436688865E+03    0.10798E-03   -0.16988E-04   336   0.182E-02    0.601E-02
DAV:   6    -0.656436682372E+03    0.64935E-05   -0.34709E-05   300   0.100E-02
 451 F= -.67178874E+03 E0= -.67172631E+03  d E =-.115198E-03
       N       E                     dE             d eps       ncg     rms          rms(c)
DAV:   1    -0.656437008935E+03   -0.32007E-03   -0.14587E-02   600   0.163E-01    0.592E-02
DAV:   2    -0.656437960450E+03   -0.95151E-03   -0.48003E-03   516   0.684E-02    0.654E-01
DAV:   3    -0.656436996291E+03    0.96416E-03   -0.56493E-03   456   0.651E-02    0.132E-01
DAV:   4    -0.656437047194E+03   -0.50904E-04   -0.39622E-04   420   0.195E-02
 452 F= -.67178884E+03 E0= -.67172664E+03  d E =-.106726E-03
       N       E                     dE             d eps       ncg     rms          rms(c)
DAV:   1    -0.656437182730E+03   -0.18644E-03   -0.53585E-03   564   0.987E-02    0.376E-02
DAV:   2    -0.656437470756E+03   -0.28803E-03   -0.16284E-03   456   0.402E-02    0.357E-01
DAV:   3    -0.656437169107E+03    0.30165E-03   -0.18695E-03   396   0.374E-02    0.825E-02
DAV:   4    -0.656437197887E+03   -0.28779E-04   -0.17846E-04   336   0.122E-02
 453 F= -.67178884E+03 E0= -.67172642E+03  d E =-.101668E-03
       N       E                     dE             d eps       ncg     rms          rms(c)
DAV:   1    -0.656437527497E+03   -0.35839E-03   -0.16898E-02   600   0.174E-01    0.624E-02
DAV:   2    -0.656437819822E+03   -0.29232E-03   -0.10162E-03   504   0.482E-02    0.305E-01
DAV:   3    -0.656437678815E+03    0.14101E-03   -0.27836E-03   432   0.513E-02    0.237E-01
DAV:   4    -0.656437623315E+03    0.55499E-04   -0.16509E-03   384   0.323E-02    0.669E-02
DAV:   5    -0.656437535343E+03    0.87972E-04   -0.20242E-04   312   0.186E-02
 454 F= -.67178891E+03 E0= -.67172651E+03  d E =-.699939E-04
