basalPlane                              
           1
     9.570946    0.000000    0.000000
    -6.380628   11.051579    0.000000
     0.000000    0.000000   34.880263
   C    Co   H    Mo   S 
  10   1  10  24  48
Direct configuration=     1
   0.94525892  0.46549933  0.52087914
   0.83266594  0.40739467  0.55144781
   0.10021687  0.48833678  0.53364435
   0.08323644  0.44394489  0.57206806
   0.91798471  0.39410694  0.58308515
   0.92942028  0.69685793  0.57379548
   0.11998130  0.69742742  0.61491943
   0.95307568  0.66186423  0.61117087
   0.19939873  0.75405561  0.57980303
   0.08158014  0.75377873  0.55440961
   0.01674293  0.57661379  0.56935442
   0.86728049  0.35544039  0.61092458
   0.85988779  0.61445734  0.63263722
   0.32635970  0.78941190  0.57334366
   0.17558824  0.68144581  0.63972688
   0.81530037  0.68069340  0.56190011
   0.70542442  0.38041336  0.55100461
   0.91834114  0.49026544  0.49316458
   0.21165210  0.53324803  0.51723225
   0.17943700  0.44953921  0.59008885
   0.10317820  0.78850811  0.52525044
   0.55555566  0.08333325  0.25000928
   0.55555566  0.33333325  0.25000928
   0.44444432  0.41666674  0.74999076
   0.55555566  0.58333325  0.25000928
   0.44444432  0.66666674  0.74999076
   0.55555566  0.83333325  0.25000928
   0.44444432  0.91666674  0.74999076
   0.88888899  0.33333325  0.25000928
   0.77777765  0.16666674  0.74999076
   0.77777765  0.41666674  0.74999076
   0.88888899  0.58333325  0.25000928
   0.77777765  0.66666674  0.74999076
   0.88888899  0.83333325  0.25000928
   0.77777765  0.91666674  0.74999076
   0.11111099  0.91666674  0.74999076
   0.88888899  0.08333325  0.25000928
   0.22222233  0.83333325  0.25000928
   0.44444432  0.16666674  0.74999076
   0.22222233  0.58333325  0.25000928
   0.11111099  0.41666674  0.74999076
   0.22222233  0.33333325  0.25000928
   0.22222233  0.08333325  0.25000928
   0.11111099  0.16666674  0.74999076
   0.11111099  0.66666674  0.74999076
   0.77777765  0.16666674  0.29487388
   0.88888899  0.08333325  0.79485533
   0.77777765  0.16666674  0.20514467
   0.88888899  0.08333325  0.70512613
   0.22222233  0.08333325  0.70512613
   0.11111099  0.16666674  0.20514467
   0.77777765  0.41666674  0.29487388
   0.88888899  0.33333325  0.79485533
   0.11111099  0.66666674  0.20514467
   0.55555566  0.83333325  0.70512613
   0.88888899  0.33333325  0.70512613
   0.22222233  0.08333325  0.79485533
   0.11111099  0.16666674  0.29487388
   0.77777765  0.66666674  0.29487388
   0.88888899  0.58333325  0.79485533
   0.77777765  0.66666674  0.20514467
   0.88888899  0.58333325  0.70512613
   0.77777765  0.91666674  0.29487388
   0.88888899  0.83333325  0.79485533
   0.77777765  0.41666674  0.20514467
   0.44444432  0.91666674  0.20514467
   0.44444432  0.91666674  0.29487388
   0.22222233  0.58333325  0.70512613
   0.22222233  0.58333325  0.79485533
   0.11111099  0.91666674  0.29487388
   0.22222233  0.83333325  0.79485533
   0.11111099  0.91666674  0.20514467
   0.22222233  0.83333325  0.70512613
   0.11111099  0.66666674  0.29487388
   0.77777765  0.91666674  0.20514467
   0.44444432  0.16666674  0.29487388
   0.55555566  0.08333325  0.79485533
   0.44444432  0.16666674  0.20514467
   0.55555566  0.08333325  0.70512613
   0.44444432  0.41666674  0.29487388
   0.55555566  0.33333325  0.79485533
   0.44444432  0.41666674  0.20514467
   0.55555566  0.33333325  0.70512613
   0.22222233  0.33333325  0.70512613
   0.11111099  0.41666674  0.20514467
   0.44444432  0.66666674  0.29487388
   0.55555566  0.58333325  0.79485533
   0.44444432  0.66666674  0.20514467
   0.55555566  0.58333325  0.70512613
   0.22222233  0.33333325  0.79485533
   0.11111099  0.41666674  0.29487388
   0.55555566  0.83333325  0.79485533
   0.88888899  0.83333325  0.70512613
Direct configuration=     2
   0.94555172  0.46618381  0.52094547
   0.83302177  0.40801355  0.55156511
   0.10031239  0.48886627  0.53371821
   0.08330380  0.44459131  0.57216001
   0.91795874  0.39452954  0.58321291
   0.92953601  0.69621213  0.57377294
   0.11948207  0.69669857  0.61479687
   0.95275478  0.66141966  0.61095831
   0.19890296  0.75338231  0.57977282
   0.08153194  0.75320844  0.55430152
   0.01673784  0.57682382  0.56927984
   0.86726446  0.35548256  0.61099886
   0.86013070  0.61449786  0.63256965
   0.32642588  0.78933526  0.57333761
   0.17546152  0.68127038  0.63970301
   0.81514041  0.68058161  0.56188719
   0.70535310  0.38044599  0.55102481
   0.91841263  0.49038440  0.49313219
   0.21176342  0.53338796  0.51722206
   0.17951409  0.44962001  0.59014314
   0.10322460  0.78846893  0.52518588
   0.55614325  0.08410462  0.25002039
   0.55614171  0.33410340  0.25002075
   0.44376159  0.41592552  0.74996087
   0.55614395  0.58410406  0.25002046
   0.44386052  0.66599956  0.74995644
   0.55614452  0.83410601  0.25002031
   0.44378135  0.91594418  0.74997644
   0.88948727  0.33410462  0.25002082
   0.77706997  0.16585457  0.74996494
   0.77707181  0.41581444  0.74998581
   0.88948636  0.58410564  0.25002028
   0.77715221  0.66601695  0.74995904
   0.88948848  0.83410706  0.25002038
   0.77713715  0.91591894  0.74996708
   0.11038029  0.91583953  0.74995947
   0.88948787  0.08410518  0.25002077
   0.22278750  0.83411512  0.25001976
   0.44372145  0.16584469  0.74996533
   0.22278727  0.58411183  0.25001991
   0.11032845  0.41580708  0.74995379
   0.22278617  0.33411143  0.25002078
   0.22278661  0.08411270  0.25002032
   0.11034337  0.16590224  0.74996102
   0.11047678  0.66606282  0.74993668
   0.77747845  0.16627772  0.29461153
   0.88922372  0.08370390  0.79452408
   0.77748087  0.16628147  0.20539652
   0.88924250  0.08371413  0.70546605
   0.22259064  0.08372288  0.70546990
   0.11082122  0.16628173  0.20539656
   0.77747809  0.41627574  0.29461110
   0.88924716  0.33372670  0.79451588
   0.11081936  0.66628195  0.20539712
   0.55590858  0.83372383  0.70546123
   0.88922240  0.33370380  0.70544006
   0.22257847  0.08371347  0.79452377
   0.11081829  0.16627788  0.29461154
   0.77747890  0.66627781  0.29461106
   0.88924585  0.58371238  0.79452560
   0.77748147  0.66628026  0.20539702
   0.88912961  0.58346430  0.70577902
   0.77747825  0.91627696  0.29461133
   0.88923896  0.83369609  0.79452354
   0.77748173  0.41628035  0.20539700
   0.44415079  0.91627915  0.20539709
   0.44414916  0.91627731  0.29461098
   0.22272152  0.58362583  0.70553616
   0.22256838  0.58370730  0.79451891
   0.11081802  0.91627881  0.29461104
   0.22255991  0.83369382  0.79453176
   0.11082014  0.91628078  0.20539719
   0.22269939  0.83396104  0.70554905
   0.11081722  0.66627878  0.29461116
   0.77747976  0.91627887  0.20539676
   0.44414806  0.16627670  0.29461139
   0.55590108  0.08370898  0.79452227
   0.44415147  0.16628052  0.20539671
   0.55589820  0.08371609  0.70546522
   0.44414779  0.41627579  0.29461101
   0.55591199  0.33371330  0.79451593
   0.44415210  0.41628049  0.20539684
   0.55590093  0.33370990  0.70546749
   0.22256741  0.33371361  0.70546668
   0.11081862  0.41628097  0.20539688
   0.44415019  0.66627814  0.29461107
   0.55590548  0.58370759  0.79452111
   0.44415268  0.66628117  0.20539697
   0.55591337  0.58370963  0.70545913
   0.22256425  0.33371659  0.79452229
   0.11081560  0.41627583  0.29461127
   0.55587614  0.83368734  0.79452103
   0.88926571  0.83372877  0.70544759
Direct configuration=     3
   0.94551667  0.46610187  0.52093753
   0.83297917  0.40793946  0.55155106
   0.10030095  0.48880288  0.53370937
   0.08329574  0.44451392  0.57214900
   0.91796185  0.39447895  0.58319762
   0.92952216  0.69628944  0.57377564
   0.11954183  0.69678583  0.61481154
   0.95279319  0.66147288  0.61098375
   0.19896231  0.75346291  0.57977644
   0.08153771  0.75327671  0.55431446
   0.01673845  0.57679868  0.56928877
   0.86726638  0.35547751  0.61098997
   0.86010162  0.61449301  0.63257774
   0.32641795  0.78934444  0.57333834
   0.17547669  0.68129139  0.63970587
   0.81515956  0.68059499  0.56188873
   0.70536164  0.38044208  0.55102239
   0.91840407  0.49037016  0.49313607
   0.21175010  0.53337121  0.51722328
   0.17950486  0.44961034  0.59013664
   0.10321904  0.78847362  0.52519361
   0.55607291  0.08401227  0.25001906
   0.55607155  0.33401120  0.25001938
   0.44384333  0.41601426  0.74996445
   0.55607353  0.58401178  0.25001912
   0.44393041  0.66607943  0.74996055
   0.55607402  0.83401350  0.25001899
   0.44386072  0.91603068  0.74997815
   0.88941564  0.33401227  0.25001944
   0.77715469  0.16595180  0.74996803
   0.77715631  0.41591647  0.74998640
   0.88941484  0.58401317  0.25001897
   0.77722708  0.66609474  0.74996284
   0.88941671  0.83401442  0.25001905
   0.77721383  0.91600847  0.74996991
   0.11046776  0.91593856  0.74996321
   0.88941618  0.08401277  0.25001940
   0.22271984  0.83402152  0.25001850
   0.44380799  0.16594311  0.74996837
   0.22271963  0.58401862  0.25001864
   0.11042214  0.41590999  0.74995822
   0.22271867  0.33401827  0.25001941
   0.22271905  0.08401939  0.25001900
   0.11043527  0.16599376  0.74996458
   0.11055271  0.66613512  0.74994316
   0.77751427  0.16632429  0.29464294
   0.88918364  0.08365953  0.79456374
   0.77751640  0.16632759  0.20536637
   0.88920018  0.08366853  0.70542536
   0.22254655  0.08367623  0.70542875
   0.11085591  0.16632782  0.20536640
   0.77751395  0.41632255  0.29464256
   0.88920428  0.33367959  0.79455652
   0.11085427  0.66632801  0.20536689
   0.55586633  0.83367707  0.70542112
   0.88918249  0.33365944  0.70540247
   0.22253584  0.08366795  0.79456346
   0.11085333  0.16632443  0.29464295
   0.77751467  0.66632437  0.29464252
   0.88920313  0.58366699  0.79456507
   0.77751693  0.66632653  0.20536681
   0.88910080  0.58344861  0.70570086
   0.77751410  0.91632362  0.29464276
   0.88919706  0.83365265  0.79456326
   0.77751716  0.41632661  0.20536679
   0.44418593  0.91632555  0.20536687
   0.44418449  0.91632393  0.29464246
   0.22266176  0.58359080  0.70548708
   0.22252695  0.58366252  0.79455919
   0.11085309  0.91632525  0.29464251
   0.22251949  0.83365065  0.79457050
   0.11085496  0.91632699  0.20536696
   0.22264228  0.83388589  0.70549842
   0.11085239  0.66632523  0.29464261
   0.77751542  0.91632530  0.20536658
   0.44418353  0.16632340  0.29464281
   0.55585972  0.08366400  0.79456215
   0.44418653  0.16632675  0.20536654
   0.55585719  0.08367026  0.70542463
   0.44418329  0.41632259  0.29464248
   0.55586933  0.33366780  0.79455656
   0.44418708  0.41632673  0.20536665
   0.55585960  0.33366481  0.70542663
   0.22252610  0.33366807  0.70542592
   0.11085362  0.41632715  0.20536669
   0.44418540  0.66632466  0.29464253
   0.55586360  0.58366278  0.79456112
   0.44418760  0.66632733  0.20536676
   0.55587055  0.58366457  0.70541927
   0.22252331  0.33367069  0.79456216
   0.11085097  0.41632263  0.29464271
   0.55583778  0.83364495  0.79456105
   0.88922061  0.83368142  0.70540911
Direct configuration=     4
   0.94552891  0.46613049  0.52094030
   0.83299405  0.40796534  0.55155597
   0.10030495  0.48882502  0.53371246
   0.08329855  0.44454095  0.57215285
   0.91796076  0.39449662  0.58320296
   0.92952700  0.69626244  0.57377470
   0.11952096  0.69675535  0.61480641
   0.95277978  0.66145429  0.61097487
   0.19894158  0.75343476  0.57977518
   0.08153570  0.75325287  0.55430994
   0.01673823  0.57680746  0.56928565
   0.86726571  0.35547927  0.61099307
   0.86011177  0.61449471  0.63257492
   0.32642072  0.78934123  0.57333809
   0.17547140  0.68128405  0.63970487
   0.81515287  0.68059032  0.56188819
   0.70535865  0.38044344  0.55102323
   0.91840706  0.49037514  0.49313472
   0.21175475  0.53337706  0.51722285
   0.17950809  0.44961371  0.59013891
   0.10322098  0.78847198  0.52519091
   0.55609748  0.08404453  0.25001952
   0.55609606  0.33404340  0.25001986
   0.44381478  0.41598326  0.74996320
   0.55609813  0.58404401  0.25001959
   0.44390600  0.66605153  0.74995911
   0.55609864  0.83404581  0.25001945
   0.44383300  0.91600046  0.74997756
   0.88944066  0.33404453  0.25001992
   0.77712510  0.16591784  0.74996695
   0.77712680  0.41588083  0.74998620
   0.88943982  0.58404547  0.25001943
   0.77720093  0.66606757  0.74996151
   0.88944178  0.83404678  0.25001952
   0.77718705  0.91597720  0.74996892
   0.11043721  0.91590397  0.74996190
   0.88944122  0.08404505  0.25001988
   0.22274348  0.83405421  0.25001894
   0.44377776  0.16590873  0.74996731
   0.22274326  0.58405117  0.25001908
   0.11038942  0.41587405  0.74995667
   0.22274225  0.33405080  0.25001989
   0.22274265  0.08405198  0.25001946
   0.11040317  0.16596180  0.74996333
   0.11052619  0.66610987  0.74994090
   0.77750176  0.16630803  0.29463197
   0.88919764  0.08367503  0.79454989
   0.77750399  0.16631148  0.20537690
   0.88921496  0.08368446  0.70543957
   0.22256195  0.08369253  0.70544312
   0.11084379  0.16631172  0.20537694
   0.77750143  0.41630620  0.29463157
   0.88921925  0.33369604  0.79454233
   0.11084208  0.66631192  0.20537745
   0.55588108  0.83369340  0.70543513
   0.88919643  0.33367493  0.70541560
   0.22255073  0.08368385  0.79454960
   0.11084109  0.16630817  0.29463198
   0.77750218  0.66630811  0.29463153
   0.88921805  0.58368285  0.79455128
   0.77750454  0.66631037  0.20537736
   0.88911086  0.58345409  0.70572816
   0.77750158  0.91630732  0.29463178
   0.88921169  0.83366782  0.79454939
   0.77750478  0.41631045  0.20537734
   0.44417366  0.91630934  0.20537742
   0.44417215  0.91630765  0.29463146
   0.22268263  0.58360304  0.70550422
   0.22254142  0.58367816  0.79454512
   0.11084084  0.91630903  0.29463152
   0.22253361  0.83366573  0.79455697
   0.11084280  0.91631085  0.20537752
   0.22266223  0.83391214  0.70551611
   0.11084010  0.66630901  0.29463162
   0.77750297  0.91630908  0.20537712
   0.44417114  0.16630709  0.29463184
   0.55587417  0.08367971  0.79454822
   0.44417428  0.16631060  0.20537708
   0.55587151  0.08368627  0.70543881
   0.44417089  0.41630625  0.29463149
   0.55588423  0.33368369  0.79454237
   0.44417486  0.41631058  0.20537719
   0.55587404  0.33368056  0.70544090
   0.22254053  0.33368398  0.70544016
   0.11084140  0.41631102  0.20537723
   0.44417311  0.66630841  0.29463154
   0.55587823  0.58367843  0.79454715
   0.44417540  0.66631121  0.20537731
   0.55588551  0.58368031  0.70543319
   0.22253761  0.33368672  0.79454824
   0.11083861  0.41630628  0.29463173
   0.55585118  0.83365975  0.79454707
   0.88923636  0.83369796  0.70542255
Direct configuration=     5
   0.94557320  0.46662213  0.52104266
   0.83275008  0.40829835  0.55160051
   0.10068182  0.48928974  0.53376954
   0.08353850  0.44505779  0.57225249
   0.91824252  0.39506675  0.58320839
   0.92844581  0.69593763  0.57341453
   0.11934868  0.69616815  0.61478084
   0.95260917  0.66089776  0.61107536
   0.19969526  0.75339735  0.57963915
   0.08148700  0.75276271  0.55422929
   0.01670559  0.57673354  0.56921074
   0.86724194  0.35556800  0.61107714
   0.86028617  0.61450730  0.63248391
   0.32572864  0.78900459  0.57338058
   0.17508096  0.68107370  0.63960937
   0.81578043  0.68054417  0.56195426
   0.70581297  0.38063192  0.55105402
   0.91854691  0.49047170  0.49317833
   0.21154692  0.53340923  0.51727576
   0.17927797  0.44974831  0.59013950
   0.10322223  0.78831600  0.52518910
   0.55599923  0.08388771  0.25001248
   0.55599580  0.33388477  0.25001290
   0.44401733  0.41612852  0.74996730
   0.55599757  0.58388555  0.25001278
   0.44421001  0.66623616  0.74998249
   0.55600014  0.83388864  0.25001265
   0.44410330  0.91616714  0.75000440
   0.88933016  0.33388565  0.25001181
   0.77731094  0.16606260  0.74996612
   0.77721936  0.41585280  0.75005168
   0.88932993  0.58388727  0.25001160
   0.77729647  0.66624739  0.75001593
   0.88933099  0.83388936  0.25001150
   0.77740365  0.91612701  0.74997078
   0.11060467  0.91610274  0.74999416
   0.88933146  0.08388815  0.25001154
   0.22265334  0.83389572  0.25001228
   0.44399649  0.16607582  0.74997484
   0.22265235  0.58389231  0.25001241
   0.11057582  0.41598423  0.74997309
   0.22265097  0.33389178  0.25001278
   0.22265216  0.08389458  0.25001239
   0.11063428  0.16610944  0.74997193
   0.11095117  0.66631609  0.75001275
   0.77754874  0.16638071  0.29453529
   0.88908335  0.08358680  0.79448035
   0.77755176  0.16638600  0.20548308
   0.88910131  0.08359585  0.70548389
   0.22244211  0.08361422  0.70549347
   0.11088910  0.16639221  0.20548132
   0.77754784  0.41637925  0.29453509
   0.88912746  0.33358768  0.79446997
   0.11088807  0.66639250  0.20548173
   0.55580517  0.83365604  0.70547797
   0.88905225  0.33355933  0.70544255
   0.22242187  0.08359475  0.79447039
   0.11088583  0.16638698  0.29453696
   0.77754938  0.66638186  0.29453482
   0.88915105  0.58363502  0.79448475
   0.77755222  0.66638562  0.20548330
   0.88892186  0.58322345  0.70591788
   0.77754963  0.91638222  0.29453515
   0.88912544  0.83360503  0.79447682
   0.77755168  0.41638512  0.20548354
   0.44421850  0.91638607  0.20548312
   0.44421618  0.91638331  0.29453452
   0.22266740  0.58349538  0.70558158
   0.22243495  0.58361643  0.79444878
   0.11088695  0.91638966  0.29453666
   0.22243827  0.83360130  0.79449200
   0.11088880  0.91639240  0.20548127
   0.22267658  0.83401265  0.70558474
   0.11088602  0.66638849  0.29453632
   0.77755160  0.91638518  0.20548298
   0.44421449  0.16638103  0.29453487
   0.55578305  0.08360828  0.79447910
   0.44421843  0.16638627  0.20548313
   0.55577385  0.08360845  0.70548350
   0.44421375  0.41637985  0.29453449
   0.55574337  0.33358556  0.79446809
   0.44421843  0.41638577  0.20548345
   0.55576208  0.33358783  0.70548931
   0.22243874  0.33359487  0.70548524
   0.11088748  0.41639130  0.20548165
   0.44421612  0.66638247  0.29453424
   0.55579569  0.58362472  0.79446278
   0.44421948  0.66638661  0.20548342
   0.55581938  0.58362149  0.70547167
   0.22242918  0.33360773  0.79446967
   0.11088412  0.41638547  0.29453675
   0.55576684  0.83358931  0.79447289
   0.88916436  0.83364620  0.70544859
Direct configuration=     6
   0.94555260  0.46639344  0.52099505
   0.83286356  0.40814345  0.55157979
   0.10050652  0.48907357  0.53374299
   0.08342689  0.44481738  0.57220614
   0.91811146  0.39480155  0.58320586
   0.92894873  0.69608871  0.57358206
   0.11942881  0.69644128  0.61479274
   0.95268853  0.66115663  0.61102861
   0.19934469  0.75341475  0.57970242
   0.08150965  0.75299070  0.55426681
   0.01672077  0.57676793  0.56924559
   0.86725300  0.35552672  0.61103804
   0.86020505  0.61450144  0.63252624
   0.32605056  0.78916118  0.57336082
   0.17526257  0.68117155  0.63965379
   0.81548852  0.68056564  0.56192353
   0.70560164  0.38054425  0.55103970
   0.91848186  0.49042678  0.49315804
   0.21164359  0.53339427  0.51725115
   0.17938501  0.44968570  0.59013922
   0.10322165  0.78838855  0.52518994
   0.55604493  0.08396065  0.25001576
   0.55604244  0.33395855  0.25001614
   0.44392311  0.41606095  0.74996539
   0.55604435  0.58395926  0.25001595
   0.44406860  0.66615028  0.74997162
   0.55604596  0.83396175  0.25001581
   0.44397757  0.91608961  0.74999191
   0.88938156  0.33395955  0.25001558
   0.77722450  0.16599526  0.74996650
   0.77717631  0.41586584  0.75002122
   0.88938105  0.58396086  0.25001524
   0.77725203  0.66616375  0.74999062
   0.88938253  0.83396258  0.25001523
   0.77730290  0.91605733  0.74996992
   0.11052678  0.91601028  0.74997916
   0.88938251  0.08396113  0.25001542
   0.22269527  0.83396945  0.25001538
   0.44389475  0.16599810  0.74997134
   0.22269463  0.58396621  0.25001551
   0.11048912  0.41593298  0.74996545
   0.22269343  0.33396575  0.25001609
   0.22269425  0.08396779  0.25001568
   0.11052678  0.16604077  0.74996793
   0.11075349  0.66622017  0.74997933
   0.77752689  0.16634690  0.29458026
   0.88913651  0.08362784  0.79451270
   0.77752954  0.16635134  0.20543369
   0.88915417  0.08363707  0.70546328
   0.22249785  0.08365064  0.70547005
   0.11086803  0.16635477  0.20543277
   0.77752625  0.41634527  0.29457997
   0.88917016  0.33363808  0.79450362
   0.11086668  0.66635502  0.20543323
   0.55584048  0.83367342  0.70545804
   0.88911931  0.33361311  0.70543001
   0.22248181  0.08363619  0.79450723
   0.11086502  0.16635032  0.29458116
   0.77752742  0.66634756  0.29457980
   0.88918221  0.58365727  0.79451570
   0.77753004  0.66635061  0.20543402
   0.88900978  0.58333073  0.70582963
   0.77752728  0.91634738  0.29458010
   0.88916556  0.83363424  0.79451058
   0.77752987  0.41635039  0.20543414
   0.44419764  0.91635038  0.20543395
   0.44419570  0.91634812  0.29457961
   0.22267448  0.58354546  0.70554560
   0.22248447  0.58364514  0.79449360
   0.11086550  0.91635216  0.29458078
   0.22248262  0.83363127  0.79452222
   0.11086740  0.91635447  0.20543301
   0.22266990  0.83396590  0.70555281
   0.11086466  0.66635152  0.29458065
   0.77752898  0.91634978  0.20543374
   0.44419433  0.16634664  0.29457997
   0.55582543  0.08364150  0.79451125
   0.44419789  0.16635107  0.20543380
   0.55581928  0.08364465  0.70546271
   0.44419381  0.41634561  0.29457961
   0.55580889  0.33363121  0.79450264
   0.44419817  0.41635079  0.20543402
   0.55581416  0.33363096  0.70546679
   0.22248609  0.33363632  0.70546427
   0.11086604  0.41635396  0.20543308
   0.44419611  0.66634802  0.29457950
   0.55583408  0.58364971  0.79450202
   0.44419898  0.66635154  0.20543406
   0.55585014  0.58364885  0.70545377
   0.22247961  0.33364448  0.79450621
   0.11086295  0.41634864  0.29458093
   0.55580607  0.83362208  0.79450739
   0.88919785  0.83367028  0.70543648
Direct configuration=     7
   0.94554890  0.46635241  0.52098651
   0.83288393  0.40811565  0.55157608
   0.10047506  0.48903479  0.53373822
   0.08340686  0.44477425  0.57219782
   0.91808794  0.39475397  0.58320541
   0.92903897  0.69611582  0.57361212
   0.11944319  0.69649029  0.61479487
   0.95270276  0.66120308  0.61102023
   0.19928178  0.75341788  0.57971378
   0.08151372  0.75303161  0.55427354
   0.01672350  0.57677410  0.56925184
   0.86725498  0.35551932  0.61103102
   0.86019050  0.61450039  0.63253384
   0.32610833  0.78918928  0.57335727
   0.17529516  0.68118910  0.63966176
   0.81543614  0.68056949  0.56191801
   0.70556373  0.38052852  0.55103713
   0.91847019  0.49041872  0.49315440
   0.21166094  0.53339158  0.51724673
   0.17940422  0.44967447  0.59013918
   0.10322154  0.78840157  0.52519010
   0.55605313  0.08397374  0.25001634
   0.55605080  0.33397179  0.25001672
   0.44390621  0.41604883  0.74996505
   0.55605274  0.58397248  0.25001651
   0.44404323  0.66613487  0.74996967
   0.55605418  0.83397487  0.25001638
   0.44395501  0.91607570  0.74998967
   0.88939078  0.33397281  0.25001626
   0.77720899  0.16598318  0.74996657
   0.77716858  0.41586818  0.75001575
   0.88939022  0.58397406  0.25001589
   0.77724406  0.66614874  0.74998608
   0.88939177  0.83397572  0.25001590
   0.77728482  0.91604482  0.74996976
   0.11051280  0.91599369  0.74997646
   0.88939167  0.08397422  0.25001611
   0.22270279  0.83398267  0.25001594
   0.44387649  0.16598415  0.74997071
   0.22270222  0.58397947  0.25001607
   0.11047356  0.41592378  0.74996408
   0.22270105  0.33397902  0.25001668
   0.22270180  0.08398093  0.25001627
   0.11050749  0.16602844  0.74996721
   0.11071802  0.66620295  0.74997333
   0.77752297  0.16634083  0.29458833
   0.88914605  0.08363520  0.79451850
   0.77752555  0.16634512  0.20542483
   0.88916366  0.08364446  0.70545958
   0.22250786  0.08365718  0.70546585
   0.11086424  0.16634806  0.20542405
   0.77752238  0.41633917  0.29458802
   0.88917782  0.33364713  0.79450966
   0.11086284  0.66634830  0.20542452
   0.55584682  0.83367654  0.70545447
   0.88913135  0.33362275  0.70542776
   0.22249257  0.08364363  0.79451384
   0.11086129  0.16634374  0.29458909
   0.77752348  0.66634140  0.29458788
   0.88918780  0.58366126  0.79452125
   0.77752606  0.66634433  0.20542518
   0.88902555  0.58334998  0.70581380
   0.77752327  0.91634113  0.29458816
   0.88917276  0.83363948  0.79451663
   0.77752595  0.41634416  0.20542528
   0.44419390  0.91634397  0.20542513
   0.44419203  0.91634180  0.29458770
   0.22267576  0.58355444  0.70553914
   0.22249336  0.58365030  0.79450164
   0.11086165  0.91634543  0.29458870
   0.22249057  0.83363664  0.79452764
   0.11086356  0.91634766  0.20542435
   0.22266871  0.83395751  0.70554709
   0.11086083  0.66634489  0.29458861
   0.77752492  0.91634343  0.20542491
   0.44419071  0.16634047  0.29458807
   0.55583304  0.08364746  0.79451702
   0.44419421  0.16634476  0.20542495
   0.55582743  0.08365114  0.70545898
   0.44419023  0.41633947  0.29458770
   0.55582065  0.33363940  0.79450884
   0.44419453  0.41634452  0.20542515
   0.55582350  0.33363870  0.70546275
   0.22249458  0.33364376  0.70546050
   0.11086220  0.41634726  0.20542437
   0.44419252  0.66634184  0.29458762
   0.55584097  0.58365419  0.79450906
   0.44419530  0.66634525  0.20542521
   0.55585566  0.58365376  0.70545056
   0.22248867  0.33365107  0.79451277
   0.11085916  0.41634203  0.29458886
   0.55581311  0.83362796  0.79451359
   0.88920386  0.83367460  0.70543430
Direct configuration=     8
   0.94566940  0.46685806  0.52109959
   0.83313740  0.40856581  0.55162136
   0.10051815  0.48939472  0.53384530
   0.08355429  0.44533495  0.57223974
   0.91818305  0.39525275  0.58327261
   0.92943331  0.69578989  0.57354674
   0.11924924  0.69604392  0.61463344
   0.95278350  0.66097863  0.61082842
   0.19879908  0.75294290  0.57967338
   0.08133458  0.75248268  0.55420399
   0.01668147  0.57677381  0.56918796
   0.86734916  0.35573313  0.61107056
   0.86008284  0.61432958  0.63250721
   0.32600778  0.78899080  0.57336459
   0.17495147  0.68088716  0.63960255
   0.81523333  0.68039133  0.56187852
   0.70575103  0.38068564  0.55107438
   0.91863553  0.49054868  0.49320957
   0.21159545  0.53350957  0.51728555
   0.17926576  0.44985474  0.59017047
   0.10326005  0.78821958  0.52517213
   0.55591204  0.08376781  0.25001141
   0.55590800  0.33376426  0.25001189
   0.44414136  0.41624306  0.74996172
   0.55590957  0.58376501  0.25001179
   0.44437268  0.66636240  0.74998544
   0.55591284  0.83376871  0.25001163
   0.44426295  0.91630023  0.75001044
   0.88924136  0.33376671  0.25001087
   0.77743150  0.16617759  0.74996014
   0.77728118  0.41587084  0.75007815
   0.88924141  0.58376851  0.25001073
   0.77737455  0.66637760  0.75003440
   0.88924228  0.83377102  0.25001052
   0.77752979  0.91624161  0.74996447
   0.11070563  0.91624144  0.75000167
   0.88924295  0.08376988  0.25001047
   0.22256808  0.83377402  0.25001158
   0.44411258  0.16619379  0.74997232
   0.22256668  0.58377046  0.25001173
   0.11068610  0.41607993  0.74997299
   0.22256520  0.33376981  0.25001197
   0.22256678  0.08377323  0.25001155
   0.11076665  0.16622146  0.74997016
   0.11117317  0.66645259  0.75003780
   0.77759096  0.16643852  0.29451869
   0.88901537  0.08352162  0.79448535
   0.77759424  0.16644449  0.20550094
   0.88903733  0.08353145  0.70546933
   0.22237087  0.08355477  0.70548237
   0.11093057  0.16645378  0.20549867
   0.77758980  0.41643731  0.29451859
   0.88907399  0.33349241  0.79448153
   0.11093015  0.66645406  0.20549912
   0.55576033  0.83361994  0.70546424
   0.88896472  0.33347965  0.70542372
   0.22235047  0.08353643  0.79447467
   0.11092654  0.16644745  0.29452090
   0.77759173  0.66644026  0.29451819
   0.88910804  0.58358795  0.79450074
   0.77759445  0.66644457  0.20550112
   0.88883488  0.58310445  0.70596332
   0.77759263  0.91644150  0.29451854
   0.88906549  0.83356398  0.79448709
   0.77759346  0.41644367  0.20550149
   0.44426040  0.91644570  0.20550079
   0.44425765  0.91644219  0.29451821
   0.22264765  0.58343451  0.70558178
   0.22239224  0.58355855  0.79444921
   0.11092849  0.91645113  0.29452070
   0.22239702  0.83356735  0.79450689
   0.11093072  0.91645461  0.20549838
   0.22266701  0.83402444  0.70558149
   0.11092758  0.66644924  0.29452022
   0.77759461  0.91644481  0.20550073
   0.44425545  0.16643893  0.29451850
   0.55573372  0.08355693  0.79448686
   0.44425977  0.16644515  0.20550095
   0.55571447  0.08354657  0.70546993
   0.44425438  0.41643750  0.29451815
   0.55563468  0.33350375  0.79447871
   0.44425931  0.41644427  0.20550139
   0.55570391  0.33352100  0.70547871
   0.22237805  0.33352714  0.70547139
   0.11092954  0.41645269  0.20549907
   0.44425681  0.66644035  0.29451777
   0.55573069  0.58357059  0.79446819
   0.44426070  0.66644530  0.20550132
   0.55578793  0.58357830  0.70545602
   0.22236751  0.33354392  0.79447294
   0.11092548  0.41644619  0.29452074
   0.55573297  0.83354125  0.79448016
   0.88911464  0.83359201  0.70542948
Direct configuration=     9
   0.94564557  0.46675808  0.52107723
   0.83308728  0.40847680  0.55161240
   0.10050963  0.48932355  0.53382413
   0.08352514  0.44522408  0.57223145
   0.91816425  0.39515413  0.58325932
   0.92935533  0.69585434  0.57355967
   0.11928759  0.69613218  0.61466536
   0.95276754  0.66102301  0.61086635
   0.19889452  0.75303681  0.57968137
   0.08137000  0.75259122  0.55421774
   0.01668978  0.57677387  0.56920059
   0.86733053  0.35569085  0.61106274
   0.86010412  0.61436335  0.63251248
   0.32602766  0.78903004  0.57336314
   0.17501943  0.68094686  0.63961426
   0.81527343  0.68042656  0.56188633
   0.70571399  0.38065458  0.55106701
   0.91860284  0.49052298  0.49319866
   0.21160840  0.53348624  0.51727787
   0.17929314  0.44981909  0.59016428
   0.10325243  0.78825557  0.52517568
   0.55593994  0.08380853  0.25001239
   0.55593624  0.33380530  0.25001285
   0.44409486  0.41620465  0.74996238
   0.55593788  0.58380604  0.25001272
   0.44430754  0.66631741  0.74998232
   0.55594079  0.83380947  0.25001257
   0.44420206  0.91625584  0.75000633
   0.88927091  0.33380746  0.25001193
   0.77738750  0.16613915  0.74996141
   0.77725891  0.41587032  0.75006581
   0.88927084  0.58380915  0.25001175
   0.77734875  0.66633235  0.75002484