  93  93   0   0
  0.3967126E+02  0.9570947E-09  0.1276126E-08  0.3488026E-08  0.5000000E-15
  1.000000000000000E-004
  CAR 
 basalPlane                              
      2.34453552    -19.32422065  301      0.01731007      1.00000000
    -19.324  0.0000E+00  0.0000E+00
    -19.252  0.0000E+00  0.0000E+00
    -19.180  0.0000E+00  0.0000E+00
    -19.108  0.0000E+00  0.0000E+00
    -19.035  0.0000E+00  0.0000E+00
    -18.963  0.0000E+00  0.0000E+00
    -18.891  0.1537E-17  0.1110E-18
    -18.819  0.3755E-14  0.2714E-15
    -18.746  0.3274E-11  0.2368E-12
    -18.674  0.1030E-08  0.7465E-10
    -18.602  0.1179E-06  0.8587E-08
    -18.530  0.4951E-05  0.3662E-06
    -18.457  0.7732E-04  0.5951E-05
    -18.385  0.4550E-03  0.3882E-04
    -18.313  0.1021E-02  0.1126E-03
    -18.241  0.8807E-03  0.1762E-03
    -18.169  0.2954E-03  0.1975E-03
    -18.096  0.1059E-03  0.2052E-03
    -18.024  0.4291E-03  0.2362E-03
    -17.952  0.1004E-02  0.3087E-03
    -17.880  0.9063E-03  0.3742E-03
    -17.807  0.3137E-03  0.3969E-03
    -17.735  0.4131E-04  0.3998E-03
    -17.663  0.2043E-05  0.4000E-03
    -17.591  0.3742E-07  0.4000E-03
    -17.518  0.2510E-09  0.4000E-03
    -17.446  0.6107E-12  0.4000E-03
    -17.374  0.5355E-15  0.4000E-03
    -17.302  0.0000E+00  0.4000E-03
    -17.230  0.0000E+00  0.4000E-03
    -17.157  0.0000E+00  0.4000E-03
    -17.085  0.0000E+00  0.4000E-03
    -17.013  0.0000E+00  0.4000E-03
    -16.941  0.0000E+00  0.4000E-03
    -16.868  0.0000E+00  0.4000E-03
    -16.796  0.0000E+00  0.4000E-03
    -16.724  0.0000E+00  0.4000E-03
    -16.652  0.0000E+00  0.4000E-03
    -16.580  0.0000E+00  0.4000E-03
    -16.507  0.0000E+00  0.4000E-03
    -16.435  0.0000E+00  0.4000E-03
    -16.363  0.1537E-18  0.4000E-03
    -16.291  0.4631E-15  0.4000E-03
    -16.218  0.5903E-12  0.4000E-03
    -16.146  0.2711E-09  0.4000E-03
    -16.074  0.4514E-07  0.4000E-03
    -16.002  0.2751E-05  0.4002E-03
    -15.929  0.6204E-04  0.4047E-03
    -15.857  0.5249E-03  0.4426E-03
    -15.785  0.1688E-02  0.5645E-03
    -15.713  0.2082E-02  0.7149E-03
    -15.641  0.9869E-03  0.7862E-03
    -15.568  0.1786E-03  0.7991E-03
    -15.496  0.1220E-04  0.8000E-03
    -15.424  0.3103E-06  0.8000E-03
    -15.352  0.4399E-08  0.8000E-03
    -15.279  0.2069E-06  0.8000E-03
    -15.207  0.1048E-04  0.8008E-03
    -15.135  0.1971E-03  0.8150E-03
    -15.063  0.1396E-02  0.9158E-03
    -14.990  0.3766E-02  0.1188E-02
    -14.918  0.3914E-02  0.1471E-02
    -14.846  0.1763E-02  0.1598E-02
    -14.774  0.1684E-02  0.1719E-02
    -14.702  0.3932E-02  0.2004E-02
    -14.629  0.4967E-02  0.2362E-02
    -14.557  0.5799E-02  0.2781E-02
    -14.485  0.6669E-02  0.3263E-02
    -14.413  0.3759E-02  0.3534E-02
    -14.340  0.9160E-03  0.3601E-02
    -14.268  0.8588E-03  0.3663E-02
    -14.196  0.3159E-02  0.3891E-02
    -14.124  0.6255E-02  0.4343E-02
    -14.051  0.1028E-01  0.5085E-02
    -13.979  0.1441E-01  0.6126E-02
    -13.907  0.1199E-01  0.6992E-02
    -13.835  0.9194E-02  0.7656E-02
    -13.763  0.1214E-01  0.8533E-02
    -13.690  0.1328E-01  0.9492E-02
    -13.618  0.9943E-02  0.1021E-01
    -13.546  0.5727E-02  0.1062E-01
    -13.474  0.2076E-02  0.1077E-01
    -13.401  0.3451E-03  0.1080E-01
    -13.329  0.2269E-04  0.1080E-01
    -13.257  0.5611E-06  0.1080E-01
    -13.185  0.5112E-08  0.1080E-01
    -13.113  0.1695E-10  0.1080E-01
    -13.040  0.2031E-13  0.1080E-01
    -12.968  0.8915E-17  0.1080E-01
    -12.896  0.0000E+00  0.1080E-01
    -12.824  0.0000E+00  0.1080E-01
    -12.751  0.0000E+00  0.1080E-01
    -12.679  0.0000E+00  0.1080E-01
    -12.607  0.0000E+00  0.1080E-01
    -12.535  0.0000E+00  0.1080E-01
    -12.462  0.0000E+00  0.1080E-01
    -12.390  0.0000E+00  0.1080E-01
    -12.318  0.0000E+00  0.1080E-01
    -12.246  0.0000E+00  0.1080E-01
    -12.174  0.0000E+00  0.1080E-01
    -12.101  0.0000E+00  0.1080E-01
    -12.029  0.0000E+00  0.1080E-01
    -11.957  0.0000E+00  0.1080E-01
    -11.885  0.0000E+00  0.1080E-01
    -11.812  0.0000E+00  0.1080E-01
    -11.740  0.0000E+00  0.1080E-01
    -11.668  0.0000E+00  0.1080E-01
    -11.596  0.0000E+00  0.1080E-01
    -11.523  0.0000E+00  0.1080E-01
    -11.451  0.0000E+00  0.1080E-01
    -11.379  0.0000E+00  0.1080E-01
    -11.307  0.0000E+00  0.1080E-01
    -11.235  0.0000E+00  0.1080E-01
    -11.162  0.0000E+00  0.1080E-01
    -11.090  0.0000E+00  0.1080E-01
    -11.018  0.0000E+00  0.1080E-01
    -10.946  0.0000E+00  0.1080E-01
    -10.873  0.0000E+00  0.1080E-01
    -10.801  0.0000E+00  0.1080E-01
    -10.729  0.0000E+00  0.1080E-01
    -10.657  0.0000E+00  0.1080E-01
    -10.584  0.0000E+00  0.1080E-01
    -10.512  0.0000E+00  0.1080E-01
    -10.440  0.0000E+00  0.1080E-01
    -10.368  0.0000E+00  0.1080E-01
    -10.296  0.0000E+00  0.1080E-01
    -10.223  0.2459E-17  0.1080E-01
    -10.151  0.5720E-14  0.1080E-01
    -10.079  0.4708E-11  0.1080E-01
    -10.007  0.1402E-08  0.1080E-01
     -9.934  0.1527E-06  0.1080E-01
     -9.862  0.6191E-05  0.1080E-01
     -9.790  0.9617E-04  0.1081E-01
     -9.718  0.5995E-03  0.1085E-01
     -9.646  0.1612E-02  0.1097E-01
     -9.573  0.2170E-02  0.1112E-01
     -9.501  0.2295E-02  0.1129E-01
     -9.429  0.2744E-02  0.1149E-01
     -9.357  0.2451E-02  0.1166E-01
     -9.284  0.1381E-02  0.1176E-01
     -9.212  0.5127E-03  0.1180E-01
     -9.140  0.5301E-03  0.1184E-01
     -9.068  0.1033E-02  0.1191E-01
     -8.995  0.8674E-03  0.1198E-01
     -8.923  0.2803E-03  0.1200E-01
     -8.851  0.3442E-04  0.1200E-01
     -8.779  0.1586E-05  0.1200E-01
     -8.707  0.2705E-07  0.1200E-01
     -8.634  0.1688E-09  0.1200E-01
     -8.562  0.3818E-12  0.1200E-01
     -8.490  0.3111E-15  0.1200E-01
     -8.418  0.0000E+00  0.1200E-01
     -8.345  0.0000E+00  0.1200E-01
     -8.273  0.0000E+00  0.1200E-01
     -8.201  0.0000E+00  0.1200E-01
     -8.129  0.0000E+00  0.1200E-01
     -8.056  0.0000E+00  0.1200E-01
     -7.984  0.9530E-17  0.1200E-01
     -7.912  0.2004E-13  0.1200E-01
     -7.840  0.1516E-10  0.1200E-01
     -7.768  0.4145E-08  0.1200E-01
     -7.695  0.4130E-06  0.1200E-01
     -7.623  0.1515E-04  0.1200E-01
     -7.551  0.2076E-03  0.1202E-01
     -7.479  0.1086E-02  0.1209E-01
     -7.406  0.2318E-02  0.1226E-01
     -7.334  0.2654E-02  0.1245E-01
     -7.262  0.2563E-02  0.1264E-01
     -7.190  0.1704E-02  0.1276E-01
     -7.117  0.8995E-03  0.1283E-01
     -7.045  0.2867E-02  0.1303E-01
     -6.973  0.8592E-02  0.1365E-01
     -6.901  0.1201E-01  0.1452E-01
     -6.829  0.8383E-02  0.1513E-01
     -6.756  0.7005E-02  0.1563E-01
     -6.684  0.1171E-01  0.1648E-01
     -6.612  0.1312E-01  0.1743E-01
     -6.540  0.9586E-02  0.1812E-01
     -6.467  0.5959E-02  0.1855E-01
     -6.395  0.3275E-02  0.1879E-01
     -6.323  0.1801E-02  0.1892E-01
     -6.251  0.9833E-03  0.1899E-01
     -6.179  0.8663E-03  0.1905E-01
     -6.106  0.1839E-02  0.1918E-01
     -6.034  0.2197E-02  0.1934E-01
     -5.962  0.2266E-02  0.1950E-01
     -5.890  0.4723E-02  0.1985E-01
     -5.817  0.7058E-02  0.2036E-01
     -5.745  0.5941E-02  0.2078E-01
     -5.673  0.5358E-02  0.2117E-01
     -5.601  0.1247E-01  0.2207E-01
     -5.528  0.2347E-01  0.2377E-01
     -5.456  0.2189E-01  0.2535E-01
     -5.384  0.1100E-01  0.2614E-01
     -5.312  0.5635E-02  0.2655E-01
     -5.240  0.5564E-02  0.2695E-01
     -5.167  0.4951E-02  0.2731E-01
     -5.095  0.2832E-02  0.2751E-01
     -5.023  0.2014E-02  0.2766E-01
     -4.951  0.5270E-02  0.2804E-01
     -4.878  0.1042E-01  0.2879E-01
     -4.806  0.9622E-02  0.2949E-01
     -4.734  0.7194E-02  0.3001E-01
     -4.662  0.7998E-02  0.3058E-01
     -4.589  0.8319E-02  0.3119E-01
     -4.517  0.6813E-02  0.3168E-01
     -4.445  0.3942E-02  0.3196E-01
     -4.373  0.3110E-02  0.3219E-01
     -4.301  0.5220E-02  0.3256E-01
     -4.228  0.6479E-02  0.3303E-01
     -4.156  0.6099E-02  0.3347E-01
     -4.084  0.5475E-02  0.3387E-01
     -4.012  0.4684E-02  0.3421E-01
     -3.939  0.2216E-02  0.3437E-01
     -3.867  0.4394E-03  0.3440E-01
     -3.795  0.2153E-03  0.3441E-01
     -3.723  0.1356E-02  0.3451E-01
     -3.650  0.4099E-02  0.3481E-01
     -3.578  0.6768E-02  0.3530E-01
     -3.506  0.1044E-01  0.3605E-01
     -3.434  0.1439E-01  0.3709E-01
     -3.362  0.1389E-01  0.3809E-01
     -3.289  0.1087E-01  0.3888E-01
     -3.217  0.8618E-02  0.3950E-01
     -3.145  0.7045E-02  0.4001E-01
     -3.073  0.8076E-02  0.4059E-01
     -3.000  0.1082E-01  0.4137E-01
     -2.928  0.1011E-01  0.4211E-01
     -2.856  0.5890E-02  0.4253E-01
     -2.784  0.3475E-02  0.4278E-01
     -2.712  0.4461E-02  0.4310E-01
     -2.639  0.7221E-02  0.4363E-01
     -2.567  0.7903E-02  0.4420E-01
     -2.495  0.6519E-02  0.4467E-01
     -2.423  0.5921E-02  0.4509E-01
     -2.350  0.7527E-02  0.4564E-01
     -2.278  0.7364E-02  0.4617E-01
     -2.206  0.5873E-02  0.4659E-01
     -2.134  0.5038E-02  0.4696E-01
     -2.061  0.2734E-02  0.4716E-01
     -1.989  0.1167E-02  0.4724E-01
     -1.917  0.2565E-02  0.4743E-01
     -1.845  0.4341E-02  0.4774E-01
     -1.773  0.3129E-02  0.4796E-01
     -1.700  0.1969E-02  0.4811E-01
     -1.628  0.2219E-02  0.4827E-01
     -1.556  0.1434E-02  0.4837E-01
     -1.484  0.3670E-03  0.4840E-01
     -1.411  0.3589E-04  0.4840E-01
     -1.339  0.1321E-05  0.4840E-01
     -1.267  0.1805E-07  0.4840E-01
     -1.195  0.9060E-10  0.4840E-01
     -1.122  0.1655E-12  0.4840E-01
     -1.050  0.1094E-15  0.4840E-01
     -0.978  0.0000E+00  0.4840E-01
     -0.906  0.0000E+00  0.4840E-01
     -0.834  0.1383E-17  0.4840E-01
     -0.761  0.3488E-14  0.4840E-01
     -0.689  0.3072E-11  0.4840E-01
     -0.617  0.9768E-09  0.4840E-01
     -0.545  0.1129E-06  0.4840E-01
     -0.472  0.4790E-05  0.4840E-01
     -0.400  0.7556E-04  0.4841E-01
     -0.328  0.4491E-03  0.4844E-01
     -0.256  0.1018E-02  0.4851E-01
     -0.183  0.9006E-03  0.4858E-01
     -0.111  0.4827E-03  0.4861E-01
     -0.039  0.1004E-02  0.4868E-01
      0.033  0.2151E-02  0.4884E-01
      0.105  0.2900E-02  0.4905E-01
      0.178  0.4175E-02  0.4935E-01
      0.250  0.4471E-02  0.4967E-01
      0.322  0.3798E-02  0.4995E-01
      0.394  0.6231E-02  0.5040E-01
      0.467  0.1193E-01  0.5126E-01
      0.539  0.1689E-01  0.5248E-01
      0.611  0.1514E-01  0.5357E-01
      0.683  0.1341E-01  0.5454E-01
      0.755  0.1105E-01  0.5534E-01
      0.828  0.5160E-02  0.5571E-01
      0.900  0.1649E-02  0.5583E-01
      0.972  0.3112E-02  0.5606E-01
      1.044  0.7949E-02  0.5663E-01
      1.117  0.1123E-01  0.5744E-01
      1.189  0.1112E-01  0.5825E-01
      1.261  0.1029E-01  0.5899E-01
      1.333  0.8410E-02  0.5960E-01
      1.406  0.4327E-02  0.5991E-01
      1.478  0.1123E-02  0.5999E-01
      1.550  0.1338E-03  0.6000E-01
      1.622  0.6854E-05  0.6000E-01
      1.694  0.1426E-06  0.6000E-01
      1.767  0.1152E-08  0.6000E-01
      1.839  0.3494E-11  0.6000E-01
      1.911  0.3900E-14  0.6000E-01
      1.983  0.1537E-17  0.6000E-01
      2.056  0.0000E+00  0.6000E-01
      2.128  0.0000E+00  0.6000E-01
      2.200  0.0000E+00  0.6000E-01
      2.272  0.0000E+00  0.6000E-01
      2.345  0.0000E+00  0.6000E-01
