 running on   36 total cores
 distrk:  each k-point on   36 cores,    1 groups
 distr:  one band on    3 cores,   12 groups
 using from now: INCAR     
 vasp.5.4.1 05Feb16 (build Apr 21 2017 13:36:42) gamma-only                     
  
 POSCAR found :  5 types and      93 ions
 scaLAPACK will be used
 LDA part: xc-table for Pade appr. of Perdew
 POSCAR found :  5 types and      93 ions
 POSCAR, INCAR and KPOINTS ok, starting setup
 FFT: planning ...
 WAVECAR not read
 entering main loop
       N       E                     dE             d eps       ncg     rms          rms(c)
DAV:   1     0.441226379815E+04    0.44123E+04   -0.18076E+05   612   0.112E+03
DAV:   2    -0.566327238669E+01   -0.44179E+04   -0.42522E+04   984   0.267E+02
DAV:   3    -0.671347597018E+03   -0.66568E+03   -0.65590E+03   732   0.113E+02
DAV:   4    -0.705241628619E+03   -0.33894E+02   -0.33661E+02   876   0.327E+01
DAV:   5    -0.706500357208E+03   -0.12587E+01   -0.12521E+01   924   0.556E+00    0.124E+02
DAV:   6    -0.691677740156E+03    0.14823E+02   -0.57630E+02   900   0.369E+01    0.946E+01
DAV:   7    -0.695488803655E+03   -0.38111E+01   -0.96781E+02   936   0.113E+02    0.474E+01
DAV:   8    -0.660097623109E+03    0.35391E+02   -0.12615E+02   840   0.193E+01    0.297E+01
DAV:   9    -0.656947288828E+03    0.31503E+01   -0.56149E+01   948   0.151E+01    0.258E+01
DAV:  10    -0.651127181720E+03    0.58201E+01   -0.29032E+01   936   0.819E+00    0.198E+01
DAV:  11    -0.650839593567E+03    0.28759E+00   -0.70829E+00   984   0.294E+00    0.165E+01
DAV:  12    -0.650646505833E+03    0.19309E+00   -0.11792E+00   972   0.108E+00    0.161E+01
DAV:  13    -0.651547548103E+03   -0.90104E+00   -0.81826E+00   900   0.385E+00    0.186E+01
DAV:  14    -0.651535015229E+03    0.12533E-01   -0.69276E-01   816   0.119E+00    0.171E+01
DAV:  15    -0.651034778278E+03    0.50024E+00   -0.35215E-01   912   0.102E+00    0.145E+01
DAV:  16    -0.650651389697E+03    0.38339E+00   -0.37324E-01   948   0.891E-01    0.102E+01
DAV:  17    -0.650709920674E+03   -0.58531E-01   -0.35099E-02   888   0.240E-01    0.112E+01
DAV:  18    -0.650641386422E+03    0.68534E-01   -0.21556E-01   936   0.346E-01    0.856E+00
DAV:  19    -0.650638005021E+03    0.33814E-02   -0.59677E-02   804   0.130E-01    0.923E+00
DAV:  20    -0.650635910217E+03    0.20948E-02   -0.12071E-02   852   0.821E-02    0.910E+00
DAV:  21    -0.650769245727E+03   -0.13334E+00   -0.22056E-01   912   0.469E-01    0.119E+01
DAV:  22    -0.650502194573E+03    0.26705E+00   -0.53821E-01   960   0.722E-01    0.763E+00
DAV:  23    -0.650424948902E+03    0.77246E-01   -0.46973E-02   936   0.286E-01    0.699E+00
DAV:  24    -0.650430360061E+03   -0.54112E-02   -0.50398E-03   828   0.556E-02    0.703E+00
DAV:  25    -0.650387586776E+03    0.42773E-01   -0.61167E-02   888   0.233E-01    0.660E+00
DAV:  26    -0.650394040649E+03   -0.64539E-02   -0.14057E-02   840   0.134E-01    0.646E+00
DAV:  27    -0.650412867525E+03   -0.18827E-01   -0.15960E-01   936   0.325E-01    0.720E+00
DAV:  28    -0.650503940691E+03   -0.91073E-01   -0.26809E-01   960   0.667E-01    0.108E+01
DAV:  29    -0.650493242594E+03    0.10698E-01   -0.76147E-02   792   0.330E-01    0.108E+01
DAV:  30    -0.650482808670E+03    0.10434E-01   -0.78358E-03   876   0.145E-01    0.105E+01
DAV:  31    -0.650487434131E+03   -0.46255E-02   -0.16558E-02   888   0.195E-01    0.104E+01
DAV:  32    -0.650410994724E+03    0.76439E-01   -0.13011E-01   936   0.442E-01    0.853E+00
DAV:  33    -0.650363580795E+03    0.47414E-01   -0.18565E-02   936   0.203E-01    0.753E+00
DAV:  34    -0.650220455366E+03    0.14313E+00   -0.38387E-01   948   0.590E-01    0.320E+00
DAV:  35    -0.650197799717E+03    0.22656E-01   -0.38305E-02   948   0.217E-01    0.271E+00
DAV:  36    -0.650187238830E+03    0.10561E-01   -0.25694E-02   948   0.171E-01    0.225E+00
DAV:  37    -0.650173129519E+03    0.14109E-01   -0.78296E-02   936   0.284E-01    0.121E+00
DAV:  38    -0.650178485899E+03   -0.53564E-02   -0.36705E-02   888   0.204E-01    0.123E+00
DAV:  39    -0.650178063502E+03    0.42240E-03   -0.16819E-02   900   0.152E-01    0.156E+00
DAV:  40    -0.650173582111E+03    0.44814E-02   -0.50338E-03   876   0.992E-02    0.124E+00
DAV:  41    -0.650174039721E+03   -0.45761E-03   -0.11666E-03   756   0.384E-02    0.141E+00
DAV:  42    -0.650175809177E+03   -0.17695E-02   -0.26964E-03   840   0.494E-02    0.157E+00
DAV:  43    -0.650177085967E+03   -0.12768E-02   -0.36680E-03   924   0.911E-02    0.125E+00
DAV:  44    -0.650176038537E+03    0.10474E-02   -0.36613E-03   936   0.763E-02    0.892E-01
DAV:  45    -0.650176304345E+03   -0.26581E-03   -0.46628E-04   672   0.251E-02    0.934E-01
DAV:  46    -0.650176253775E+03    0.50570E-04   -0.33975E-05   396   0.790E-03
   1 F= -.66591150E+03 E0= -.66585777E+03  d E =-.665912E+03
 curvature:   0.00 expect dE= 0.000E+00 dE for cont linesearch  0.000E+00
 trial: gam= 0.00000 g(F)=  0.752E+01 g(S)=  0.000E+00 ort = 0.000E+00 (trialstep = 0.100E+01)
 search vector abs. value=  0.752E+01
 bond charge predicted
       N       E                     dE             d eps       ncg     rms          rms(c)
DAV:   1    -0.649480415889E+03    0.69589E+00   -0.57929E+02   612   0.300E+01    0.389E+01
DAV:   2    -0.653621981961E+03   -0.41416E+01   -0.46699E+01   900   0.913E+00    0.219E+01
DAV:   3    -0.662981148976E+03   -0.93592E+01   -0.14630E+02   924   0.130E+01    0.336E+01
DAV:   4    -0.652935250050E+03    0.10046E+02   -0.20724E+01   936   0.204E+01    0.173E+01
DAV:   5    -0.653102083920E+03   -0.16683E+00   -0.98432E+00   960   0.522E+00    0.146E+01
DAV:   6    -0.653466993624E+03   -0.36491E+00   -0.10124E+01   888   0.206E+00    0.126E+01
DAV:   7    -0.652959381915E+03    0.50761E+00   -0.19102E+01   876   0.207E+00    0.355E+00
DAV:   8    -0.652840121155E+03    0.11926E+00   -0.30790E-01   876   0.829E-01    0.164E+00
DAV:   9    -0.652820072617E+03    0.20049E-01   -0.15619E-01   960   0.437E-01    0.161E+00
DAV:  10    -0.652803067449E+03    0.17005E-01   -0.44135E-02   948   0.289E-01    0.120E+00
DAV:  11    -0.652786726811E+03    0.16341E-01   -0.29041E-02   936   0.340E-01    0.807E-01
DAV:  12    -0.652779723765E+03    0.70030E-02   -0.35665E-02   888   0.308E-01    0.592E-01
DAV:  13    -0.652778284742E+03    0.14390E-02   -0.19543E-02   804   0.172E-01    0.295E-01
DAV:  14    -0.652777509174E+03    0.77557E-03   -0.50604E-03   888   0.680E-02    0.258E-01
DAV:  15    -0.652776759970E+03    0.74920E-03   -0.29751E-03   684   0.395E-02    0.207E-01
DAV:  16    -0.652775215637E+03    0.15443E-02   -0.21436E-03   756   0.442E-02    0.928E-02
DAV:  17    -0.652774426930E+03    0.78871E-03   -0.87417E-04   564   0.283E-02    0.968E-02
DAV:  18    -0.652773878018E+03    0.54891E-03   -0.54476E-04   420   0.235E-02    0.797E-02
DAV:  19    -0.652773366699E+03    0.51132E-03   -0.18724E-04   432   0.219E-02    0.817E-02
DAV:  20    -0.652772666695E+03    0.70000E-03   -0.25029E-04   480   0.174E-02    0.857E-02
DAV:  21    -0.652772362272E+03    0.30442E-03   -0.65222E-05   372   0.128E-02    0.670E-02
DAV:  22    -0.652771964739E+03    0.39753E-03   -0.10833E-04   456   0.139E-02    0.510E-02
DAV:  23    -0.652772151085E+03   -0.18635E-03   -0.17603E-04   528   0.146E-02    0.117E-01
DAV:  24    -0.652771934399E+03    0.21669E-03   -0.54361E-05   396   0.144E-02    0.356E-02
DAV:  25    -0.652772006445E+03   -0.72046E-04   -0.25253E-05   372   0.976E-03
   2 F= -.66853845E+03 E0= -.66847995E+03  d E =-.262695E+01
 trial-energy change:   -2.626951  1 .order   -2.657497   -7.515295    2.200301
 step:   0.7702(harm=  0.7735)  dis= 0.16706  next Energy=  -668.791648 (dE=-0.288E+01)
 bond charge predicted
       N       E                     dE             d eps       ncg     rms          rms(c)
DAV:   1    -0.652919823288E+03   -0.14789E+00   -0.32035E+01   600   0.731E+00    0.419E+00
DAV:   2    -0.653139514611E+03   -0.21969E+00   -0.24307E+00   936   0.276E+00    0.366E+00
DAV:   3    -0.653367586738E+03   -0.22807E+00   -0.52927E+00   948   0.299E+00    0.864E+00
DAV:   4    -0.653135493796E+03    0.23209E+00   -0.81011E+00   900   0.228E+00    0.219E+00
DAV:   5    -0.653069303794E+03    0.66190E-01   -0.18951E-01   924   0.668E-01    0.130E+00
DAV:   6    -0.653058660378E+03    0.10643E-01   -0.12904E-01  1008   0.443E-01    0.114E+00
DAV:   7    -0.653055576249E+03    0.30841E-02   -0.13073E-01   840   0.218E-01    0.737E-01
DAV:   8    -0.653052785392E+03    0.27909E-02   -0.74077E-02   924   0.164E-01    0.695E-01
DAV:   9    -0.653049736982E+03    0.30484E-02   -0.49075E-02   852   0.146E-01    0.379E-01
DAV:  10    -0.653046988457E+03    0.27485E-02   -0.10864E-02   900   0.839E-02    0.309E-01
DAV:  11    -0.653045359110E+03    0.16293E-02   -0.71741E-03   612   0.442E-02    0.247E-01
DAV:  12    -0.653043925701E+03    0.14334E-02   -0.27966E-03   624   0.432E-02    0.173E-01
DAV:  13    -0.653042338995E+03    0.15867E-02   -0.17369E-03   648   0.313E-02    0.163E-01
DAV:  14    -0.653041534430E+03    0.80456E-03   -0.59339E-04   432   0.234E-02    0.120E-01
DAV:  15    -0.653040043044E+03    0.14914E-02   -0.60659E-04   612   0.235E-02    0.125E-01
DAV:  16    -0.653037976487E+03    0.20666E-02   -0.58454E-04   648   0.330E-02    0.864E-02
DAV:  17    -0.653036486575E+03    0.14899E-02   -0.46794E-04   648   0.264E-02    0.959E-02
DAV:  18    -0.653036087498E+03    0.39908E-03   -0.83816E-05   396   0.147E-02    0.920E-02
DAV:  19    -0.653036274253E+03   -0.18675E-03   -0.90434E-05   408   0.188E-02    0.603E-02
DAV:  20    -0.653036207979E+03    0.66274E-04   -0.57212E-05   396   0.139E-02
   3 F= -.66879150E+03 E0= -.66873309E+03  d E =-.288000E+01
 curvature:  -0.39 expect dE=-0.106E+01 dE for cont linesearch -0.128E-05
 trial: gam= 0.36490 g(F)=  0.274E+01 g(S)=  0.000E+00 ort =-0.499E-02 (trialstep = 0.954E+00)
 search vector abs. value=  0.373E+01
 bond charge predicted
       N       E                     dE             d eps       ncg     rms          rms(c)
DAV:   1    -0.652002035610E+03    0.10342E+01   -0.33652E+02   600   0.242E+01    0.825E+00
DAV:   2    -0.653476765399E+03   -0.14747E+01   -0.18547E+01   924   0.686E+00    0.870E+00
DAV:   3    -0.654246983241E+03   -0.77022E+00   -0.22548E+01   936   0.581E+00    0.146E+01
DAV:   4    -0.653071271814E+03    0.11757E+01   -0.25697E+01   936   0.714E+00    0.367E+00
DAV:   5    -0.653034540829E+03    0.36731E-01   -0.95309E-01   912   0.148E+00    0.364E+00
DAV:   6    -0.653184985249E+03   -0.15044E+00   -0.21249E+00   840   0.647E-01    0.772E+00
DAV:   7    -0.653009138589E+03    0.17585E+00   -0.69727E+00   876   0.101E+00    0.147E+00
DAV:   8    -0.652972921241E+03    0.36217E-01   -0.17681E-01   924   0.468E-01    0.101E+00
DAV:   9    -0.652973128893E+03   -0.20765E-03   -0.15662E-01   888   0.185E-01    0.957E-01
DAV:  10    -0.652968556025E+03    0.45729E-02   -0.83141E-02   936   0.164E-01    0.549E-01
DAV:  11    -0.652966356306E+03    0.21997E-02   -0.48050E-02   936   0.126E-01    0.450E-01
DAV:  12    -0.652964898719E+03    0.14576E-02   -0.22273E-02   852   0.760E-02    0.269E-01
DAV:  13    -0.652964189507E+03    0.70921E-03   -0.12077E-02   696   0.530E-02    0.211E-01
DAV:  14    -0.652963742126E+03    0.44738E-03   -0.52693E-03   540   0.392E-02    0.120E-01
DAV:  15    -0.652963495369E+03    0.24676E-03   -0.25596E-03   420   0.293E-02    0.985E-02
DAV:  16    -0.652963374544E+03    0.12082E-03   -0.10480E-03   420   0.228E-02    0.415E-02
DAV:  17    -0.652963344516E+03    0.30029E-04   -0.37438E-04   396   0.170E-02
   4 F= -.66870317E+03 E0= -.66864547E+03  d E =0.883344E-01
 trial-energy change:    0.088334  1 .order   -0.008752   -2.609786    2.592281
 step:   0.4520(harm=  0.4786)  dis= 0.07224  next Energy=  -669.399388 (dE=-0.608E+00)
 bond charge predicted
       N       E                     dE             d eps       ncg     rms          rms(c)
DAV:   1    -0.653391275819E+03   -0.42790E+00   -0.94645E+01   600   0.132E+01    0.500E+00
DAV:   2    -0.654883993678E+03   -0.14927E+01   -0.16389E+01   900   0.699E+00    0.129E+01
DAV:   3    -0.653793251886E+03    0.10907E+01   -0.22235E+01   948   0.785E+00    0.386E+00
DAV:   4    -0.653717840108E+03    0.75412E-01   -0.14137E+00   876   0.123E+00    0.250E+00
DAV:   5    -0.653696654762E+03    0.21185E-01   -0.70085E-01   852   0.446E-01    0.226E+00
DAV:   6    -0.653680945302E+03    0.15709E-01   -0.61834E-01   960   0.585E-01    0.180E+00
DAV:   7    -0.653663966357E+03    0.16979E-01   -0.24598E-01   876   0.400E-01    0.886E-01
DAV:   8    -0.653660509916E+03    0.34564E-02   -0.15004E-01   900   0.249E-01    0.101E+00
DAV:   9    -0.653655901493E+03    0.46084E-02   -0.38148E-02   888   0.154E-01    0.461E-01
DAV:  10    -0.653653278177E+03    0.26233E-02   -0.23134E-02   912   0.112E-01    0.442E-01
DAV:  11    -0.653652038615E+03    0.12396E-02   -0.42975E-03   924   0.846E-02    0.254E-01
DAV:  12    -0.653650941482E+03    0.10971E-02   -0.26545E-03   852   0.616E-02    0.139E-01
DAV:  13    -0.653650471886E+03    0.46960E-03   -0.11444E-03   720   0.354E-02    0.159E-01
DAV:  14    -0.653650154899E+03    0.31699E-03   -0.93249E-04   468   0.275E-02    0.364E-02
DAV:  15    -0.653650077682E+03    0.77217E-04   -0.45873E-04   408   0.202E-02
   5 F= -.66939756E+03 E0= -.66934015E+03  d E =-.606055E+00
 curvature:  -0.33 expect dE=-0.660E+00 dE for cont linesearch -0.303E-05
 trial: gam= 0.72639 g(F)=  0.203E+01 g(S)=  0.000E+00 ort =-0.589E-02 (trialstep = 0.799E+00)
 search vector abs. value=  0.399E+01
 bond charge predicted
       N       E                     dE             d eps       ncg     rms          rms(c)
DAV:   1    -0.653572298319E+03    0.77857E-01   -0.24800E+02   612   0.204E+01    0.579E+00
DAV:   2    -0.654256842249E+03   -0.68454E+00   -0.85407E+00   888   0.429E+00    0.437E+00
DAV:   3    -0.654316557871E+03   -0.59716E-01   -0.33637E+00   912   0.224E+00    0.451E+00
DAV:   4    -0.654185020963E+03    0.13154E+00   -0.26328E+00   936   0.187E+00    0.303E+00
DAV:   5    -0.654280746055E+03   -0.95725E-01   -0.20405E+00   948   0.120E+00    0.606E+00
DAV:   6    -0.654157871030E+03    0.12288E+00   -0.24584E+00   936   0.159E+00    0.216E+00
DAV:   7    -0.654136516326E+03    0.21355E-01   -0.60391E-01   900   0.410E-01    0.185E+00
DAV:   8    -0.654122178643E+03    0.14338E-01   -0.39792E-01   924   0.398E-01    0.117E+00
DAV:   9    -0.654111914650E+03    0.10264E-01   -0.19382E-01   936   0.279E-01    0.853E-01
DAV:  10    -0.654107898099E+03    0.40166E-02   -0.10958E-01   924   0.172E-01    0.606E-01
DAV:  11    -0.654104937701E+03    0.29604E-02   -0.41395E-02   936   0.117E-01    0.388E-01
DAV:  12    -0.654103826006E+03    0.11117E-02   -0.24587E-02   936   0.693E-02    0.308E-01
DAV:  13    -0.654103055986E+03    0.77002E-03   -0.10556E-02   576   0.566E-02    0.238E-01
DAV:  14    -0.654102706866E+03    0.34912E-03   -0.71242E-03   516   0.422E-02    0.159E-01
DAV:  15    -0.654102557659E+03    0.14921E-03   -0.17781E-03   420   0.257E-02    0.137E-01
DAV:  16    -0.654102469694E+03    0.87965E-04   -0.11785E-03   396   0.238E-02    0.729E-02
DAV:  17    -0.654102489198E+03   -0.19504E-04   -0.55281E-04   408   0.153E-02
   6 F= -.66980857E+03 E0= -.66975060E+03  d E =-.411019E+00
 trial-energy change:   -0.411019  1 .order   -0.423327   -1.616059    0.769406
 step:   0.5361(harm=  0.5416)  dis= 0.10629  next Energy=  -669.935726 (dE=-0.538E+00)
 bond charge predicted
       N       E                     dE             d eps       ncg     rms          rms(c)
DAV:   1    -0.654152458180E+03   -0.49988E-01   -0.26653E+01   600   0.663E+00    0.193E+00
DAV:   2    -0.654322612219E+03   -0.17015E+00   -0.19062E+00   936   0.265E+00    0.278E+00
DAV:   3    -0.654229942692E+03    0.92670E-01   -0.10405E+00   948   0.182E+00    0.117E+00
DAV:   4    -0.654229699946E+03    0.24275E-03   -0.23250E-01   888   0.358E-01    0.143E+00
DAV:   5    -0.654225125875E+03    0.45741E-02   -0.21625E-01   900   0.207E-01    0.970E-01
DAV:   6    -0.654221989831E+03    0.31360E-02   -0.15926E-01   960   0.253E-01    0.895E-01
DAV:   7    -0.654218606075E+03    0.33838E-02   -0.80110E-02   900   0.153E-01    0.452E-01
DAV:   8    -0.654217478361E+03    0.11277E-02   -0.42683E-02   888   0.106E-01    0.447E-01
DAV:   9    -0.654216343698E+03    0.11347E-02   -0.20326E-02   840   0.779E-02    0.196E-01
DAV:  10    -0.654216041375E+03    0.30232E-03   -0.80302E-03   804   0.573E-02    0.206E-01
DAV:  11    -0.654215826254E+03    0.21512E-03   -0.36571E-03   576   0.391E-02    0.672E-02
DAV:  12    -0.654215770524E+03    0.55731E-04   -0.10863E-03   432   0.289E-02    0.100E-01
DAV:  13    -0.654215731864E+03    0.38660E-04   -0.50649E-04   396   0.161E-02
   7 F= -.66993578E+03 E0= -.66987819E+03  d E =-.538225E+00
 curvature:  -0.53 expect dE=-0.510E+00 dE for cont linesearch -0.615E-06
 trial: gam= 0.38644 g(F)=  0.956E+00 g(S)=  0.000E+00 ort = 0.214E-02 (trialstep = 0.747E+00)
 search vector abs. value=  0.155E+01
 bond charge predicted
       N       E                     dE             d eps       ncg     rms          rms(c)
DAV:   1    -0.654403757050E+03   -0.18799E+00   -0.63168E+01   600   0.106E+01    0.352E+00
DAV:   2    -0.654655010617E+03   -0.25125E+00   -0.33858E+00   888   0.263E+00    0.330E+00
DAV:   3    -0.654668840121E+03   -0.13830E-01   -0.18087E+00   936   0.796E-01    0.328E+00
DAV:   4    -0.654632886063E+03    0.35954E-01   -0.10663E+00   936   0.768E-01    0.217E+00
DAV:   5    -0.654617649625E+03    0.15236E-01   -0.85452E-01   936   0.815E-01    0.211E+00
DAV:   6    -0.654611871905E+03    0.57777E-02   -0.35919E-01   912   0.337E-01    0.186E+00
DAV:   7    -0.654597879172E+03    0.13993E-01   -0.35180E-01   948   0.740E-01    0.131E+00
DAV:   8    -0.654588024600E+03    0.98546E-02   -0.58095E-02   936   0.236E-01    0.322E-01
DAV:   9    -0.654586142768E+03    0.18818E-02   -0.30632E-02   876   0.142E-01    0.691E-01
DAV:  10    -0.654584083634E+03    0.20591E-02   -0.16938E-02   900   0.749E-02    0.175E-01
DAV:  11    -0.654583457921E+03    0.62571E-03   -0.70008E-03   876   0.668E-02    0.318E-01
DAV:  12    -0.654582986111E+03    0.47181E-03   -0.41534E-03   672   0.370E-02    0.124E-01
DAV:  13    -0.654582772593E+03    0.21352E-03   -0.13146E-03   432   0.290E-02    0.145E-01
DAV:  14    -0.654582741359E+03    0.31233E-04   -0.66257E-04   396   0.234E-02
   8 F= -.67027673E+03 E0= -.67021943E+03  d E =-.340951E+00
 trial-energy change:   -0.340951  1 .order   -0.333742   -0.714216    0.046733
 step:   0.7032(harm=  0.7009)  dis= 0.04737  next Energy=  -670.278091 (dE=-0.342E+00)
 bond charge predicted
       N       E                     dE             d eps       ncg     rms          rms(c)
DAV:   1    -0.654581990500E+03    0.78209E-03   -0.21497E-01   600   0.615E-01    0.206E-01
DAV:   2    -0.654582986022E+03   -0.99552E-03   -0.10045E-02   876   0.172E-01    0.258E-01
DAV:   3    -0.654583081162E+03   -0.95140E-04   -0.52341E-03   912   0.888E-02    0.256E-01
DAV:   4    -0.654582868209E+03    0.21295E-03   -0.39464E-03   696   0.635E-02    0.173E-01
DAV:   5    -0.654582854561E+03    0.13647E-04   -0.30349E-03   540   0.282E-02    0.175E-01
DAV:   6    -0.654582699382E+03    0.15518E-03   -0.20632E-03   624   0.573E-02    0.619E-02
DAV:   7    -0.654582676995E+03    0.22387E-04   -0.35263E-04   420   0.317E-02
   9 F= -.67027814E+03 E0= -.67022024E+03  d E =-.342362E+00
 curvature:  -0.57 expect dE=-0.774E+00 dE for cont linesearch -0.346E-05
 trial: gam= 1.41040 g(F)=  0.136E+01 g(S)=  0.000E+00 ort =-0.307E-02 (trialstep = 0.258E+00)
 search vector abs. value=  0.444E+01
 bond charge predicted
       N       E                     dE             d eps       ncg     rms          rms(c)
DAV:   1    -0.654807207011E+03   -0.22451E+00   -0.22338E+01   600   0.625E+00    0.183E+00
DAV:   2    -0.654883505942E+03   -0.76299E-01   -0.92068E-01   888   0.166E+00    0.124E+00
DAV:   3    -0.654902561432E+03   -0.19055E-01   -0.29753E-01   924   0.920E-01    0.154E+00
DAV:   4    -0.654878177520E+03    0.24384E-01   -0.26066E-01   948   0.745E-01    0.928E-01
DAV:   5    -0.654880192044E+03   -0.20145E-02   -0.12501E-01   936   0.278E-01    0.103E+00
DAV:   6    -0.654875370752E+03    0.48213E-02   -0.61665E-02   924   0.189E-01    0.578E-01
DAV:   7    -0.654874282577E+03    0.10882E-02   -0.47607E-02   936   0.211E-01    0.487E-01
DAV:   8    -0.654873015229E+03    0.12673E-02   -0.21020E-02   864   0.874E-02    0.187E-01
DAV:   9    -0.654872804388E+03    0.21084E-03   -0.10075E-02   540   0.428E-02    0.242E-01
DAV:  10    -0.654872503788E+03    0.30060E-03   -0.47239E-03   420   0.337E-02    0.843E-02
DAV:  11    -0.654872440367E+03    0.63421E-04   -0.14157E-03   408   0.264E-02    0.106E-01
DAV:  12    -0.654872396251E+03    0.44116E-04   -0.64131E-04   432   0.254E-02
  10 F= -.67055399E+03 E0= -.67049621E+03  d E =-.275851E+00
 trial-energy change:   -0.275851  1 .order   -0.275029   -0.350649   -0.199410
 step:   0.5748(harm=  0.5978)  dis= 0.07618  next Energy=  -670.678077 (dE=-0.400E+00)
 bond charge predicted
       N       E                     dE             d eps       ncg     rms          rms(c)
DAV:   1    -0.654920964685E+03   -0.48524E-01   -0.33747E+01   600   0.768E+00    0.224E+00
DAV:   2    -0.655041097002E+03   -0.12013E+00   -0.14185E+00   888   0.206E+00    0.173E+00
DAV:   3    -0.655094303813E+03   -0.53207E-01   -0.75980E-01   924   0.148E+00    0.218E+00
DAV:   4    -0.655030455960E+03    0.63848E-01   -0.45557E-01   948   0.115E+00    0.108E+00
DAV:   5    -0.655029047581E+03    0.14084E-02   -0.15707E-01   948   0.324E-01    0.113E+00
DAV:   6    -0.655030440717E+03   -0.13931E-02   -0.11000E-01   972   0.259E-01    0.121E+00
DAV:   7    -0.655026535104E+03    0.39056E-02   -0.13903E-01   924   0.497E-01    0.713E-01
DAV:   8    -0.655022845542E+03    0.36896E-02   -0.41384E-02   912   0.163E-01    0.289E-01
DAV:   9    -0.655022094026E+03    0.75152E-03   -0.18877E-02   852   0.704E-02    0.352E-01
DAV:  10    -0.655021349547E+03    0.74448E-03   -0.43630E-03   504   0.362E-02    0.125E-01
DAV:  11    -0.655021009357E+03    0.34019E-03   -0.15089E-03   540   0.408E-02    0.147E-01
DAV:  12    -0.655020817274E+03    0.19208E-03   -0.44306E-04   432   0.257E-02    0.595E-02
DAV:  13    -0.655020798924E+03    0.18350E-04   -0.10592E-04   396   0.200E-02
  11 F= -.67068567E+03 E0= -.67062775E+03  d E =-.407527E+00
 curvature:  -0.97 expect dE=-0.946E+00 dE for cont linesearch -0.540E-03
 trial: gam= 0.70097 g(F)=  0.973E+00 g(S)=  0.000E+00 ort = 0.497E-01 (trialstep = 0.321E+00)
 search vector abs. value=  0.323E+01
 bond charge predicted
       N       E                     dE             d eps       ncg     rms          rms(c)
DAV:   1    -0.655207927428E+03   -0.18711E+00   -0.27500E+01   600   0.691E+00    0.182E+00
DAV:   2    -0.655303836470E+03   -0.95909E-01   -0.12138E+00   888   0.161E+00    0.205E+00
DAV:   3    -0.655304865659E+03   -0.10292E-02   -0.70770E-01   912   0.413E-01    0.197E+00
DAV:   4    -0.655291771691E+03    0.13094E-01   -0.48642E-01   948   0.397E-01    0.134E+00
DAV:   5    -0.655287258071E+03    0.45136E-02   -0.34553E-01   936   0.462E-01    0.138E+00
DAV:   6    -0.655277172180E+03    0.10086E-01   -0.12644E-01   936   0.288E-01    0.564E-01
DAV:   7    -0.655275771873E+03    0.14003E-02   -0.62810E-02   912   0.104E-01    0.711E-01
DAV:   8    -0.655273391415E+03    0.23805E-02   -0.24904E-02   900   0.121E-01    0.280E-01
DAV:   9    -0.655272824909E+03    0.56651E-03   -0.10528E-02   900   0.658E-02    0.353E-01
DAV:  10    -0.655272341413E+03    0.48350E-03   -0.36486E-03   756   0.415E-02    0.184E-01
DAV:  11    -0.655272243023E+03    0.98389E-04   -0.15529E-03   528   0.316E-02    0.194E-01
DAV:  12    -0.655272182036E+03    0.60987E-04   -0.61263E-04   396   0.158E-02
  12 F= -.67092347E+03 E0= -.67086515E+03  d E =-.237804E+00
 trial-energy change:   -0.237804  1 .order   -0.238703   -0.323770   -0.153636
 step:   0.6306(harm=  0.6113)  dis= 0.07778  next Energy=  -670.996647 (dE=-0.311E+00)
 bond charge predicted
       N       E                     dE             d eps       ncg     rms          rms(c)
DAV:   1    -0.655299488145E+03   -0.27245E-01   -0.25442E+01   600   0.665E+00    0.176E+00
DAV:   2    -0.655389205145E+03   -0.89717E-01   -0.11671E+00   888   0.154E+00    0.206E+00
DAV:   3    -0.655392216049E+03   -0.30109E-02   -0.74398E-01   924   0.495E-01    0.202E+00
DAV:   4    -0.655378109781E+03    0.14106E-01   -0.48106E-01   948   0.484E-01    0.131E+00
DAV:   5    -0.655370010813E+03    0.80990E-02   -0.32260E-01   936   0.432E-01    0.120E+00
DAV:   6    -0.655368602782E+03    0.14080E-02   -0.12049E-01   936   0.235E-01    0.104E+00
DAV:   7    -0.655362344872E+03    0.62579E-02   -0.10912E-01   948   0.372E-01    0.812E-01
DAV:   8    -0.655359387402E+03    0.29575E-02   -0.14078E-02   912   0.984E-02    0.118E-01
DAV:   9    -0.655358946526E+03    0.44088E-03   -0.74671E-03   852   0.802E-02    0.440E-01
DAV:  10    -0.655358205519E+03    0.74101E-03   -0.24374E-03   624   0.447E-02    0.138E-01
DAV:  11    -0.655358121865E+03    0.83654E-04   -0.11701E-03   504   0.301E-02    0.232E-01
DAV:  12    -0.655358025957E+03    0.95908E-04   -0.61004E-04   396   0.191E-02
  13 F= -.67099654E+03 E0= -.67093886E+03  d E =-.310872E+00
 curvature:  -0.97 expect dE=-0.958E+00 dE for cont linesearch -0.201E-05
 trial: gam= 1.06016 g(F)=  0.983E+00 g(S)=  0.000E+00 ort = 0.258E-02 (trialstep = 0.268E+00)
 search vector abs. value=  0.461E+01
 bond charge predicted
       N       E                     dE             d eps       ncg     rms          rms(c)
DAV:   1    -0.655518361251E+03   -0.16024E+00   -0.24955E+01   600   0.652E+00    0.157E+00
DAV:   2    -0.655587564185E+03   -0.69203E-01   -0.83919E-01   888   0.142E+00    0.117E+00
DAV:   3    -0.655597015071E+03   -0.94509E-02   -0.30455E-01   948   0.648E-01    0.199E+00
DAV:   4    -0.655587979711E+03    0.90354E-02   -0.31711E-01   948   0.671E-01    0.102E+00
DAV:   5    -0.655583174432E+03    0.48053E-02   -0.15441E-01   912   0.235E-01    0.103E+00
DAV:   6    -0.655577139347E+03    0.60351E-02   -0.87830E-02   936   0.241E-01    0.452E-01
DAV:   7    -0.655576186995E+03    0.95235E-03   -0.44694E-02   912   0.113E-01    0.585E-01
DAV:   8    -0.655574221903E+03    0.19651E-02   -0.20933E-02   972   0.100E-01    0.138E-01
DAV:   9    -0.655573907105E+03    0.31480E-03   -0.97314E-03   936   0.711E-02    0.292E-01
DAV:  10    -0.655573454472E+03    0.45263E-03   -0.44336E-03   552   0.392E-02    0.760E-02
DAV:  11    -0.655573434074E+03    0.20398E-04   -0.17752E-03   396   0.226E-02    0.171E-01
DAV:  12    -0.655573347771E+03    0.86303E-04   -0.13610E-03   396   0.271E-02    0.944E-02
DAV:  13    -0.655573292130E+03    0.55641E-04   -0.12505E-04   444   0.172E-02
  14 F= -.67119885E+03 E0= -.67114093E+03  d E =-.202305E+00
 trial-energy change:   -0.202305  1 .order   -0.202159   -0.264075   -0.140242
 step:   0.5712(harm=  0.5712)  dis= 0.09474  next Energy=  -671.278113 (dE=-0.282E+00)
 bond charge predicted
       N       E                     dE             d eps       ncg     rms          rms(c)
DAV:   1    -0.655597155744E+03   -0.23808E-01   -0.32004E+01   600   0.737E+00    0.179E+00
DAV:   2    -0.655688807967E+03   -0.91652E-01   -0.11234E+00   888   0.161E+00    0.149E+00
DAV:   3    -0.655697201667E+03   -0.83937E-02   -0.46491E-01   936   0.699E-01    0.211E+00
DAV:   4    -0.655687093614E+03    0.10108E-01   -0.42641E-01   948   0.701E-01    0.122E+00
DAV:   5    -0.655679399083E+03    0.76945E-02   -0.23001E-01   936   0.305E-01    0.117E+00
DAV:   6    -0.655672732561E+03    0.66665E-02   -0.12222E-01   936   0.309E-01    0.568E-01
DAV:   7    -0.655670739305E+03    0.19933E-02   -0.62485E-02   936   0.163E-01    0.674E-01
DAV:   8    -0.655668614137E+03    0.21252E-02   -0.21775E-02   936   0.111E-01    0.194E-01
DAV:   9    -0.655668334618E+03    0.27952E-03   -0.13505E-02   936   0.113E-01    0.383E-01
DAV:  10    -0.655667734779E+03    0.59984E-03   -0.21741E-03   684   0.449E-02    0.942E-02
DAV:  11    -0.655667722072E+03    0.12707E-04   -0.98239E-04   540   0.392E-02
  15 F= -.67127904E+03 E0= -.67122161E+03  d E =-.282497E+00
 curvature:  -1.34 expect dE=-0.127E+01 dE for cont linesearch -0.366E-05
 trial: gam= 0.90770 g(F)=  0.949E+00 g(S)=  0.000E+00 ort = 0.355E-02 (trialstep = 0.319E+00)
 search vector abs. value=  0.476E+01
 bond charge predicted
       N       E                     dE             d eps       ncg     rms          rms(c)
DAV:   1    -0.655824896037E+03   -0.15716E+00   -0.33167E+01   600   0.743E+00    0.209E+00
DAV:   2    -0.655934115623E+03   -0.10922E+00   -0.13531E+00   912   0.174E+00    0.165E+00
DAV:   3    -0.655948904031E+03   -0.14788E-01   -0.55446E-01   912   0.615E-01    0.242E+00
DAV:   4    -0.655936654292E+03    0.12250E-01   -0.54078E-01   936   0.689E-01    0.137E+00
DAV:   5    -0.655924931261E+03    0.11723E-01   -0.30621E-01   948   0.366E-01    0.127E+00
DAV:   6    -0.655917832697E+03    0.70986E-02   -0.13385E-01   936   0.266E-01    0.608E-01
DAV:   7    -0.655915843687E+03    0.19890E-02   -0.74667E-02   912   0.163E-01    0.807E-01
DAV:   8    -0.655912986107E+03    0.28576E-02   -0.33383E-02   900   0.143E-01    0.248E-01
DAV:   9    -0.655912837210E+03    0.14890E-03   -0.16251E-02   900   0.748E-02    0.479E-01
DAV:  10    -0.655912100642E+03    0.73657E-03   -0.11071E-02   720   0.618E-02    0.269E-01
DAV:  11    -0.655911971860E+03    0.12878E-03   -0.31250E-03   492   0.304E-02    0.287E-01
DAV:  12    -0.655911768995E+03    0.20286E-03   -0.26516E-03   456   0.289E-02    0.211E-01
DAV:  13    -0.655911667555E+03    0.10144E-03   -0.27220E-04   420   0.221E-02    0.154E-01
DAV:  14    -0.655911639785E+03    0.27770E-04   -0.28940E-04   360   0.156E-02
  16 F= -.67151132E+03 E0= -.67145347E+03  d E =-.232283E+00
 trial-energy change:   -0.232283  1 .order   -0.232924   -0.303320   -0.162528
 step:   0.7104(harm=  0.6866)  dis= 0.12481  next Energy=  -671.610021 (dE=-0.331E+00)
 bond charge predicted
       N       E                     dE             d eps       ncg     rms          rms(c)
DAV:   1    -0.655889193275E+03    0.22474E-01   -0.50115E+01   600   0.913E+00    0.261E+00
DAV:   2    -0.656058506073E+03   -0.16931E+00   -0.20891E+00   912   0.215E+00    0.218E+00
DAV:   3    -0.656092878960E+03   -0.34373E-01   -0.10420E+00   912   0.899E-01    0.358E+00
DAV:   4    -0.656064470915E+03    0.28408E-01   -0.89519E-01   900   0.101E+00    0.168E+00
DAV:   5    -0.656041058275E+03    0.23413E-01   -0.39511E-01   948   0.444E-01    0.155E+00
DAV:   6    -0.656029232828E+03    0.11825E-01   -0.20384E-01   936   0.289E-01    0.802E-01
DAV:   7    -0.656026473307E+03    0.27595E-02   -0.12256E-01   912   0.238E-01    0.995E-01
DAV:   8    -0.656022977079E+03    0.34962E-02   -0.84059E-02   924   0.223E-01    0.513E-01
DAV:   9    -0.656021250368E+03    0.17267E-02   -0.33321E-02   912   0.124E-01    0.518E-01
DAV:  10    -0.656020540351E+03    0.71002E-03   -0.19653E-02   876   0.702E-02    0.388E-01
DAV:  11    -0.656019976383E+03    0.56397E-03   -0.41213E-03   636   0.423E-02    0.298E-01
DAV:  12    -0.656019808919E+03    0.16746E-03   -0.33171E-03   600   0.455E-02    0.304E-01
DAV:  13    -0.656019497725E+03    0.31119E-03   -0.23905E-04   480   0.284E-02    0.150E-01
DAV:  14    -0.656019473533E+03    0.24192E-04   -0.20343E-04   420   0.221E-02
  17 F= -.67160588E+03 E0= -.67154793E+03  d E =-.326837E+00
 curvature:  -1.71 expect dE=-0.174E+01 dE for cont linesearch -0.266E-03
 trial: gam= 1.08088 g(F)=  0.102E+01 g(S)=  0.000E+00 ort =-0.272E-01 (trialstep = 0.290E+00)
 search vector abs. value=  0.652E+01
 bond charge predicted
       N       E                     dE             d eps       ncg     rms          rms(c)
DAV:   1    -0.656125533862E+03   -0.10604E+00   -0.32317E+01   600   0.723E+00    0.245E+00
DAV:   2    -0.656241547034E+03   -0.11601E+00   -0.13687E+00   876   0.180E+00    0.186E+00
DAV:   3    -0.656285080986E+03   -0.43534E-01   -0.87319E-01   936   0.972E-01    0.391E+00
DAV:   4    -0.656250037281E+03    0.35044E-01   -0.78176E-01   912   0.958E-01    0.141E+00
DAV:   5    -0.656236564201E+03    0.13473E-01   -0.30010E-01   924   0.327E-01    0.154E+00
DAV:   6    -0.656224403636E+03    0.12161E-01   -0.15818E-01   936   0.246E-01    0.672E-01
DAV:   7    -0.656221736337E+03    0.26673E-02   -0.95358E-02   876   0.224E-01    0.927E-01
DAV:   8    -0.656218356842E+03    0.33795E-02   -0.34084E-02   876   0.147E-01    0.384E-01
DAV:   9    -0.656217038867E+03    0.13180E-02   -0.20059E-02   924   0.106E-01    0.487E-01
DAV:  10    -0.656216391935E+03    0.64693E-03   -0.91069E-03   852   0.646E-02    0.344E-01
DAV:  11    -0.656215959826E+03    0.43211E-03   -0.51115E-03   612   0.393E-02    0.290E-01
DAV:  12    -0.656215823672E+03    0.13615E-03   -0.24072E-03   576   0.434E-02    0.288E-01
DAV:  13    -0.656215562678E+03    0.26099E-03   -0.15940E-03   432   0.270E-02    0.174E-01
DAV:  14    -0.656215552601E+03    0.10077E-04   -0.13382E-04   384   0.199E-02
  18 F= -.67179379E+03 E0= -.67173544E+03  d E =-.187911E+00
 trial-energy change:   -0.187911  1 .order   -0.189449   -0.287009   -0.091889
 step:   0.4367(harm=  0.4262)  dis= 0.09421  next Energy=  -671.816883 (dE=-0.211E+00)
 bond charge predicted
       N       E                     dE             d eps       ncg     rms          rms(c)
DAV:   1    -0.656219649119E+03   -0.40864E-02   -0.83160E+00   600   0.367E+00    0.122E+00
DAV:   2    -0.656250056906E+03   -0.30408E-01   -0.35736E-01   876   0.906E-01    0.104E+00
DAV:   3    -0.656261541880E+03   -0.11485E-01   -0.27843E-01   936   0.494E-01    0.185E+00
DAV:   4    -0.656252346705E+03    0.91952E-02   -0.25824E-01   924   0.475E-01    0.836E-01
DAV:   5    -0.656249557994E+03    0.27887E-02   -0.12843E-01   924   0.160E-01    0.919E-01
DAV:   6    -0.656244702364E+03    0.48556E-02   -0.58949E-02   924   0.167E-01    0.311E-01
DAV:   7    -0.656244484916E+03    0.21745E-03   -0.32980E-02   876   0.978E-02    0.599E-01
DAV:   8    -0.656242973334E+03    0.15116E-02   -0.10411E-02   900   0.774E-02    0.136E-01
DAV:   9    -0.656243129697E+03   -0.15636E-03   -0.48247E-03   804   0.475E-02    0.375E-01
DAV:  10    -0.656242606700E+03    0.52300E-03   -0.50238E-04   444   0.356E-02    0.187E-01
DAV:  11    -0.656242638867E+03   -0.32167E-04   -0.14020E-04   420   0.193E-02
  19 F= -.67181703E+03 E0= -.67175871E+03  d E =-.211158E+00
 curvature:  -1.39 expect dE=-0.816E+00 dE for cont linesearch -0.220E-05
 trial: gam= 0.51723 g(F)=  0.586E+00 g(S)=  0.000E+00 ort = 0.321E-02 (trialstep = 0.319E+00)
 search vector abs. value=  0.233E+01
 bond charge predicted
       N       E                     dE             d eps       ncg     rms          rms(c)
DAV:   1    -0.656349086048E+03   -0.10648E+00   -0.14541E+01   600   0.497E+00    0.153E+00
DAV:   2    -0.656396358430E+03   -0.47272E-01   -0.57989E-01   900   0.124E+00    0.971E-01
DAV:   3    -0.656397514664E+03   -0.11562E-02   -0.11926E-01   936   0.419E-01    0.116E+00
DAV:   4    -0.656395309567E+03    0.22051E-02   -0.12297E-01   912   0.450E-01    0.777E-01
DAV:   5    -0.656392044732E+03    0.32648E-02   -0.57187E-02   924   0.206E-01    0.688E-01
DAV:   6    -0.656390935328E+03    0.11094E-02   -0.54853E-02   936   0.178E-01    0.540E-01
DAV:   7    -0.656389882982E+03    0.10523E-02   -0.30577E-02   924   0.129E-01    0.387E-01
DAV:   8    -0.656389467947E+03    0.41503E-03   -0.18601E-02   876   0.795E-02    0.292E-01
DAV:   9    -0.656389213936E+03    0.25401E-03   -0.12464E-02   792   0.884E-02    0.245E-01
DAV:  10    -0.656388868505E+03    0.34543E-03   -0.58681E-03   552   0.398E-02    0.990E-02
DAV:  11    -0.656388813116E+03    0.55390E-04   -0.28955E-03   408   0.274E-02    0.155E-01
DAV:  12    -0.656388708687E+03    0.10443E-03   -0.16784E-03   384   0.212E-02    0.464E-02
DAV:  13    -0.656388690430E+03    0.18256E-04   -0.67887E-04   360   0.161E-02
  20 F= -.67195791E+03 E0= -.67189973E+03  d E =-.140882E+00
 trial-energy change:   -0.140882  1 .order   -0.140630   -0.187397   -0.093862
 step:   0.6394(harm=  0.6394)  dis= 0.08111  next Energy=  -672.004758 (dE=-0.188E+00)
 bond charge predicted
       N       E                     dE             d eps       ncg     rms          rms(c)
DAV:   1    -0.656402353287E+03   -0.13645E-01   -0.14656E+01   600   0.498E+00    0.154E+00
DAV:   2    -0.656449287688E+03   -0.46934E-01   -0.57789E-01   900   0.123E+00    0.902E-01
DAV:   3    -0.656448148642E+03    0.11390E-02   -0.71849E-02   900   0.361E-01    0.902E-01
DAV:   4    -0.656447743228E+03    0.40541E-03   -0.71617E-02   912   0.415E-01    0.665E-01
DAV:   5    -0.656443088916E+03    0.46543E-02   -0.31910E-02   912   0.290E-01    0.414E-01
DAV:   6    -0.656442806749E+03    0.28217E-03   -0.13434E-02   828   0.106E-01    0.300E-01
DAV:   7    -0.656443005067E+03   -0.19832E-03   -0.15814E-02   888   0.953E-02    0.328E-01
DAV:   8    -0.656442792570E+03    0.21250E-03   -0.14753E-02   864   0.921E-02    0.228E-01
DAV:   9    -0.656442510337E+03    0.28223E-03   -0.59417E-03   540   0.378E-02    0.133E-01
DAV:  10    -0.656442358147E+03    0.15219E-03   -0.29488E-03   456   0.323E-02    0.105E-01
DAV:  11    -0.656442284492E+03    0.73654E-04   -0.12757E-03   384   0.183E-02    0.539E-02
DAV:  12    -0.656442257535E+03    0.26957E-04   -0.43996E-04   360   0.163E-02
  21 F= -.67200632E+03 E0= -.67194803E+03  d E =-.189287E+00
 curvature:  -1.27 expect dE=-0.556E+00 dE for cont linesearch -0.866E-05
 trial: gam= 0.75855 g(F)=  0.438E+00 g(S)=  0.000E+00 ort = 0.399E-02 (trialstep = 0.383E+00)
 search vector abs. value=  0.179E+01
 bond charge predicted
       N       E                     dE             d eps       ncg     rms          rms(c)
DAV:   1    -0.656521178667E+03   -0.78894E-01   -0.16750E+01   600   0.527E+00    0.133E+00
DAV:   2    -0.656576047435E+03   -0.54869E-01   -0.63320E-01   912   0.130E+00    0.158E+00
DAV:   3    -0.656602101394E+03   -0.26054E-01   -0.51127E-01   912   0.942E-01    0.182E+00
DAV:   4    -0.656574572965E+03    0.27528E-01   -0.29762E-01   936   0.520E-01    0.108E+00
DAV:   5    -0.656566718889E+03    0.78541E-02   -0.16507E-01   936   0.286E-01    0.838E-01
DAV:   6    -0.656563829343E+03    0.28895E-02   -0.66021E-02   888   0.232E-01    0.683E-01
DAV:   7    -0.656562150370E+03    0.16790E-02   -0.57669E-02   900   0.202E-01    0.602E-01
DAV:   8    -0.656560539428E+03    0.16109E-02   -0.50220E-03   900   0.809E-02    0.163E-01
DAV:   9    -0.656560384197E+03    0.15523E-03   -0.16633E-03   672   0.455E-02    0.341E-01
DAV:  10    -0.656559854904E+03    0.52929E-03   -0.29910E-04   468   0.325E-02    0.104E-01
DAV:  11    -0.656559830972E+03    0.23932E-04   -0.41158E-04   528   0.286E-02
  22 F= -.67211494E+03 E0= -.67205703E+03  d E =-.108620E+00
 trial-energy change:   -0.108620  1 .order   -0.108318   -0.168909   -0.047726
 step:   0.5341(harm=  0.5341)  dis= 0.04915  next Energy=  -672.124036 (dE=-0.118E+00)
 bond charge predicted
       N       E                     dE             d eps       ncg     rms          rms(c)
DAV:   1    -0.656566528431E+03   -0.66735E-02   -0.25990E+00   600   0.208E+00    0.546E-01
DAV:   2    -0.656576397618E+03   -0.98692E-02   -0.11148E-01   900   0.553E-01    0.748E-01
DAV:   3    -0.656580154432E+03   -0.37568E-02   -0.99390E-02   912   0.404E-01    0.798E-01
DAV:   4    -0.656575222455E+03    0.49320E-02   -0.47670E-02   924   0.191E-01    0.463E-01
DAV:   5    -0.656573699049E+03    0.15234E-02   -0.28215E-02   912   0.123E-01    0.363E-01
DAV:   6    -0.656573399078E+03    0.29997E-03   -0.88678E-03   792   0.873E-02    0.307E-01
DAV:   7    -0.656573025268E+03    0.37381E-03   -0.84504E-03   912   0.903E-02    0.280E-01
DAV:   8    -0.656572666042E+03    0.35923E-03   -0.31604E-03   648   0.388E-02    0.634E-02
DAV:   9    -0.656572673613E+03   -0.75715E-05   -0.17392E-03   444   0.262E-02    0.162E-01
DAV:  10    -0.656572574274E+03    0.99339E-04   -0.88178E-04   360   0.162E-02
  23 F= -.67212415E+03 E0= -.67206549E+03  d E =-.117831E+00
 curvature:  -1.08 expect dE=-0.537E+00 dE for cont linesearch -0.951E-06
 trial: gam= 1.13997 g(F)=  0.496E+00 g(S)=  0.000E+00 ort =-0.125E-02 (trialstep = 0.262E+00)
 search vector abs. value=  0.281E+01
 bond charge predicted
       N       E                     dE             d eps       ncg     rms          rms(c)
DAV:   1    -0.656665139069E+03   -0.92465E-01   -0.11361E+01   600   0.419E+00    0.113E+00
DAV:   2    -0.656695519823E+03   -0.30381E-01   -0.38043E-01   900   0.945E-01    0.834E-01
DAV:   3    -0.656695575261E+03   -0.55438E-04   -0.10980E-01   852   0.203E-01    0.103E+00
DAV:   4    -0.656694148326E+03    0.14269E-02   -0.12740E-01   924   0.162E-01    0.756E-01
DAV:   5    -0.656696963684E+03   -0.28154E-02   -0.12537E-01   912   0.293E-01    0.876E-01
DAV:   6    -0.656691096367E+03    0.58673E-02   -0.50419E-02   912   0.235E-01    0.310E-01
DAV:   7    -0.656690831279E+03    0.26509E-03   -0.21334E-02   864   0.776E-02    0.470E-01
DAV:   8    -0.656689891031E+03    0.94025E-03   -0.52209E-03   792   0.651E-02    0.137E-01
DAV:   9    -0.656689712500E+03    0.17853E-03   -0.17380E-03   600   0.418E-02    0.230E-01
DAV:  10    -0.656689496747E+03    0.21575E-03   -0.44781E-04   444   0.307E-02    0.956E-02
DAV:  11    -0.656689472652E+03    0.24095E-04   -0.16502E-04   396   0.220E-02
  24 F= -.67223188E+03 E0= -.67217337E+03  d E =-.107728E+00
 trial-energy change:   -0.107728  1 .order   -0.107467   -0.129732   -0.085202
 step:   0.7643(harm=  0.7643)  dis= 0.10202  next Energy=  -672.313129 (dE=-0.189E+00)
 bond charge predicted
       N       E                     dE             d eps       ncg     rms          rms(c)
DAV:   1    -0.656697759567E+03   -0.82628E-02   -0.41551E+01   600   0.804E+00    0.213E+00
DAV:   2    -0.656813716776E+03   -0.11596E+00   -0.14072E+00   900   0.183E+00    0.161E+00
DAV:   3    -0.656838496508E+03   -0.24780E-01   -0.49382E-01   936   0.751E-01    0.347E+00
DAV:   4    -0.656816979340E+03    0.21517E-01   -0.49550E-01   948   0.859E-01    0.130E+00
DAV:   5    -0.656801903821E+03    0.15076E-01   -0.17215E-01   948   0.346E-01    0.120E+00
DAV:   6    -0.656795951175E+03    0.59526E-02   -0.15167E-01   912   0.222E-01    0.849E-01
DAV:   7    -0.656792774888E+03    0.31763E-02   -0.72111E-02   924   0.173E-01    0.651E-01
DAV:   8    -0.656790657018E+03    0.21179E-02   -0.55347E-02   876   0.152E-01    0.403E-01
DAV:   9    -0.656789431447E+03    0.12256E-02   -0.18425E-02   912   0.959E-02    0.326E-01
DAV:  10    -0.656788895989E+03    0.53546E-03   -0.12230E-02   756   0.599E-02    0.197E-01
DAV:  11    -0.656788577597E+03    0.31839E-03   -0.40637E-03   480   0.313E-02    0.162E-01
DAV:  12    -0.656788457892E+03    0.11970E-03   -0.29556E-03   468   0.339E-02    0.112E-01
DAV:  13    -0.656788364580E+03    0.93313E-04   -0.10432E-03   408   0.221E-02    0.518E-02
DAV:  14    -0.656788367462E+03   -0.28827E-05   -0.59742E-04   396   0.169E-02
  25 F= -.67231360E+03 E0= -.67225456E+03  d E =-.189446E+00
 curvature:  -2.17 expect dE=-0.937E+00 dE for cont linesearch -0.202E-05
 trial: gam= 0.85044 g(F)=  0.431E+00 g(S)=  0.000E+00 ort =-0.162E-02 (trialstep = 0.363E+00)
 search vector abs. value=  0.246E+01
 bond charge predicted
       N       E                     dE             d eps       ncg     rms          rms(c)
DAV:   1    -0.656849977182E+03   -0.61613E-01   -0.17514E+01   600   0.527E+00    0.163E+00
DAV:   2    -0.656910855071E+03   -0.60878E-01   -0.71658E-01   888   0.130E+00    0.125E+00
DAV:   3    -0.656948147007E+03   -0.37292E-01   -0.42588E-01   948   0.770E-01    0.380E+00
DAV:   4    -0.656917320470E+03    0.30827E-01   -0.38028E-01   900   0.694E-01    0.905E-01
DAV:   5    -0.656906992500E+03    0.10328E-01   -0.11014E-01   900   0.197E-01    0.106E+00
DAV:   6    -0.656901774660E+03    0.52178E-02   -0.90297E-02   900   0.131E-01    0.568E-01
DAV:   7    -0.656899289288E+03    0.24854E-02   -0.46243E-02   900   0.157E-01    0.599E-01
DAV:   8    -0.656897750283E+03    0.15390E-02   -0.35305E-02   876   0.968E-02    0.309E-01
DAV:   9    -0.656897177522E+03    0.57276E-03   -0.11831E-02   852   0.713E-02    0.339E-01
DAV:  10    -0.656896721223E+03    0.45630E-03   -0.83567E-03   708   0.492E-02    0.197E-01
DAV:  11    -0.656896538595E+03    0.18263E-03   -0.19869E-03   504   0.306E-02    0.161E-01
DAV:  12    -0.656896508089E+03    0.30506E-04   -0.16323E-03   456   0.285E-02    0.165E-01
DAV:  13    -0.656896400911E+03    0.10718E-03   -0.90491E-04   420   0.218E-02    0.500E-02
DAV:  14    -0.656896412905E+03   -0.11994E-04   -0.34842E-04   360   0.157E-02
  26 F= -.67241130E+03 E0= -.67235175E+03  d E =-.977042E-01
 trial-energy change:   -0.097704  1 .order   -0.097768   -0.155746   -0.039790
 step:   0.4872(harm=  0.4872)  dis= 0.06755  next Energy=  -672.418193 (dE=-0.105E+00)
 bond charge predicted
       N       E                     dE             d eps       ncg     rms          rms(c)
DAV:   1    -0.656901395720E+03   -0.49948E-02   -0.20617E+00   600   0.179E+00    0.564E-01
DAV:   2    -0.656908378869E+03   -0.69831E-02   -0.82348E-02   888   0.439E-01    0.423E-01
DAV:   3    -0.656914338421E+03   -0.59596E-02   -0.53174E-02   936   0.280E-01    0.122E+00
DAV:   4    -0.656908934153E+03    0.54043E-02   -0.47691E-02   900   0.253E-01    0.345E-01
DAV:   5    -0.656908089593E+03    0.84456E-03   -0.14461E-02   876   0.643E-02    0.409E-01
DAV:   6    -0.656907206517E+03    0.88308E-03   -0.11073E-02   696   0.548E-02    0.155E-01
DAV:   7    -0.656907225248E+03   -0.18731E-04   -0.38902E-03   672   0.401E-02    0.259E-01
DAV:   8    -0.656906948478E+03    0.27677E-03   -0.23688E-03   540   0.365E-02    0.534E-02
DAV:   9    -0.656906969374E+03   -0.20896E-04   -0.32964E-04   408   0.231E-02
  27 F= -.67241835E+03 E0= -.67235805E+03  d E =-.104749E+00
 curvature:  -1.40 expect dE=-0.550E+00 dE for cont linesearch -0.996E-05
 trial: gam= 0.91006 g(F)=  0.393E+00 g(S)=  0.000E+00 ort = 0.419E-02 (trialstep = 0.388E+00)
 search vector abs. value=  0.244E+01
 bond charge predicted
       N       E                     dE             d eps       ncg     rms          rms(c)
DAV:   1    -0.656972087346E+03   -0.65139E-01   -0.18389E+01   600   0.542E+00    0.191E+00
DAV:   2    -0.657040644534E+03   -0.68557E-01   -0.75989E-01   900   0.142E+00    0.170E+00
DAV:   3    -0.657112149175E+03   -0.71505E-01   -0.84082E-01   900   0.135E+00    0.230E+00
DAV:   4    -0.657041315661E+03    0.70834E-01   -0.41726E-01   936   0.898E-01    0.109E+00
DAV:   5    -0.657035184389E+03    0.61313E-02   -0.13091E-01   924   0.235E-01    0.981E-01
DAV:   6    -0.657029027755E+03    0.61566E-02   -0.70693E-02   876   0.230E-01    0.634E-01
DAV:   7    -0.657028990821E+03    0.36933E-04   -0.51854E-02   888   0.148E-01    0.757E-01
DAV:   8    -0.657026550338E+03    0.24405E-02   -0.36770E-02   900   0.161E-01    0.383E-01
DAV:   9    -0.657026094168E+03    0.45617E-03   -0.22916E-02   924   0.768E-02    0.355E-01
DAV:  10    -0.657025943161E+03    0.15101E-03   -0.11544E-02   672   0.470E-02    0.270E-01
DAV:  11    -0.657025402059E+03    0.54110E-03   -0.67603E-03   696   0.561E-02    0.189E-01
DAV:  12    -0.657025274389E+03    0.12767E-03   -0.25148E-03   504   0.267E-02    0.852E-02
DAV:  13    -0.657025277121E+03   -0.27324E-05   -0.14870E-03   408   0.211E-02    0.124E-01
DAV:  14    -0.657025200254E+03    0.76867E-04   -0.66629E-04   360   0.166E-02
  28 F= -.67252643E+03 E0= -.67246692E+03  d E =-.108080E+00
 trial-energy change:   -0.108080  1 .order   -0.108086   -0.153903   -0.062270
 step:   0.6511(harm=  0.6511)  dis= 0.09514  next Energy=  -672.547591 (dE=-0.129E+00)
 bond charge predicted
       N       E                     dE             d eps       ncg     rms          rms(c)
DAV:   1    -0.657029484771E+03   -0.42077E-02   -0.84994E+00   600   0.368E+00    0.130E+00
DAV:   2    -0.657064243815E+03   -0.34759E-01   -0.36388E-01   900   0.997E-01    0.141E+00
DAV:   3    -0.657101838454E+03   -0.37595E-01   -0.46484E-01   900   0.999E-01    0.170E+00
DAV:   4    -0.657064096533E+03    0.37742E-01   -0.20699E-01   936   0.615E-01    0.843E-01
DAV:   5    -0.657060018788E+03    0.40777E-02   -0.66843E-02   924   0.168E-01    0.743E-01
DAV:   6    -0.657055829506E+03    0.41893E-02   -0.25911E-02   852   0.165E-01    0.446E-01
DAV:   7    -0.657055778523E+03    0.50983E-04   -0.19522E-02   912   0.118E-01    0.546E-01
DAV:   8    -0.657054477979E+03    0.13005E-02   -0.17092E-02   900   0.109E-01    0.277E-01
DAV:   9    -0.657054425854E+03    0.52125E-04   -0.11352E-02   804   0.562E-02    0.305E-01
DAV:  10    -0.657054078265E+03    0.34759E-03   -0.56158E-03   504   0.346E-02    0.180E-01
DAV:  11    -0.657053844946E+03    0.23332E-03   -0.35945E-03   564   0.411E-02    0.143E-01
DAV:  12    -0.657053777783E+03    0.67164E-04   -0.15155E-03   420   0.210E-02    0.692E-02
DAV:  13    -0.657053774558E+03    0.32248E-05   -0.83546E-04   360   0.184E-02
  29 F= -.67254809E+03 E0= -.67248842E+03  d E =-.129739E+00
 curvature:  -2.00 expect dE=-0.671E+00 dE for cont linesearch -0.296E-05
 trial: gam= 0.87128 g(F)=  0.335E+00 g(S)=  0.000E+00 ort = 0.190E-02 (trialstep = 0.440E+00)
 search vector abs. value=  0.219E+01
 bond charge predicted
       N       E                     dE             d eps       ncg     rms          rms(c)
DAV:   1    -0.657102912442E+03   -0.49135E-01   -0.23142E+01   600   0.598E+00    0.197E+00
DAV:   2    -0.657175806628E+03   -0.72894E-01   -0.88434E-01   876   0.144E+00    0.144E+00
DAV:   3    -0.657182517870E+03   -0.67112E-02   -0.35116E-01   852   0.464E-01    0.164E+00
DAV:   4    -0.657171179792E+03    0.11338E-01   -0.30645E-01   924   0.330E-01    0.105E+00
DAV:   5    -0.657200999445E+03   -0.29820E-01   -0.26870E-01   912   0.368E-01    0.333E+00
DAV:   6    -0.657170494525E+03    0.30505E-01   -0.18366E-01   912   0.422E-01    0.666E-01
DAV:   7    -0.657165739508E+03    0.47550E-02   -0.89910E-02   876   0.129E-01    0.856E-01
DAV:   8    -0.657162679359E+03    0.30601E-02   -0.54428E-02   840   0.975E-02    0.331E-01
DAV:   9    -0.657162281443E+03    0.39792E-03   -0.25156E-02   876   0.709E-02    0.506E-01
DAV:  10    -0.657161302729E+03    0.97871E-03   -0.13277E-02   708   0.513E-02    0.207E-01
DAV:  11    -0.657161204727E+03    0.98002E-04   -0.32861E-03   480   0.341E-02    0.322E-01
DAV:  12    -0.657160913541E+03    0.29119E-03   -0.20983E-03   384   0.221E-02    0.182E-01
DAV:  13    -0.657160885190E+03    0.28351E-04   -0.72071E-04   384   0.186E-02
  30 F= -.67264575E+03 E0= -.67258416E+03  d E =-.976664E-01
 trial-energy change:   -0.097666  1 .order   -0.097463   -0.148367   -0.046558
 step:   0.6417(harm=  0.6417)  dis= 0.09083  next Energy=  -672.656195 (dE=-0.108E+00)
 bond charge predicted
       N       E                     dE             d eps       ncg     rms          rms(c)
DAV:   1    -0.657163890538E+03   -0.29770E-02   -0.48365E+00   600   0.273E+00    0.914E-01
DAV:   2    -0.657180083876E+03   -0.16193E-01   -0.18995E-01   876   0.656E-01    0.821E-01
DAV:   3    -0.657184362632E+03   -0.42788E-02   -0.14490E-01   912   0.214E-01    0.118E+00
DAV:   4    -0.657182726584E+03    0.16360E-02   -0.14172E-01   924   0.281E-01    0.716E-01
DAV:   5    -0.657177980345E+03    0.47462E-02   -0.61435E-02   924   0.210E-01    0.520E-01
DAV:   6    -0.657177896102E+03    0.84243E-04   -0.31204E-02   840   0.847E-02    0.497E-01
DAV:   7    -0.657176507745E+03    0.13884E-02   -0.15148E-02   912   0.106E-01    0.314E-01
DAV:   8    -0.657175996000E+03    0.51174E-03   -0.67508E-03   588   0.447E-02    0.781E-02
DAV:   9    -0.657175975186E+03    0.20814E-04   -0.24700E-04   456   0.315E-02
  31 F= -.67265653E+03 E0= -.67259587E+03  d E =-.108445E+00
 curvature:  -2.09 expect dE=-0.802E+00 dE for cont linesearch -0.731E-05
 trial: gam= 1.12119 g(F)=  0.384E+00 g(S)=  0.000E+00 ort = 0.277E-02 (trialstep = 0.335E+00)
 search vector abs. value=  0.315E+01
 bond charge predicted
       N       E                     dE             d eps       ncg     rms          rms(c)
DAV:   1    -0.657233700675E+03   -0.57705E-01   -0.21004E+01   600   0.567E+00    0.171E+00
DAV:   2    -0.657290421571E+03   -0.56721E-01   -0.72329E-01   876   0.126E+00    0.130E+00
DAV:   3    -0.657310931690E+03   -0.20510E-01   -0.38178E-01   936   0.461E-01    0.268E+00
DAV:   4    -0.657299530028E+03    0.11402E-01   -0.38812E-01   912   0.599E-01    0.109E+00
DAV:   5    -0.657285549894E+03    0.13980E-01   -0.14649E-01   924   0.288E-01    0.891E-01
DAV:   6    -0.657280840545E+03    0.47093E-02   -0.65029E-02   888   0.130E-01    0.487E-01
DAV:   7    -0.657280617169E+03    0.22338E-03   -0.52722E-02   852   0.120E-01    0.726E-01
DAV:   8    -0.657279904785E+03    0.71238E-03   -0.25360E-02   888   0.109E-01    0.484E-01
DAV:   9    -0.657278926551E+03    0.97823E-03   -0.15603E-02   828   0.706E-02    0.580E-01
DAV:  10    -0.657278286314E+03    0.64024E-03   -0.92752E-03   600   0.431E-02    0.429E-01
DAV:  11    -0.657277997229E+03    0.28909E-03   -0.30626E-03   480   0.342E-02    0.425E-01
DAV:  12    -0.657277759380E+03    0.23785E-03   -0.20432E-03   420   0.242E-02    0.356E-01
DAV:  13    -0.657277501199E+03    0.25818E-03   -0.17780E-04   408   0.210E-02    0.268E-01
DAV:  14    -0.657277382137E+03    0.11906E-03   -0.42314E-04   432   0.174E-02    0.211E-01
DAV:  15    -0.657277354805E+03    0.27332E-04   -0.27935E-05   336   0.127E-02
  32 F= -.67274997E+03 E0= -.67268870E+03  d E =-.934403E-01
 trial-energy change:   -0.093440  1 .order   -0.094015   -0.129739   -0.058292
 step:   0.6356(harm=  0.6080)  dis= 0.10545  next Energy=  -672.775733 (dE=-0.119E+00)
 bond charge predicted
       N       E                     dE             d eps       ncg     rms          rms(c)
DAV:   1    -0.657273048760E+03    0.43334E-02   -0.16935E+01   600   0.510E+00    0.156E+00
DAV:   2    -0.657322545351E+03   -0.49497E-01   -0.63133E-01   852   0.114E+00    0.142E+00
DAV:   3    -0.657356742925E+03   -0.34198E-01   -0.50077E-01   912   0.598E-01    0.348E+00
DAV:   4    -0.657330414028E+03    0.26329E-01   -0.38061E-01   900   0.635E-01    0.948E-01
DAV:   5    -0.657315697992E+03    0.14716E-01   -0.11224E-01   912   0.244E-01    0.899E-01
DAV:   6    -0.657311411748E+03    0.42862E-02   -0.50060E-02   888   0.107E-01    0.472E-01
DAV:   7    -0.657309363621E+03    0.20481E-02   -0.36464E-02   912   0.160E-01    0.582E-01
DAV:   8    -0.657309277709E+03    0.85912E-04   -0.22567E-02   852   0.112E-01    0.492E-01
DAV:   9    -0.657308245451E+03    0.10323E-02   -0.12019E-02   828   0.808E-02    0.439E-01
DAV:  10    -0.657308072668E+03    0.17278E-03   -0.75847E-03   684   0.388E-02    0.405E-01
DAV:  11    -0.657307714523E+03    0.35814E-03   -0.20582E-03   444   0.278E-02    0.320E-01
DAV:  12    -0.657307606950E+03    0.10757E-03   -0.17205E-03   468   0.263E-02    0.313E-01
DAV:  13    -0.657307349936E+03    0.25701E-03   -0.14531E-04   444   0.198E-02    0.179E-01
DAV:  14    -0.657307356067E+03   -0.61314E-05   -0.85181E-05   396   0.166E-02
  33 F= -.67277302E+03 E0= -.67271182E+03  d E =-.116491E+00
 curvature:  -2.44 expect dE=-0.798E+00 dE for cont linesearch -0.285E-03
 trial: gam= 0.90558 g(F)=  0.327E+00 g(S)=  0.000E+00 ort =-0.192E-01 (trialstep = 0.395E+00)
 search vector abs. value=  0.287E+01
 bond charge predicted
       N       E                     dE             d eps       ncg     rms          rms(c)
DAV:   1    -0.657331583405E+03   -0.24233E-01   -0.28595E+01   600   0.667E+00    0.183E+00
DAV:   2    -0.657406104446E+03   -0.74521E-01   -0.93404E-01   888   0.150E+00    0.121E+00
DAV:   3    -0.657413974954E+03   -0.78705E-02   -0.22919E-01   852   0.565E-01    0.144E+00
DAV:   4    -0.657398326958E+03    0.15648E-01   -0.20343E-01   924   0.458E-01    0.856E-01
DAV:   5    -0.657420353419E+03   -0.22026E-01   -0.16628E-01   912   0.307E-01    0.266E+00
DAV:   6    -0.657401127066E+03    0.19226E-01   -0.15146E-01   924   0.396E-01    0.713E-01
DAV:   7    -0.657395581315E+03    0.55458E-02   -0.75437E-02   888   0.131E-01    0.665E-01
DAV:   8    -0.657393632674E+03    0.19486E-02   -0.39278E-02   816   0.101E-01    0.301E-01
DAV:   9    -0.657393542067E+03    0.90607E-04   -0.24782E-02   888   0.674E-02    0.441E-01
DAV:  10    -0.657392602410E+03    0.93966E-03   -0.10427E-02   696   0.506E-02    0.135E-01
DAV:  11    -0.657392562386E+03    0.40024E-04   -0.48009E-03   480   0.323E-02    0.251E-01
DAV:  12    -0.657392314900E+03    0.24749E-03   -0.25359E-03   396   0.223E-02    0.101E-01
DAV:  13    -0.657392317874E+03   -0.29743E-05   -0.92652E-04   420   0.177E-02
  34 F= -.67284777E+03 E0= -.67278623E+03  d E =-.747482E-01
 trial-energy change:   -0.074748  1 .order   -0.074272   -0.122228   -0.026316
 step:   0.4994(harm=  0.5034)  dis= 0.07305  next Energy=  -672.851259 (dE=-0.782E-01)
 bond charge predicted
       N       E                     dE             d eps       ncg     rms          rms(c)
DAV:   1    -0.657394448811E+03   -0.21339E-02   -0.20022E+00   600   0.176E+00    0.485E-01
DAV:   2    -0.657399805537E+03   -0.53567E-02   -0.68451E-02   888   0.404E-01    0.369E-01
DAV:   3    -0.657400689615E+03   -0.88408E-03   -0.20184E-02   852   0.131E-01    0.508E-01
DAV:   4    -0.657399639761E+03    0.10499E-02   -0.18817E-02   888   0.130E-01    0.328E-01
DAV:   5    -0.657399652074E+03   -0.12313E-04   -0.12191E-02   840   0.104E-01    0.333E-01
DAV:   6    -0.657399016924E+03    0.63515E-03   -0.48943E-03   744   0.501E-02    0.168E-01
DAV:   7    -0.657398940963E+03    0.75961E-04   -0.38768E-03   672   0.530E-02    0.184E-01
DAV:   8    -0.657398769066E+03    0.17190E-03   -0.58278E-04   540   0.322E-02    0.458E-02
DAV:   9    -0.657398768097E+03    0.96958E-06   -0.22347E-04   420   0.175E-02
  35 F= -.67285157E+03 E0= -.67279100E+03  d E =-.785524E-01
 curvature:  -2.33 expect dE=-0.535E+00 dE for cont linesearch -0.195E-04
 trial: gam= 0.59632 g(F)=  0.229E+00 g(S)=  0.000E+00 ort = 0.490E-02 (trialstep = 0.416E+00)
 search vector abs. value=  0.126E+01
 bond charge predicted
       N       E                     dE             d eps       ncg     rms          rms(c)
DAV:   1    -0.657426669354E+03   -0.27900E-01   -0.14019E+01   600   0.462E+00    0.141E+00
DAV:   2    -0.657472279968E+03   -0.45611E-01   -0.56488E-01   900   0.110E+00    0.123E+00
DAV:   3    -0.657479398825E+03   -0.71189E-02   -0.28076E-01   912   0.318E-01    0.172E+00
DAV:   4    -0.657477867930E+03    0.15309E-02   -0.26474E-01   924   0.451E-01    0.107E+00
DAV:   5    -0.657465587577E+03    0.12280E-01   -0.12674E-01   924   0.310E-01    0.700E-01
DAV:   6    -0.657464836043E+03    0.75153E-03   -0.67863E-02   900   0.151E-01    0.680E-01
DAV:   7    -0.657462596882E+03    0.22392E-02   -0.42096E-02   900   0.139E-01    0.422E-01
DAV:   8    -0.657461682531E+03    0.91435E-03   -0.17383E-02   852   0.763E-02    0.169E-01
DAV:   9    -0.657461513435E+03    0.16910E-03   -0.76933E-03   636   0.423E-02    0.223E-01
DAV:  10    -0.657461293860E+03    0.21958E-03   -0.43981E-03   432   0.309E-02    0.635E-02
DAV:  11    -0.657461257986E+03    0.35874E-04   -0.11055E-03   384   0.252E-02    0.102E-01
DAV:  12    -0.657461211032E+03    0.46954E-04   -0.56476E-04   384   0.168E-02
  36 F= -.67290628E+03 E0= -.67284554E+03  d E =-.547019E-01
 trial-energy change:   -0.054702  1 .order   -0.054477   -0.096634   -0.012320
 step:   0.4766(harm=  0.4766)  dis= 0.03992  next Energy=  -672.906952 (dE=-0.554E-01)
 bond charge predicted
       N       E                     dE             d eps       ncg     rms          rms(c)
DAV:   1    -0.657462552585E+03   -0.12946E-02   -0.30059E-01   600   0.676E-01    0.223E-01
DAV:   2    -0.657463705452E+03   -0.11529E-02   -0.14413E-02   900   0.170E-01    0.259E-01
DAV:   3    -0.657463872776E+03   -0.16732E-03   -0.11721E-02   792   0.565E-02    0.279E-01
DAV:   4    -0.657463650285E+03    0.22249E-03   -0.87440E-03   720   0.620E-02    0.196E-01
DAV:   5    -0.657463517674E+03    0.13261E-03   -0.43061E-03   660   0.564E-02    0.155E-01
DAV:   6    -0.657463353833E+03    0.16384E-03   -0.88938E-04   480   0.265E-02    0.791E-02
DAV:   7    -0.657463337198E+03    0.16634E-04   -0.63707E-04   456   0.213E-02
  37 F= -.67290729E+03 E0= -.67284579E+03  d E =-.557135E-01
 curvature:  -1.29 expect dE=-0.173E+00 dE for cont linesearch -0.100E-04
 trial: gam= 0.63090 g(F)=  0.135E+00 g(S)=  0.000E+00 ort = 0.312E-02 (trialstep = 0.428E+00)
 search vector abs. value=  0.639E+00
 bond charge predicted
       N       E                     dE             d eps       ncg     rms          rms(c)
DAV:   1    -0.657492769932E+03   -0.29416E-01   -0.75261E+00   600   0.336E+00    0.114E+00
DAV:   2    -0.657521180139E+03   -0.28410E-01   -0.32171E-01   888   0.855E-01    0.995E-01
DAV:   3    -0.657557688318E+03   -0.36508E-01   -0.26806E-01   924   0.574E-01    0.369E+00
DAV:   4    -0.657528187261E+03    0.29501E-01   -0.21993E-01   876   0.498E-01    0.711E-01
DAV:   5    -0.657518894057E+03    0.92932E-02   -0.56210E-02   912   0.142E-01    0.763E-01
DAV:   6    -0.657516004248E+03    0.28898E-02   -0.42030E-02   828   0.800E-02    0.457E-01
DAV:   7    -0.657514227162E+03    0.17771E-02   -0.25015E-02   864   0.127E-01    0.408E-01
DAV:   8    -0.657513457252E+03    0.76991E-03   -0.15100E-02   816   0.649E-02    0.149E-01
DAV:   9    -0.657513590264E+03   -0.13301E-03   -0.67982E-03   696   0.469E-02    0.297E-01
DAV:  10    -0.657513196788E+03    0.39348E-03   -0.46260E-03   444   0.330E-02    0.113E-01
DAV:  11    -0.657513153553E+03    0.43234E-04   -0.16945E-03   396   0.247E-02    0.150E-01
DAV:  12    -0.657513100954E+03    0.52600E-04   -0.14935E-03   408   0.214E-02    0.101E-01
DAV:  13    -0.657513059113E+03    0.41841E-04   -0.32363E-04   384   0.157E-02
  38 F= -.67295032E+03 E0= -.67288897E+03  d E =-.430289E-01
 trial-energy change:   -0.043029  1 .order   -0.043265   -0.058422   -0.028107
 step:   0.8249(harm=  0.8249)  dis= 0.04633  next Energy=  -672.963584 (dE=-0.563E-01)
 bond charge predicted
       N       E                     dE             d eps       ncg     rms          rms(c)
DAV:   1    -0.657515264572E+03   -0.21636E-02   -0.64775E+00   600   0.310E+00    0.108E+00
DAV:   2    -0.657540585106E+03   -0.25321E-01   -0.29424E-01   888   0.785E-01    0.104E+00
DAV:   3    -0.657567525807E+03   -0.26941E-01   -0.25645E-01   924   0.497E-01    0.312E+00
DAV:   4    -0.657546447517E+03    0.21078E-01   -0.19826E-01   888   0.473E-01    0.748E-01
DAV:   5    -0.657537868280E+03    0.85792E-02   -0.53331E-02   924   0.144E-01    0.717E-01
DAV:   6    -0.657535154310E+03    0.27140E-02   -0.37624E-02   828   0.781E-02    0.445E-01
DAV:   7    -0.657533686859E+03    0.14675E-02   -0.22013E-02   888   0.137E-01    0.421E-01
DAV:   8    -0.657532880069E+03    0.80679E-03   -0.14117E-02   828   0.749E-02    0.162E-01
DAV:   9    -0.657533245638E+03   -0.36557E-03   -0.63426E-03   756   0.487E-02    0.339E-01
DAV:  10    -0.657532683916E+03    0.56172E-03   -0.43441E-03   480   0.333E-02    0.114E-01
DAV:  11    -0.657532632794E+03    0.51122E-04   -0.90144E-04   408   0.237E-02
  39 F= -.67296377E+03 E0= -.67290101E+03  d E =-.564849E-01
 curvature:  -1.93 expect dE=-0.311E+00 dE for cont linesearch -0.663E-05
 trial: gam= 1.18902 g(F)=  0.161E+00 g(S)=  0.000E+00 ort = 0.148E-02 (trialstep = 0.304E+00)
 search vector abs. value=  0.107E+01
 bond charge predicted
       N       E                     dE             d eps       ncg     rms          rms(c)
DAV:   1    -0.657553811489E+03   -0.21128E-01   -0.74151E+00   600   0.335E+00    0.908E-01
DAV:   2    -0.657576106771E+03   -0.22295E-01   -0.25657E-01   900   0.806E-01    0.796E-01
DAV:   3    -0.657597122151E+03   -0.21015E-01   -0.17838E-01   888   0.602E-01    0.127E+00
DAV:   4    -0.657575261434E+03    0.21861E-01   -0.10427E-01   936   0.421E-01    0.578E-01
DAV:   5    -0.657573233727E+03    0.20277E-02   -0.31304E-02   900   0.124E-01    0.482E-01
DAV:   6    -0.657575725784E+03   -0.24921E-02   -0.19449E-02   876   0.140E-01    0.895E-01
DAV:   7    -0.657573196265E+03    0.25295E-02   -0.24021E-02   924   0.171E-01    0.376E-01
DAV:   8    -0.657572102236E+03    0.10940E-02   -0.41980E-03   816   0.603E-02    0.163E-01
DAV:   9    -0.657571833975E+03    0.26826E-03   -0.20531E-03   516   0.359E-02    0.177E-01
DAV:  10    -0.657571653423E+03    0.18055E-03   -0.88269E-04   396   0.227E-02    0.709E-02
DAV:  11    -0.657571604677E+03    0.48746E-04   -0.60857E-04   420   0.193E-02
  40 F= -.67299567E+03 E0= -.67293401E+03  d E =-.318921E-01
 trial-energy change:   -0.031892  1 .order   -0.031785   -0.049452   -0.014117
 step:   0.4248(harm=  0.4248)  dis= 0.02936  next Energy=  -672.998378 (dE=-0.346E-01)
 bond charge predicted
       N       E                     dE             d eps       ncg     rms          rms(c)
DAV:   1    -0.657574609829E+03   -0.29564E-02   -0.11878E+00   600   0.134E+00    0.369E-01
DAV:   2    -0.657577893597E+03   -0.32838E-02   -0.40121E-02   900   0.319E-01    0.216E-01
DAV:   3    -0.657578430964E+03   -0.53737E-03   -0.53847E-03   864   0.108E-01    0.329E-01
DAV:   4    -0.657577761266E+03    0.66970E-03   -0.61885E-03   840   0.107E-01    0.228E-01
DAV:   5    -0.657577633165E+03    0.12810E-03   -0.18266E-03   744   0.553E-02    0.185E-01
DAV:   6    -0.657577535384E+03    0.97781E-04   -0.73831E-04   540   0.245E-02
  41 F= -.67299879E+03 E0= -.67293743E+03  d E =-.350195E-01
 curvature:  -1.39 expect dE=-0.110E+00 dE for cont linesearch -0.145E-04
 trial: gam= 0.49130 g(F)=  0.790E-01 g(S)=  0.000E+00 ort = 0.334E-02 (trialstep = 0.328E+00)
 search vector abs. value=  0.340E+00
 bond charge predicted
       N       E                     dE             d eps       ncg     rms          rms(c)
DAV:   1    -0.657597153237E+03   -0.19520E-01   -0.30807E+00   600   0.216E+00    0.507E-01
DAV:   2    -0.657606939617E+03   -0.97864E-02   -0.94396E-02   864   0.468E-01    0.608E-01
DAV:   3    -0.657613162173E+03   -0.62226E-02   -0.71560E-02   924   0.373E-01    0.162E+00
DAV:   4    -0.657606023614E+03    0.71386E-02   -0.43162E-02   912   0.273E-01    0.459E-01
DAV:   5    -0.657603780420E+03    0.22432E-02   -0.94716E-03   828   0.642E-02    0.353E-01
DAV:   6    -0.657602715447E+03    0.10650E-02   -0.71556E-03   768   0.748E-02    0.215E-01
DAV:   7    -0.657602645744E+03    0.69703E-04   -0.20955E-03   768   0.476E-02    0.195E-01
DAV:   8    -0.657602500486E+03    0.14526E-03   -0.87369E-04   468   0.298E-02    0.118E-01
DAV:   9    -0.657602423623E+03    0.76863E-04   -0.18609E-04   432   0.216E-02
  42 F= -.67301952E+03 E0= -.67295672E+03  d E =-.207299E-01
 trial-energy change:   -0.020730  1 .order   -0.020814   -0.026439   -0.015189
 step:   0.7704(harm=  0.7704)  dis= 0.02874  next Energy=  -673.029861 (dE=-0.311E-01)
 bond charge predicted
       N       E                     dE             d eps       ncg     rms          rms(c)
DAV:   1    -0.657608274500E+03   -0.57740E-02   -0.56094E+00   600   0.291E+00    0.673E-01
DAV:   2    -0.657625432381E+03   -0.17158E-01   -0.17256E-01   888   0.636E-01    0.754E-01
DAV:   3    -0.657638859403E+03   -0.13427E-01   -0.12993E-01   924   0.489E-01    0.243E+00
DAV:   4    -0.657625540806E+03    0.13319E-01   -0.93576E-02   912   0.365E-01    0.561E-01
DAV:   5    -0.657621258898E+03    0.42819E-02   -0.22757E-02   840   0.922E-02    0.526E-01
DAV:   6    -0.657619331291E+03    0.19276E-02   -0.18142E-02   792   0.798E-02    0.351E-01
DAV:   7    -0.657618492193E+03    0.83910E-03   -0.10133E-02   780   0.590E-02    0.236E-01
DAV:   8    -0.657618438574E+03    0.53619E-04   -0.79621E-03   732   0.513E-02    0.224E-01
DAV:   9    -0.657618181431E+03    0.25714E-03   -0.47545E-03   612   0.353E-02    0.140E-01
DAV:  10    -0.657618074524E+03    0.10691E-03   -0.24081E-03   420   0.224E-02    0.919E-02
DAV:  11    -0.657618040909E+03    0.33614E-04   -0.13280E-03   420   0.197E-02    0.728E-02
DAV:  12    -0.657618010268E+03    0.30641E-04   -0.51606E-04   396   0.148E-02
  43 F= -.67302956E+03 E0= -.67296752E+03  d E =-.307665E-01
 curvature:  -1.62 expect dE=-0.146E+00 dE for cont linesearch -0.443E-06
 trial: gam= 1.16204 g(F)=  0.900E-01 g(S)=  0.000E+00 ort =-0.304E-03 (trialstep = 0.258E+00)
 search vector abs. value=  0.548E+00
 bond charge predicted
       N       E                     dE             d eps       ncg     rms          rms(c)
DAV:   1    -0.657632188129E+03   -0.14147E-01   -0.29938E+00   600   0.214E+00    0.534E-01
DAV:   2    -0.657644427159E+03   -0.12239E-01   -0.11231E-01   864   0.515E-01    0.714E-01
DAV:   3    -0.657649677005E+03   -0.52498E-02   -0.91183E-02   924   0.393E-01    0.166E+00
DAV:   4    -0.657642972114E+03    0.67049E-02   -0.55686E-02   900   0.277E-01    0.466E-01
DAV:   5    -0.657640009288E+03    0.29628E-02   -0.17120E-02   828   0.875E-02    0.442E-01
DAV:   6    -0.657638904480E+03    0.11048E-02   -0.12616E-02   744   0.555E-02    0.189E-01
DAV:   7    -0.657639017664E+03   -0.11318E-03   -0.52559E-03   720   0.541E-02    0.316E-01
DAV:   8    -0.657638652164E+03    0.36550E-03   -0.32669E-03   600   0.363E-02    0.143E-01
DAV:   9    -0.657638564847E+03    0.87317E-04   -0.10750E-03   456   0.282E-02    0.170E-01
DAV:  10    -0.657638433350E+03    0.13150E-03   -0.75697E-04   408   0.176E-02    0.442E-02
DAV:  11    -0.657638453869E+03   -0.20519E-04   -0.29265E-04   420   0.142E-02
  44 F= -.67304642E+03 E0= -.67298388E+03  d E =-.168584E-01
 trial-energy change:   -0.016858  1 .order   -0.016921   -0.023141   -0.010701
 step:   0.4801(harm=  0.4801)  dis= 0.02385  next Energy=  -673.051083 (dE=-0.215E-01)
 bond charge predicted
       N       E                     dE             d eps       ncg     rms          rms(c)
DAV:   1    -0.657641427943E+03   -0.29946E-02   -0.22143E+00   600   0.183E+00    0.466E-01
DAV:   2    -0.657651418503E+03   -0.99906E-02   -0.87985E-02   876   0.449E-01    0.692E-01
DAV:   3    -0.657653508404E+03   -0.20899E-02   -0.67627E-02   912   0.339E-01    0.129E+00
DAV:   4    -0.657649375477E+03    0.41329E-02   -0.35563E-02   876   0.233E-01    0.439E-01
DAV:   5    -0.657647244791E+03    0.21307E-02   -0.11305E-02   840   0.681E-02    0.373E-01
DAV:   6    -0.657646401623E+03    0.84317E-03   -0.83159E-03   720   0.540E-02    0.183E-01
DAV:   7    -0.657646474380E+03   -0.72756E-04   -0.20296E-03   576   0.435E-02    0.257E-01
DAV:   8    -0.657646245089E+03    0.22929E-03   -0.12894E-03   636   0.365E-02    0.134E-01
DAV:   9    -0.657646143361E+03    0.10173E-03   -0.19362E-04   444   0.252E-02    0.130E-01
DAV:  10    -0.657646091516E+03    0.51844E-04   -0.62676E-05   396   0.151E-02
  45 F= -.67305100E+03 E0= -.67298788E+03  d E =-.214414E-01
 curvature:  -1.47 expect dE=-0.943E-01 dE for cont linesearch -0.177E-05
 trial: gam= 0.68536 g(F)=  0.642E-01 g(S)=  0.000E+00 ort = 0.813E-03 (trialstep = 0.302E+00)
 search vector abs. value=  0.323E+00
 bond charge predicted
       N       E                     dE             d eps       ncg     rms          rms(c)
DAV:   1    -0.657658449978E+03   -0.12307E-01   -0.21775E+00   600   0.179E+00    0.623E-01
DAV:   2    -0.657666172132E+03   -0.77222E-02   -0.92187E-02   900   0.448E-01    0.546E-01
DAV:   3    -0.657679616836E+03   -0.13445E-01   -0.76867E-02   924   0.281E-01    0.203E+00
DAV:   4    -0.657669042091E+03    0.10575E-01   -0.63265E-02   900   0.272E-01    0.466E-01
DAV:   5    -0.657665182734E+03    0.38594E-02   -0.49326E-03   840   0.764E-02    0.354E-01
DAV:   6    -0.657664635034E+03    0.54770E-03   -0.16180E-03   624   0.404E-02    0.229E-01
DAV:   7    -0.657664573512E+03    0.61522E-04   -0.17660E-03   732   0.544E-02    0.234E-01
DAV:   8    -0.657664331399E+03    0.24211E-03   -0.11711E-03   576   0.358E-02    0.106E-01
DAV:   9    -0.657664298416E+03    0.32983E-04   -0.49796E-04   408   0.244E-02
  46 F= -.67306630E+03 E0= -.67300279E+03  d E =-.152984E-01
 trial-energy change:   -0.015298  1 .order   -0.015296   -0.019599   -0.010993
 step:   0.6889(harm=  0.6889)  dis= 0.02457  next Energy=  -673.073318 (dE=-0.223E-01)
 bond charge predicted
       N       E                     dE             d eps       ncg     rms          rms(c)
DAV:   1    -0.657665540605E+03   -0.12092E-02   -0.35488E+00   600   0.229E+00    0.805E-01
DAV:   2    -0.657679653700E+03   -0.14113E-01   -0.16464E-01   924   0.584E-01    0.780E-01
DAV:   3    -0.657704099251E+03   -0.24446E-01   -0.14405E-01   924   0.404E-01    0.300E+00
DAV:   4    -0.657684117866E+03    0.19981E-01   -0.10500E-01   912   0.358E-01    0.589E-01
DAV:   5    -0.657676513766E+03    0.76041E-02   -0.95970E-03   888   0.963E-02    0.429E-01
DAV:   6    -0.657675770383E+03    0.74338E-03   -0.38440E-03   684   0.507E-02    0.341E-01
DAV:   7    -0.657675260545E+03    0.50984E-03   -0.22943E-03   768   0.688E-02    0.231E-01
DAV:   8    -0.657675237295E+03    0.23250E-04   -0.92642E-04   684   0.421E-02
  47 F= -.67307356E+03 E0= -.67300890E+03  d E =-.225617E-01
 curvature:  -1.72 expect dE=-0.102E+00 dE for cont linesearch -0.546E-07
 trial: gam= 0.94065 g(F)=  0.592E-01 g(S)=  0.000E+00 ort =-0.101E-03 (trialstep = 0.356E+00)
 search vector abs. value=  0.345E+00
 bond charge predicted
       N       E                     dE             d eps       ncg     rms          rms(c)
DAV:   1    -0.657680913191E+03   -0.56526E-02   -0.32864E+00   600   0.219E+00    0.777E-01
DAV:   2    -0.657707925139E+03   -0.27012E-01   -0.21179E-01   888   0.697E-01    0.112E+00
DAV:   3    -0.657703171380E+03    0.47538E-02   -0.21280E-01   912   0.629E-01    0.193E+00
DAV:   4    -0.657698349258E+03    0.48221E-02   -0.84914E-02   912   0.363E-01    0.654E-01
DAV:   5    -0.657693983338E+03    0.43659E-02   -0.19521E-02   804   0.907E-02    0.625E-01
DAV:   6    -0.657690552207E+03    0.34311E-02   -0.16859E-02   816   0.106E-01    0.338E-01
DAV:   7    -0.657690207184E+03    0.34502E-03   -0.67736E-03   840   0.871E-02    0.393E-01
DAV:   8    -0.657690175886E+03    0.31298E-04   -0.37177E-03   804   0.534E-02    0.346E-01
DAV:   9    -0.657689592146E+03    0.58374E-03   -0.28735E-03   636   0.367E-02    0.220E-01
DAV:  10    -0.657689343337E+03    0.24881E-03   -0.18035E-03   468   0.226E-02    0.101E-01
DAV:  11    -0.657689311876E+03    0.31461E-04   -0.92289E-04   456   0.231E-02
  48 F= -.67308476E+03 E0= -.67302145E+03  d E =-.111929E-01
 trial-energy change:   -0.011193  1 .order   -0.011837   -0.021030   -0.002644
 step:   0.4240(harm=  0.4069)  dis= 0.01716  next Energy=  -673.085004 (dE=-0.114E-01)
 bond charge predicted
       N       E                     dE             d eps       ncg     rms          rms(c)
DAV:   1    -0.657689641642E+03   -0.29830E-03   -0.12126E-01   600   0.420E-01    0.150E-01
DAV:   2    -0.657691193595E+03   -0.15520E-02   -0.92354E-03   876   0.142E-01    0.363E-01
DAV:   3    -0.657690634497E+03    0.55910E-03   -0.90742E-03   876   0.125E-01    0.335E-01
DAV:   4    -0.657690128822E+03    0.50568E-03   -0.18130E-03   636   0.585E-02    0.125E-01
DAV:   5    -0.657690042275E+03    0.86547E-04   -0.20139E-04   408   0.170E-02
  49 F= -.67308494E+03 E0= -.67302255E+03  d E =-.113760E-01
 curvature:  -1.05 expect dE=-0.315E-01 dE for cont linesearch -0.766E-05
 trial: gam= 0.52217 g(F)=  0.299E-01 g(S)=  0.000E+00 ort =-0.158E-02 (trialstep = 0.369E+00)
 search vector abs. value=  0.122E+00
 bond charge predicted
       N       E                     dE             d eps       ncg     rms          rms(c)
DAV:   1    -0.657697384303E+03   -0.72555E-02   -0.13392E+00   600   0.143E+00    0.378E-01
DAV:   2    -0.657703091692E+03   -0.57074E-02   -0.50376E-02   876   0.334E-01    0.564E-01
DAV:   3    -0.657706459092E+03   -0.33674E-02   -0.44989E-02   924   0.267E-01    0.123E+00
DAV:   4    -0.657701860119E+03    0.45990E-02   -0.24264E-02   876   0.189E-01    0.367E-01
DAV:   5    -0.657700391299E+03    0.14688E-02   -0.25854E-03   780   0.493E-02    0.238E-01
DAV:   6    -0.657700080024E+03    0.31127E-03   -0.19957E-03   576   0.366E-02    0.170E-01
DAV:   7    -0.657700147622E+03   -0.67598E-04   -0.23124E-03   624   0.380E-02    0.196E-01
DAV:   8    -0.657700018652E+03    0.12897E-03   -0.14151E-03   516   0.309E-02    0.127E-01
DAV:   9    -0.657699943659E+03    0.74994E-04   -0.95787E-04   420   0.220E-02
  50 F= -.67309286E+03 E0= -.67302932E+03  d E =-.791715E-02
 trial-energy change:   -0.007917  1 .order   -0.008108   -0.010737   -0.005480
 step:   0.7544(harm=  0.7544)  dis= 0.01407  next Energy=  -673.095902 (dE=-0.110E-01)
 bond charge predicted
       N       E                     dE             d eps       ncg     rms          rms(c)
DAV:   1    -0.657701689772E+03   -0.16711E-02   -0.14562E+00   600   0.149E+00    0.387E-01
DAV:   2    -0.657708150093E+03   -0.64603E-02   -0.54312E-02   876   0.357E-01    0.554E-01
DAV:   3    -0.657712570759E+03   -0.44207E-02   -0.49814E-02   912   0.294E-01    0.140E+00
DAV:   4    -0.657706865712E+03    0.57050E-02   -0.24617E-02   876   0.197E-01    0.368E-01
DAV:   5    -0.657705329880E+03    0.15358E-02   -0.24204E-03   804   0.496E-02    0.277E-01
DAV:   6    -0.657704797341E+03    0.53254E-03   -0.14581E-03   696   0.555E-02    0.148E-01
DAV:   7    -0.657704847185E+03   -0.49844E-04   -0.11688E-03   636   0.331E-02    0.188E-01
DAV:   8    -0.657704747297E+03    0.99888E-04   -0.84369E-04   396   0.220E-02
  51 F= -.67309561E+03 E0= -.67303164E+03  d E =-.106734E-01
 curvature:  -1.59 expect dE=-0.659E-01 dE for cont linesearch -0.186E-06
 trial: gam= 1.33746 g(F)=  0.415E-01 g(S)=  0.000E+00 ort = 0.120E-03 (trialstep = 0.209E+00)
 search vector abs. value=  0.261E+00
 bond charge predicted
       N       E                     dE             d eps       ncg     rms          rms(c)
DAV:   1    -0.657711554849E+03   -0.67077E-02   -0.92238E-01   600   0.119E+00    0.302E-01
DAV:   2    -0.657715420224E+03   -0.38654E-02   -0.33511E-02   900   0.277E-01    0.456E-01
DAV:   3    -0.657718546388E+03   -0.31262E-02   -0.31561E-02   900   0.226E-01    0.109E+00
DAV:   4    -0.657714560869E+03    0.39855E-02   -0.15781E-02   840   0.155E-01    0.295E-01
DAV:   5    -0.657713684096E+03    0.87677E-03   -0.12395E-03   708   0.388E-02    0.200E-01
DAV:   6    -0.657713453947E+03    0.23015E-03   -0.91351E-04   552   0.356E-02    0.139E-01
DAV:   7    -0.657713472666E+03   -0.18719E-04   -0.14069E-03   588   0.277E-02    0.144E-01
DAV:   8    -0.657713399333E+03    0.73333E-04   -0.10446E-03   396   0.233E-02    0.101E-01
DAV:   9    -0.657713360381E+03    0.38952E-04   -0.81231E-04   408   0.185E-02
  52 F= -.67310222E+03 E0= -.67303900E+03  d E =-.661203E-02
 trial-energy change:   -0.006612  1 .order   -0.006812   -0.008732   -0.004893
 step:   0.4765(harm=  0.4765)  dis= 0.01337  next Energy=  -673.105543 (dE=-0.993E-02)
 bond charge predicted
       N       E                     dE             d eps       ncg     rms          rms(c)
DAV:   1    -0.657716130009E+03   -0.27307E-02   -0.14999E+00   600   0.152E+00    0.392E-01
DAV:   2    -0.657720135397E+03   -0.40054E-02   -0.49919E-02   900   0.328E-01    0.396E-01
DAV:   3    -0.657720311767E+03   -0.17637E-03   -0.14289E-02   852   0.704E-02    0.434E-01
[...]
DAV:   2    -0.658093313630E+03   -0.27450E-03   -0.62556E-04   504   0.325E-02    0.216E-01
DAV:   3    -0.658093136588E+03    0.17704E-03   -0.82170E-04   444   0.330E-02    0.991E-02
DAV:   4    -0.658093055470E+03    0.81118E-04   -0.39586E-04   396   0.240E-02
 309 F= -.67332213E+03 E0= -.67326087E+03  d E =-.960545E-04
 curvature:  -1.37 expect dE=-0.188E-02 dE for cont linesearch -0.258E-06
 trial: gam= 0.57986 g(F)=  0.137E-02 g(S)=  0.000E+00 ort = 0.614E-04 (trialstep = 0.216E+00)
 search vector abs. value=  0.818E-02
 bond charge predicted
       N       E                     dE             d eps       ncg     rms          rms(c)
DAV:   1    -0.658093040447E+03    0.96141E-04   -0.24650E-02   600   0.176E-01    0.756E-02
DAV:   2    -0.658093371692E+03   -0.33124E-03   -0.26541E-03   660   0.499E-02    0.225E-01
DAV:   3    -0.658093255186E+03    0.11651E-03   -0.31182E-03   564   0.445E-02    0.171E-01
DAV:   4    -0.658093151797E+03    0.10339E-03   -0.11216E-03   432   0.296E-02    0.110E-01
DAV:   5    -0.658093118614E+03    0.33183E-04   -0.25385E-04   348   0.107E-02
 310 F= -.67332238E+03 E0= -.67326193E+03  d E =-.249249E-03
 trial-energy change:   -0.000249  1 .order   -0.000242   -0.000304   -0.000179
 step:   0.5264(harm=  0.5264)  dis= 0.00277  next Energy=  -673.322501 (dE=-0.371E-03)
 bond charge predicted
       N       E                     dE             d eps       ncg     rms          rms(c)
DAV:   1    -0.658092920010E+03    0.23179E-03   -0.50894E-02   600   0.254E-01    0.102E-01
DAV:   2    -0.658093455447E+03   -0.53544E-03   -0.22901E-03   792   0.633E-02    0.305E-01
DAV:   3    -0.658093451523E+03    0.39234E-05   -0.26657E-03   624   0.500E-02    0.237E-01
DAV:   4    -0.658093134281E+03    0.31724E-03   -0.12020E-03   444   0.378E-02    0.147E-01
DAV:   5    -0.658093113864E+03    0.20417E-04   -0.14274E-04   396   0.138E-02
 311 F= -.67332264E+03 E0= -.67326209E+03  d E =-.512627E-03
 curvature:  -1.53 expect dE=-0.202E-02 dE for cont linesearch -0.593E-04
 ZBRENT: increasing intervall
 opt :   1.1480  next Energy=  -673.322826 (dE=-0.696E-03)
 bond charge predicted
       N       E                     dE             d eps       ncg     rms          rms(c)
DAV:   1    -0.658091886334E+03    0.12479E-02   -0.20314E-01   600   0.507E-01    0.165E-01
DAV:   2    -0.658092672268E+03   -0.78593E-03   -0.55100E-03   864   0.102E-01    0.304E-01
DAV:   3    -0.658093406939E+03   -0.73467E-03   -0.66030E-03   768   0.889E-02    0.367E-01
DAV:   4    -0.658092335822E+03    0.10711E-02   -0.21103E-03   600   0.537E-02    0.134E-01
DAV:   5    -0.658092258075E+03    0.77747E-04   -0.28084E-04   540   0.203E-02
 312 F= -.67332232E+03 E0= -.67326195E+03  d E =-.192513E-03
 curvature:  -4.72 expect dE=-0.193E-01 dE for cont linesearch -0.301E-03
 ZBRENT: bracketing found
 ZBRENT: interpolating
 opt :   0.7990  next Energy=  -673.322719 (dE=-0.589E-03)
 bond charge predicted
       N       E                     dE             d eps       ncg     rms          rms(c)
DAV:   1    -0.658092716941E+03   -0.38112E-03   -0.66843E-02   600   0.289E-01    0.151E-01
DAV:   2    -0.658095682797E+03   -0.29659E-02   -0.90473E-03   876   0.120E-01    0.621E-01
DAV:   3    -0.658093551293E+03    0.21315E-02   -0.10569E-02   804   0.107E-01    0.297E-01
DAV:   4    -0.658093303534E+03    0.24776E-03   -0.16816E-03   504   0.383E-02    0.276E-01
DAV:   5    -0.658092964160E+03    0.33937E-03   -0.48341E-04   408   0.229E-02    0.128E-01
DAV:   6    -0.658092808156E+03    0.15600E-03   -0.44931E-04   408   0.272E-02    0.110E-01
DAV:   7    -0.658092759151E+03    0.49006E-04   -0.28447E-04   336   0.129E-02
 313 F= -.67332252E+03 E0= -.67326109E+03  d E =-.392936E-03
 curvature:  -1.21 expect dE=-0.227E-02 dE for cont linesearch -0.466E-04
 ZBRENT: interpolating
 opt :   0.6629  next Energy=  -673.322561 (dE=-0.431E-03)
 bond charge predicted
       N       E                     dE             d eps       ncg     rms          rms(c)
DAV:   1    -0.658092854049E+03   -0.45893E-04   -0.97787E-03   588   0.111E-01    0.388E-02
DAV:   2    -0.658092921641E+03   -0.67592E-04   -0.77353E-04   528   0.246E-02
 314 F= -.67332257E+03 E0= -.67326215E+03  d E =-.438102E-03
 curvature:  -0.99 expect dE=-0.133E-02 dE for cont linesearch -0.295E-05
 trial: gam= 1.00442 g(F)=  0.134E-02 g(S)=  0.000E+00 ort =-0.156E-03 (trialstep = 0.269E+00)
 search vector abs. value=  0.928E-02
 bond charge predicted
       N       E                     dE             d eps       ncg     rms          rms(c)
DAV:   1    -0.658092803975E+03    0.50074E-04   -0.42269E-02   600   0.227E-01    0.693E-02
DAV:   2    -0.658093051406E+03   -0.24743E-03   -0.17919E-03   648   0.515E-02    0.172E-01
DAV:   3    -0.658092949860E+03    0.10155E-03   -0.11294E-03   432   0.242E-02    0.926E-02
DAV:   4    -0.658092922930E+03    0.26929E-04   -0.65206E-04   384   0.203E-02
 315 F= -.67332275E+03 E0= -.67326226E+03  d E =-.185523E-03
 trial-energy change:   -0.000186  1 .order   -0.000200   -0.000319   -0.000082
 step:   0.3621(harm=  0.3621)  dis= 0.00233  next Energy=  -673.322783 (dE=-0.215E-03)
 bond charge predicted
       N       E                     dE             d eps       ncg     rms          rms(c)
DAV:   1    -0.658092830588E+03    0.11927E-03   -0.53201E-03   576   0.794E-02    0.586E-02
DAV:   2    -0.658093067672E+03   -0.23708E-03   -0.19252E-03   492   0.268E-02    0.198E-01
DAV:   3    -0.658092911227E+03    0.15645E-03   -0.25423E-03   432   0.351E-02    0.111E-01
DAV:   4    -0.658092839444E+03    0.71782E-04   -0.85422E-04   372   0.176E-02
 316 F= -.67332273E+03 E0= -.67326212E+03  d E =-.165977E-03
 curvature:  -1.42 expect dE=-0.716E-03 dE for cont linesearch -0.530E-07
 trial: gam= 0.31839 g(F)=  0.505E-03 g(S)=  0.000E+00 ort =-0.186E-04 (trialstep = 0.288E+00)
 search vector abs. value=  0.143E-02
 bond charge predicted
       N       E                     dE             d eps       ncg     rms          rms(c)
DAV:   1    -0.658092855334E+03    0.55892E-04   -0.65093E-03   588   0.935E-02    0.475E-02
DAV:   2    -0.658093038088E+03   -0.18275E-03   -0.12272E-03   504   0.308E-02    0.178E-01
DAV:   3    -0.658092918636E+03    0.11945E-03   -0.13926E-03   432   0.315E-02    0.805E-02
DAV:   4    -0.658092877730E+03    0.40906E-04   -0.34780E-04   372   0.167E-02
 317 F= -.67332284E+03 E0= -.67326146E+03  d E =-.101352E-03
 trial-energy change:   -0.000101  1 .order   -0.000111   -0.000144   -0.000078
 step:   0.6270(harm=  0.6270)  dis= 0.00170  next Energy=  -673.322890 (dE=-0.157E-03)
 bond charge predicted
       N       E                     dE             d eps       ncg     rms          rms(c)
DAV:   1    -0.658092823494E+03    0.95142E-04   -0.86304E-03   600   0.110E-01    0.569E-02
DAV:   2    -0.658093385337E+03   -0.56184E-03   -0.20926E-03   708   0.567E-02    0.247E-01
DAV:   3    -0.658092841327E+03    0.54401E-03   -0.19462E-03   612   0.506E-02    0.695E-02
DAV:   4    -0.658092829750E+03    0.11576E-04   -0.16633E-04   348   0.114E-02
 318 F= -.67332286E+03 E0= -.67326238E+03  d E =-.127896E-03
 curvature:  -0.90 expect dE=-0.400E-03 dE for cont linesearch -0.482E-08
 trial: gam= 0.95530 g(F)=  0.445E-03 g(S)=  0.000E+00 ort =-0.277E-05 (trialstep = 0.292E+00)
 search vector abs. value=  0.175E-02
 bond charge predicted
       N       E                     dE             d eps       ncg     rms          rms(c)
DAV:   1    -0.658092863587E+03   -0.22260E-04   -0.84042E-03   600   0.111E-01    0.603E-02
DAV:   2    -0.658093010144E+03   -0.14656E-03   -0.16993E-03   552   0.286E-02    0.166E-01
DAV:   3    -0.658092954157E+03    0.55988E-04   -0.23292E-03   444   0.257E-02    0.102E-01
DAV:   4    -0.658092909518E+03    0.44639E-04   -0.11716E-03   372   0.215E-02    0.789E-02
DAV:   5    -0.658092885968E+03    0.23550E-04   -0.63714E-04   324   0.822E-03
 319 F= -.67332297E+03 E0= -.67326189E+03  d E =-.109598E-03
 trial-energy change:   -0.000110  1 .order   -0.000104   -0.000129   -0.000079
 step:   0.7565(harm=  0.7565)  dis= 0.00197  next Energy=  -673.323029 (dE=-0.167E-03)
 bond charge predicted
       N       E                     dE             d eps       ncg     rms          rms(c)
DAV:   1    -0.658092754882E+03    0.15464E-03   -0.20728E-02   600   0.176E-01    0.520E-02
DAV:   2    -0.658092817699E+03   -0.62816E-04   -0.72553E-04   720   0.383E-02
 320 F= -.67332299E+03 E0= -.67326160E+03  d E =-.126332E-03
 curvature:  -1.50 expect dE=-0.119E-02 dE for cont linesearch -0.180E-04
 ZBRENT: interpolating
 opt :   0.5946  next Energy=  -673.323000 (dE=-0.138E-03)
 bond charge predicted
       N       E                     dE             d eps       ncg     rms          rms(c)
DAV:   1    -0.658092906444E+03   -0.15156E-03   -0.32755E-03   600   0.681E-02    0.109E-01
DAV:   2    -0.658099255377E+03   -0.63489E-02   -0.14395E-02   804   0.121E-01    0.128E+00
DAV:   3    -0.658093810842E+03    0.54445E-02   -0.13048E-02   780   0.116E-01    0.210E-01
DAV:   4    -0.658093088975E+03    0.72187E-03   -0.10940E-03   528   0.327E-02    0.174E-01
DAV:   5    -0.658092908470E+03    0.18050E-03   -0.80865E-04   396   0.195E-02    0.845E-02
DAV:   6    -0.658092900750E+03    0.77203E-05   -0.35984E-04   336   0.117E-02
 321 F= -.67332304E+03 E0= -.67326213E+03  d E =-.179798E-03
 curvature:  -0.97 expect dE=-0.605E-03 dE for cont linesearch -0.538E-08
 trial: gam= 1.27614 g(F)=  0.620E-03 g(S)=  0.000E+00 ort = 0.311E-05 (trialstep = 0.177E+00)
 search vector abs. value=  0.347E-02
 bond charge predicted
       N       E                     dE             d eps       ncg     rms          rms(c)
DAV:   1    -0.658092866806E+03    0.41664E-04   -0.68266E-03   588   0.959E-02    0.255E-02
DAV:   2    -0.658092902523E+03   -0.35717E-04   -0.24524E-04   480   0.213E-02
 322 F= -.67332308E+03 E0= -.67326239E+03  d E =-.367706E-04
 trial-energy change:   -0.000037  1 .order   -0.000086   -0.000111   -0.000062
 step:   0.4066(harm=  0.4066)  dis= 0.00126  next Energy=  -673.323169 (dE=-0.127E-03)
 bond charge predicted
       N       E                     dE             d eps       ncg     rms          rms(c)
DAV:   1    -0.658092862653E+03    0.41532E-05   -0.11462E-02   600   0.124E-01    0.502E-02
DAV:   2    -0.658092898074E+03   -0.35422E-04   -0.41531E-04   528   0.310E-02
 323 F= -.67332312E+03 E0= -.67326305E+03  d E =-.776827E-04
 curvature:  -1.13 expect dE=-0.748E-03 dE for cont linesearch -0.120E-06
 trial: gam= 0.59131 g(F)=  0.661E-03 g(S)=  0.000E+00 ort =-0.192E-04 (trialstep = 0.223E+00)
 search vector abs. value=  0.185E-02
 bond charge predicted
       N       E                     dE             d eps       ncg     rms          rms(c)
DAV:   1    -0.658093076549E+03   -0.21390E-03   -0.76127E-03   624   0.103E-01    0.146E-01
DAV:   2    -0.658099143609E+03   -0.60671E-02   -0.23240E-02   840   0.167E-01    0.700E-01
DAV:   3    -0.658093393698E+03    0.57499E-02   -0.15956E-02   804   0.142E-01    0.206E-01
DAV:   4    -0.658093250460E+03    0.14324E-03   -0.63162E-04   492   0.265E-02    0.182E-01
DAV:   5    -0.658093067892E+03    0.18257E-03   -0.48715E-04   348   0.247E-02    0.112E-01
DAV:   6    -0.658093013467E+03    0.54425E-04   -0.27470E-04   348   0.183E-02
 324 F= -.67332325E+03 E0= -.67326288E+03  d E =-.127747E-03
 trial-energy change:   -0.000128  1 .order   -0.000106   -0.000145   -0.000067
 step:   0.4171(harm=  0.4171)  dis= 0.00102  next Energy=  -673.323255 (dE=-0.135E-03)
 bond charge predicted
       N       E                     dE             d eps       ncg     rms          rms(c)
DAV:   1    -0.658092976121E+03    0.91771E-04   -0.52784E-03   588   0.851E-02    0.532E-02
DAV:   2    -0.658093158321E+03   -0.18220E-03   -0.67359E-04   516   0.261E-02    0.174E-01
DAV:   3    -0.658093050013E+03    0.10831E-03   -0.94684E-04   432   0.293E-02    0.893E-02
DAV:   4    -0.658092984446E+03    0.65567E-04   -0.34846E-04   372   0.169E-02
 325 F= -.67332323E+03 E0= -.67326246E+03  d E =-.109526E-03
 curvature:  -0.60 expect dE=-0.270E-03 dE for cont linesearch -0.193E-05
 trial: gam= 0.82734 g(F)=  0.454E-03 g(S)=  0.000E+00 ort =-0.776E-04 (trialstep = 0.262E+00)
 search vector abs. value=  0.159E-02
 bond charge predicted
       N       E                     dE             d eps       ncg     rms          rms(c)
DAV:   1    -0.658092983444E+03    0.66569E-04   -0.80093E-03   600   0.108E-01    0.397E-02
DAV:   2    -0.658093186681E+03   -0.20324E-03   -0.81659E-04   612   0.406E-02    0.163E-01
DAV:   3    -0.658093001398E+03    0.18528E-03   -0.65102E-04   468   0.286E-02    0.434E-02
DAV:   4    -0.658093009817E+03   -0.84188E-05   -0.70842E-05   324   0.948E-03
 326 F= -.67332330E+03 E0= -.67326274E+03  d E =-.721668E-04
 trial-energy change:   -0.000072  1 .order   -0.000084   -0.000102   -0.000066
 step:   0.7442(harm=  0.7442)  dis= 0.00150  next Energy=  -673.323374 (dE=-0.145E-03)
 bond charge predicted
       N       E                     dE             d eps       ncg     rms          rms(c)
DAV:   1    -0.658092901633E+03    0.99765E-04   -0.26593E-02   600   0.198E-01    0.563E-02
DAV:   2    -0.658092951280E+03   -0.49647E-04   -0.63177E-04   708   0.399E-02
 327 F= -.67332333E+03 E0= -.67326247E+03  d E =-.996662E-04
 curvature:  -1.52 expect dE=-0.892E-03 dE for cont linesearch -0.575E-05
 trial: gam= 0.85558 g(F)=  0.586E-03 g(S)=  0.000E+00 ort =-0.776E-04 (trialstep = 0.353E+00)
 search vector abs. value=  0.162E-02
 bond charge predicted
       N       E                     dE             d eps       ncg     rms          rms(c)
DAV:   1    -0.658092939584E+03   -0.37951E-04   -0.13416E-02   600   0.130E-01    0.465E-02
DAV:   2    -0.658093025156E+03   -0.85572E-04   -0.58247E-04   528   0.299E-02
 328 F= -.67332347E+03 E0= -.67326157E+03  d E =-.141577E-03
 trial-energy change:   -0.000142  1 .order   -0.000101   -0.000183   -0.000019
 step:   0.3938(harm=  0.3938)  dis= 0.00089  next Energy=  -673.323431 (dE=-0.102E-03)
 bond charge predicted
       N       E                     dE             d eps       ncg     rms          rms(c)
DAV:   1    -0.658092984604E+03   -0.45020E-04   -0.65394E-04   564   0.315E-02    0.809E-02
DAV:   2    -0.658096271255E+03   -0.32867E-02   -0.70684E-03   780   0.907E-02    0.865E-01
DAV:   3    -0.658093328102E+03    0.29432E-02   -0.61730E-03   708   0.849E-02    0.141E-01
DAV:   4    -0.658093030562E+03    0.29754E-03   -0.34443E-04   420   0.233E-02    0.970E-02
DAV:   5    -0.658092970835E+03    0.59727E-04   -0.18822E-04   348   0.148E-02
 329 F= -.67332342E+03 E0= -.67326290E+03  d E =-.951820E-04
 curvature:  -0.61 expect dE=-0.314E-03 dE for cont linesearch -0.143E-05
 trial: gam= 0.91660 g(F)=  0.512E-03 g(S)=  0.000E+00 ort =-0.614E-04 (trialstep = 0.332E+00)
 search vector abs. value=  0.176E-02
 bond charge predicted
       N       E                     dE             d eps       ncg     rms          rms(c)
DAV:   1    -0.658092992269E+03    0.38293E-04   -0.99888E-03   600   0.115E-01    0.515E-02
DAV:   2    -0.658093219689E+03   -0.22742E-03   -0.88451E-04   540   0.368E-02    0.190E-01
DAV:   3    -0.658093108020E+03    0.11167E-03   -0.11063E-03   444   0.335E-02    0.122E-01
DAV:   4    -0.658093051307E+03    0.56713E-04   -0.34954E-04   348   0.199E-02
 330 F= -.67332355E+03 E0= -.67326362E+03  d E =-.125949E-03
 trial-energy change:   -0.000126  1 .order   -0.000122   -0.000151   -0.000092
 step:   0.8541(harm=  0.8541)  dis= 0.00239  next Energy=  -673.323618 (dE=-0.194E-03)
 bond charge predicted
       N       E                     dE             d eps       ncg     rms          rms(c)
DAV:   1    -0.658092923579E+03    0.18444E-03   -0.24586E-02   600   0.181E-01    0.586E-02
DAV:   2    -0.658093006513E+03   -0.82935E-04   -0.77682E-04   672   0.401E-02
 331 F= -.67332358E+03 E0= -.67326209E+03  d E =-.152929E-03
 curvature:  -1.65 expect dE=-0.967E-03 dE for cont linesearch -0.130E-05
 trial: gam= 0.94195 g(F)=  0.586E-03 g(S)=  0.000E+00 ort =-0.373E-04 (trialstep = 0.370E+00)
 search vector abs. value=  0.208E-02
 bond charge predicted
       N       E                     dE             d eps       ncg     rms          rms(c)
DAV:   1    -0.658092999117E+03   -0.75539E-04   -0.20073E-02   600   0.161E-01    0.105E-01
DAV:   2    -0.658096925291E+03   -0.39262E-02   -0.91823E-03   816   0.976E-02    0.954E-01
DAV:   3    -0.658093525748E+03    0.33995E-02   -0.93532E-03   780   0.101E-01    0.194E-01
DAV:   4    -0.658093147010E+03    0.37874E-03   -0.71303E-04   480   0.259E-02    0.152E-01
DAV:   5    -0.658093028009E+03    0.11900E-03   -0.62737E-04   372   0.178E-02    0.876E-02
DAV:   6    -0.658093020094E+03    0.79155E-05   -0.37686E-04   324   0.121E-02
 332 F= -.67332366E+03 E0= -.67326288E+03  d E =-.842890E-04
 trial-energy change:   -0.000084  1 .order   -0.000090   -0.000204    0.000023
 step:   0.3324(harm=  0.3324)  dis= 0.00092  next Energy=  -673.323668 (dE=-0.916E-04)
 bond charge predicted
       N       E                     dE             d eps       ncg     rms          rms(c)
DAV:   1    -0.658092991762E+03    0.36247E-04   -0.54100E-04   468   0.227E-02    0.387E-02
DAV:   2    -0.658093111054E+03   -0.11929E-03   -0.86461E-04   348   0.168E-02    0.151E-01
DAV:   3    -0.658093008128E+03    0.10293E-03   -0.10632E-03   372   0.194E-02    0.533E-02
DAV:   4    -0.658093002851E+03    0.52773E-05   -0.42896E-04   348   0.950E-03
 333 F= -.67332364E+03 E0= -.67326271E+03  d E =-.598872E-04
 curvature:  -0.63 expect dE=-0.268E-03 dE for cont linesearch -0.677E-06
 trial: gam= 0.59035 g(F)=  0.427E-03 g(S)=  0.000E+00 ort =-0.474E-04 (trialstep = 0.362E+00)
 search vector abs. value=  0.110E-02
 bond charge predicted
       N       E                     dE             d eps       ncg     rms          rms(c)
DAV:   1    -0.658093036216E+03   -0.28088E-04   -0.10929E-02   600   0.118E-01    0.398E-02
DAV:   2    -0.658093099561E+03   -0.63345E-04   -0.42429E-04   528   0.273E-02
 334 F= -.67332375E+03 E0= -.67326395E+03  d E =-.109764E-03
 trial-energy change:   -0.000110  1 .order   -0.000092   -0.000145   -0.000039
 step:   0.4977(harm=  0.4977)  dis= 0.00094  next Energy=  -673.323736 (dE=-0.993E-04)
 bond charge predicted
       N       E                     dE             d eps       ncg     rms          rms(c)
DAV:   1    -0.658093143294E+03   -0.10708E-03   -0.19787E-03   600   0.520E-02    0.112E-01
DAV:   2    -0.658096907981E+03   -0.37647E-02   -0.12669E-02   816   0.125E-01    0.595E-01
DAV:   3    -0.658093342918E+03    0.35651E-02   -0.95764E-03   804   0.108E-01    0.148E-01
DAV:   4    -0.658093245513E+03    0.97405E-04   -0.40495E-04   420   0.208E-02
 335 F= -.67332390E+03 E0= -.67326471E+03  d E =-.260619E-03
 curvature:  -0.68 expect dE=-0.425E-03 dE for cont linesearch -0.231E-06
 trial: gam= 1.20286 g(F)=  0.622E-03 g(S)=  0.000E+00 ort =-0.193E-04 (trialstep = 0.197E+00)
 search vector abs. value=  0.216E-02
 bond charge predicted
       N       E                     dE             d eps       ncg     rms          rms(c)
DAV:   1    -0.658093220187E+03    0.12273E-03   -0.66942E-03   588   0.944E-02    0.837E-02
DAV:   2    -0.658094142012E+03   -0.92183E-03   -0.16606E-03   612   0.500E-02    0.388E-01
DAV:   3    -0.658093492124E+03    0.64989E-03   -0.27936E-03   612   0.581E-02    0.191E-01
DAV:   4    -0.658093368796E+03    0.12333E-03   -0.61192E-04   408   0.246E-02    0.165E-01
DAV:   5    -0.658093228772E+03    0.14002E-03   -0.99319E-05   348   0.116E-02    0.661E-02
DAV:   6    -0.658093202564E+03    0.26208E-04   -0.67952E-05   360   0.125E-02
 336 F= -.67332382E+03 E0= -.67326329E+03  d E =0.797710E-04
 trial-energy change:    0.000080  1 .order   -0.000078   -0.000118   -0.000038
 step:   0.2893(harm=  0.2893)  dis= 0.00077  next Energy=  -673.323984 (dE=-0.866E-04)
 reached required accuracy - stopping structural energy minimisation
