basalPlane                              
           1
     9.570946    0.000000    0.000000
    -6.380628   11.051579    0.000000
     0.000000    0.000000   34.880263
   C    Cr   H    Mo   S 
  10   1  10  24  48
Direct configuration=     1
   0.91175301  0.38893322  0.93195918
   0.74394594  0.31647678  0.92416953
   0.93964412  0.49847403  0.94972603
   0.78680934  0.49411006  0.95319539
   0.66506917  0.38039083  0.93712686
   0.83546821  0.47083136  0.83462006
   0.77340573  0.60696234  0.86338268
   0.70409340  0.48910562  0.84605611
   0.94458367  0.66056253  0.86248392
   0.98339679  0.57751970  0.84500223
   0.83252180  0.48895978  0.89472255
   0.53634966  0.34805784  0.93565064
   0.57630177  0.42673877  0.84143425
   0.03063086  0.74744999  0.87498378
   0.70704019  0.64754586  0.87560213
   0.82483199  0.39191338  0.81998702
   0.68639855  0.22946509  0.90959980
   0.00406212  0.36700045  0.92396044
   0.05630511  0.57244136  0.95875896
   0.76635461  0.56221769  0.96659233
   0.10441822  0.59154377  0.84118868
   0.55555566  0.08333325  0.25000928
   0.55555566  0.33333325  0.25000928
   0.44444432  0.41666674  0.74999076
   0.55555566  0.58333325  0.25000928
   0.44444432  0.66666674  0.74999076
   0.55555566  0.83333325  0.25000928
   0.44444432  0.91666674  0.74999076
   0.88888899  0.33333325  0.25000928
   0.77777765  0.16666674  0.74999076
   0.77777765  0.41666674  0.74999076
   0.88888899  0.58333325  0.25000928
   0.77777765  0.66666674  0.74999076
   0.88888899  0.83333325  0.25000928
   0.77777765  0.91666674  0.74999076
   0.11111099  0.91666674  0.74999076
   0.88888899  0.08333325  0.25000928
   0.22222233  0.83333325  0.25000928
   0.44444432  0.16666674  0.74999076
   0.22222233  0.58333325  0.25000928
   0.11111099  0.41666674  0.74999076
   0.22222233  0.33333325  0.25000928
   0.22222233  0.08333325  0.25000928
   0.11111099  0.16666674  0.74999076
   0.11111099  0.66666674  0.74999076
   0.77777765  0.16666674  0.29487388
   0.88888899  0.08333325  0.79485533
   0.77777765  0.16666674  0.20514467
   0.88888899  0.08333325  0.70512613
   0.22222233  0.08333325  0.70512613
   0.11111099  0.16666674  0.20514467
   0.77777765  0.41666674  0.29487388
   0.88888899  0.33333325  0.79485533
   0.11111099  0.66666674  0.20514467
   0.55555566  0.83333325  0.70512613
   0.88888899  0.33333325  0.70512613
   0.22222233  0.08333325  0.79485533
   0.11111099  0.16666674  0.29487388
   0.77777765  0.66666674  0.29487388
   0.88888899  0.58333325  0.79485533
   0.77777765  0.66666674  0.20514467
   0.88888899  0.58333325  0.70512613
   0.77777765  0.91666674  0.29487388
   0.88888899  0.83333325  0.79485533
   0.77777765  0.41666674  0.20514467
   0.44444432  0.91666674  0.20514467
   0.44444432  0.91666674  0.29487388
   0.22222233  0.58333325  0.70512613
   0.22222233  0.58333325  0.79485533
   0.11111099  0.91666674  0.29487388
   0.22222233  0.83333325  0.79485533
   0.11111099  0.91666674  0.20514467
   0.22222233  0.83333325  0.70512613
   0.11111099  0.66666674  0.29487388
   0.77777765  0.91666674  0.20514467
   0.44444432  0.16666674  0.29487388
   0.55555566  0.08333325  0.79485533
   0.44444432  0.16666674  0.20514467
   0.55555566  0.08333325  0.70512613
   0.44444432  0.41666674  0.29487388
   0.55555566  0.33333325  0.79485533
   0.44444432  0.41666674  0.20514467
   0.55555566  0.33333325  0.70512613
   0.22222233  0.33333325  0.70512613
   0.11111099  0.41666674  0.20514467
   0.44444432  0.66666674  0.29487388
   0.55555566  0.58333325  0.79485533
   0.44444432  0.66666674  0.20514467
   0.55555566  0.58333325  0.70512613
   0.22222233  0.33333325  0.79485533
   0.11111099  0.41666674  0.29487388
   0.55555566  0.83333325  0.79485533
   0.88888899  0.83333325  0.70512613
Direct configuration=     2
   0.91220469  0.38929465  0.93172855
   0.74355464  0.31663129  0.92401101
   0.93861372  0.49841869  0.94975740
   0.78638897  0.49274306  0.95333549
   0.66607227  0.38093924  0.93741338
   0.82549360  0.46634615  0.84083858
   0.77427890  0.60749366  0.86435372
   0.70060414  0.49115599  0.85031389
   0.94345755  0.66207882  0.86494917
   0.99348117  0.58021497  0.84993444
   0.83420832  0.49246456  0.89294650
   0.53647785  0.34821939  0.93559584
   0.57876908  0.42897224  0.84236487
   0.03085859  0.74749275  0.87464332
   0.70718391  0.64769250  0.87542103
   0.81968964  0.39568780  0.82341753
   0.68637927  0.22951072  0.90958355
   0.00399096  0.36702626  0.92397004
   0.05618821  0.57253720  0.95872398
   0.76632883  0.56233512  0.96651772
   0.10300697  0.59109388  0.84158161
   0.55614436  0.08410188  0.25000395
   0.55614451  0.33410145  0.25000373
   0.44431897  0.41606187  0.75017705
   0.55614394  0.58410112  0.25000390
   0.44413135  0.66619470  0.74967418
   0.55614425  0.83410220  0.25000392
   0.44395310  0.91576592  0.74999038
   0.88948693  0.33410263  0.25000402
   0.77768097  0.16493401  0.74976078
   0.77736686  0.41698628  0.74784843
   0.88948666  0.58410180  0.25000410
   0.77795183  0.66660016  0.74896105
   0.88948708  0.83410291  0.25000430
   0.77716873  0.91637734  0.74991885
   0.11002419  0.91566245  0.74997494
   0.88948665  0.08410282  0.25000415
   0.22278691  0.83410974  0.25000366
   0.44395145  0.16566918  0.74967740
   0.22278605  0.58410887  0.25000376
   0.11082861  0.41584337  0.75005995
   0.22278558  0.33410886  0.25000379
   0.22278710  0.08411003  0.25000380
   0.11027697  0.16579485  0.75006697
   0.10902760  0.66574145  0.74981813
   0.77747901  0.16627993  0.29461510
   0.88930512  0.08380894  0.79466535
   0.77747834  0.16627884  0.20540767
   0.88908856  0.08371378  0.70539616
   0.22246518  0.08370711  0.70541570
   0.11081648  0.16627964  0.20540734
   0.77747864  0.41628028  0.29461508
   0.89726296  0.32070170  0.78967814
   0.11081579  0.66627889  0.20540789
   0.55582597  0.83361304  0.70542341
   0.88932067  0.33369067  0.70537091
   0.22253673  0.08377952  0.79460636
   0.11081719  0.16628056  0.29461539
   0.77747896  0.66628047  0.29461501
   0.89061771  0.59054427  0.78650078
   0.77747823  0.66627855  0.20540779
   0.88917040  0.58372516  0.70528143
   0.77747921  0.91628066  0.29461527
   0.88939201  0.83415678  0.79475945
   0.77747773  0.41627851  0.20540775
   0.44414951  0.91627901  0.20540729
   0.44415021  0.91628062  0.29461536
   0.22239403  0.58354103  0.70535961
   0.22800538  0.58419386  0.79333189
   0.11081741  0.91628135  0.29461530
   0.22281813  0.83391516  0.79463199
   0.11081609  0.91628011  0.20540741
   0.22259607  0.83373866  0.70534114
   0.11081764  0.66628089  0.29461499
   0.77747830  0.91627919  0.20540750
   0.44414944  0.16628021  0.29461506
   0.55576798  0.08377024  0.79467942
   0.44414885  0.16627941  0.20540766
   0.55564432  0.08377330  0.70539645
   0.44414978  0.41628049  0.29461525
   0.54929951  0.32619406  0.79182773
   0.44414885  0.41627846  0.20540755
   0.55560408  0.33358465  0.70535754
   0.22249642  0.33376959  0.70534999
   0.11081623  0.41627960  0.20540771
   0.44414972  0.66628048  0.29461505
   0.55378658  0.58438756  0.79421038
   0.44414838  0.66627878  0.20540786
   0.55573408  0.58357477  0.70536969
   0.22232198  0.33357153  0.79456327
   0.11081776  0.41628110  0.29461525
   0.55594320  0.83371621  0.79466291
   0.88884673  0.83357762  0.70537320
Direct configuration=     3
   0.91210089  0.38921159  0.93178155
   0.74364456  0.31659578  0.92404744
   0.93885052  0.49843141  0.94975019
   0.78648558  0.49305721  0.95330330
   0.66584175  0.38081321  0.93734753
   0.82778587  0.46737690  0.83940950
   0.77407824  0.60737156  0.86413057
   0.70140600  0.49068479  0.84933541
   0.94371634  0.66173036  0.86438263
   0.99116368  0.57959557  0.84880097
   0.83382074  0.49165913  0.89335465
   0.53644839  0.34818226  0.93560843
   0.57820207  0.42845896  0.84215101
   0.03080625  0.74748292  0.87472156
   0.70715088  0.64765880  0.87546265
   0.82087140  0.39482040  0.82262917
   0.68638370  0.22950023  0.90958728
   0.00400731  0.36702033  0.92396784
   0.05621507  0.57251518  0.95873202
   0.76633476  0.56230814  0.96653487
   0.10333129  0.59119727  0.84149131
   0.55600907  0.08392524  0.25000517
   0.55600919  0.33392491  0.25000501
   0.44434778  0.41620088  0.75013423
   0.55600875  0.58392465  0.25000514
   0.44420327  0.66630318  0.74974693
   0.55600898  0.83392549  0.25000515
   0.44406598  0.91597294  0.74999046
   0.88934952  0.33392582  0.25000523
   0.77770319  0.16533221  0.74981363
   0.77746127  0.41691285  0.74834076
   0.88934931  0.58392518  0.25000529
   0.77791180  0.66661546  0.74919769
   0.88934963  0.83392603  0.25000544
   0.77730867  0.91644385  0.74993538
   0.11027395  0.91589324  0.74997858
   0.88934930  0.08392596  0.25000533
   0.22265716  0.83393129  0.25000495
   0.44406472  0.16589843  0.74974941
   0.22265650  0.58393062  0.25000503
   0.11089350  0.41603259  0.75004405
   0.22265614  0.33393062  0.25000505
   0.22265731  0.08393152  0.25000506
   0.11046863  0.16599522  0.75004946
   0.10950638  0.66595409  0.74985780
   0.77754764  0.16636882  0.29467457
   0.88920949  0.08369962  0.79470901
   0.77754713  0.16636798  0.20534723
   0.88904270  0.08362633  0.70533411
   0.22240937  0.08362119  0.70534916
   0.11088416  0.16636860  0.20534697
   0.77754736  0.41636910  0.29467456
   0.89533854  0.32360455  0.79086791
   0.11088363  0.66636802  0.20534740
   0.55576385  0.83354874  0.70535509
   0.88922146  0.33360853  0.70531466
   0.22246447  0.08367697  0.79466357
   0.11088470  0.16636931  0.29467479
   0.77754760  0.66636924  0.29467450
   0.89022044  0.58888711  0.78842074
   0.77754704  0.66636776  0.20534733
   0.88910573  0.58363510  0.70524574
   0.77754780  0.91636938  0.29467470
   0.88927641  0.83396752  0.79478148
   0.77754666  0.41636773  0.20534729
   0.44421726  0.91636812  0.20534694
   0.44421780  0.91636935  0.29467477
   0.22235457  0.58349328  0.70530595
   0.22667637  0.58399608  0.79368199
   0.11088488  0.91636992  0.29467473
   0.22268121  0.83378143  0.79468331
   0.11088386  0.91636896  0.20534703
   0.22251018  0.83364549  0.70529173
   0.11088505  0.66636956  0.29467448
   0.77754709  0.91636826  0.20534710
   0.44421720  0.16636904  0.29467454
   0.55571919  0.08366981  0.79471985
   0.44421675  0.16636842  0.20534722
   0.55562395  0.08367217  0.70533433
   0.44421747  0.41636925  0.29467468
   0.55073724  0.32783472  0.79252350
   0.44421675  0.41636769  0.20534714
   0.55559295  0.33352688  0.70530436
   0.22243343  0.33366931  0.70529855
   0.11088397  0.41636857  0.20534726
   0.44421743  0.66636924  0.29467453
   0.55419313  0.58414527  0.79435860
   0.44421639  0.66636794  0.20534738
   0.55569308  0.58351927  0.70531372
   0.22229908  0.33351677  0.79463039
   0.11088515  0.41636973  0.29467468
   0.55585414  0.83362820  0.79470713
   0.88885644  0.83352146  0.70531642
Direct configuration=     4
   0.91130907  0.39002676  0.93156509
   0.74502421  0.31779121  0.92371008
   0.93946502  0.49809974  0.94978407
   0.78652138  0.49393584  0.95388948
   0.66426483  0.38023765  0.93725459
   0.83338629  0.46675600  0.84328537
   0.77492172  0.61450305  0.86544381
   0.69764062  0.48888438  0.85090877
   0.94560176  0.65949503  0.86482897
   0.97421260  0.57400727  0.85317238
   0.83718393  0.49148166  0.89613057
   0.53766822  0.34873519  0.93562208
   0.57672981  0.42958707  0.84323706
   0.03419990  0.75252311  0.87529667
   0.70681203  0.64895676  0.87563601
   0.81701580  0.39531012  0.82493981
   0.68614209  0.22946039  0.90955160
   0.00439284  0.36707816  0.92394115
   0.05533018  0.57228258  0.95866532
   0.76647601  0.56150736  0.96631360
   0.11088585  0.59222398  0.84175483
   0.55614248  0.08410268  0.25000765
   0.55614269  0.33410241  0.25000754
   0.44333066  0.41584801  0.74974542
   0.55614206  0.58410172  0.25000768
   0.44537574  0.66723996  0.74896073
   0.55614230  0.83410341  0.25000765
   0.44373010  0.91574688  0.74992708
   0.88948358  0.33410991  0.25000770
   0.77474442  0.15960827  0.74814155
   0.77707987  0.41438104  0.74731371
   0.88948314  0.58410904  0.25000773
   0.77521803  0.66905871  0.74762506
   0.88948406  0.83411041  0.25000790
   0.77734529  0.91634736  0.74994985
   0.11009316  0.91567796  0.74995490
   0.88948363  0.08411051  0.25000777
   0.22279018  0.83411252  0.25000763
   0.44176441  0.16309987  0.74890832
   0.22278863  0.58411077  0.25000793
   0.11606768  0.41655636  0.74859138
   0.22278847  0.33411110  0.25000799
   0.22278988  0.08411236  0.25000789
   0.11032741  0.16576392  0.74993170
   0.11458799  0.66816486  0.74830161
   0.77747687  0.16627542  0.29450120
   0.88940274  0.08339850  0.79469736
   0.77747734  0.16627481  0.20551692
   0.88946183  0.08351042  0.70531886
   0.22201414  0.08356539  0.70547818
   0.11081297  0.16627964  0.20551568
   0.77747640  0.41627530  0.29450120
   0.89729752  0.32119510  0.79011085
   0.11081185  0.66627807  0.20551610
   0.55591843  0.83378626  0.70544421
   0.89002963  0.33343490  0.70485882
   0.22246690  0.08369912  0.79448814
   0.11081335  0.16628024  0.29450240
   0.77747676  0.66627546  0.29450101
   0.88883271  0.59064943  0.78528833
   0.77747689  0.66627348  0.20551726
   0.88972638  0.58449619  0.70409105
   0.77747690  0.91627581  0.29450126
   0.88916296  0.83432100  0.79464791
   0.77747656  0.41627360  0.20551686
   0.44414563  0.91627555  0.20551709
   0.44414611  0.91627675  0.29450098
   0.22235228  0.58360860  0.70531668
   0.22952259  0.58404442  0.79288948
   0.11081380  0.91628091  0.29450225
   0.22279701  0.83382773  0.79459519
   0.11081295  0.91627986  0.20551593
   0.22271588  0.83394153  0.70541097
   0.11081366  0.66628048  0.29450202
   0.77747723  0.91627487  0.20551712
   0.44414592  0.16627661  0.29450088
   0.55586670  0.08380655  0.79461993
   0.44414553  0.16627586  0.20551707
   0.55539893  0.08345574  0.70535068
   0.44414579  0.41627643  0.29450089
   0.54894805  0.32478821  0.79099406
   0.44414465  0.41627424  0.20551707
   0.55457847  0.33350418  0.70494758
   0.22269250  0.33368975  0.70546182
   0.11081233  0.41627877  0.20551579
   0.44414592  0.66627659  0.29450075
   0.55339124  0.58490119  0.79389533
   0.44414426  0.66627449  0.20551753
   0.55498606  0.58318049  0.70525957
   0.22270819  0.33359525  0.79461906
   0.11081366  0.41628049  0.29450231
   0.55601570  0.83370355  0.79458686
   0.88910332  0.83427947  0.70523904
Direct configuration=     5
   0.91172575  0.38959779  0.93167900
   0.74429819  0.31716213  0.92388761
   0.93914164  0.49827428  0.94976624
   0.78650254  0.49347348  0.95358101
   0.66509466  0.38054053  0.93730350
   0.83043915  0.46708274  0.84124575
   0.77447785  0.61075021  0.86475274
   0.69962210  0.48983182  0.85008081
   0.94460959  0.66067134  0.86459409
   0.98313285  0.57694803  0.85087199
   0.83541410  0.49157505  0.89466979
   0.53702630  0.34844422  0.93561490
   0.57750456  0.42899342  0.84266554
   0.03241404  0.74987079  0.87499403
   0.70699035  0.64827373  0.87554478
   0.81904475  0.39505241  0.82372387
   0.68626924  0.22948136  0.90957038
   0.00418996  0.36704773  0.92395519
   0.05579584  0.57240498  0.95870042
   0.76640168  0.56192876  0.96643004
   0.10691038  0.59168369  0.84161615
   0.55607227  0.08400930  0.25000635
   0.55607244  0.33400900  0.25000620
   0.44386591  0.41603370  0.74995003
   0.55607190  0.58400854  0.25000634
   0.44475875  0.66674699  0.74937446
   0.55607214  0.83400978  0.25000633
   0.44390685  0.91586584  0.74996043
   0.88941303  0.33401304  0.25000640
   0.77630143  0.16262041  0.74902146
   0.77728058  0.41571337  0.74785418
   0.88941271  0.58401229  0.25000645
   0.77663559  0.66777299  0.74845263
   0.88941332  0.83401338  0.25000661
   0.77732602  0.91639813  0.74994224
   0.11018830  0.91579125  0.74996736
   0.88941294  0.08401339  0.25000648
   0.22272018  0.83401715  0.25000622
   0.44297491  0.16457257  0.74935093
   0.22271910  0.58401597  0.25000640
   0.11334485  0.41628073  0.74935583
   0.22271883  0.33401613  0.25000645
   0.22272012  0.08401719  0.25000640
   0.11040173  0.16588564  0.74999367
   0.11191387  0.66700148  0.74912053
   0.77751411  0.16632457  0.29459243
   0.88930104  0.08355696  0.79470349
   0.77751407  0.16632384  0.20542762
   0.88924127  0.08357142  0.70532688
   0.22222212  0.08359476  0.70541029
   0.11085043  0.16632645  0.20542690
   0.77751374  0.41632466  0.29459242
   0.89626664  0.32246304  0.79050924
   0.11084962  0.66632541  0.20542733
   0.55583708  0.83366127  0.70539731
   0.88960435  0.33352627  0.70509870
   0.22246562  0.08368746  0.79458046
   0.11085090  0.16632711  0.29459312
   0.77751404  0.66632481  0.29459231
   0.88956298  0.58972204  0.78693671
   0.77751381  0.66632309  0.20542784
   0.88939977  0.58404306  0.70469869
   0.77751421  0.91632505  0.29459253
   0.88922266  0.83413499  0.79471820
   0.77751345  0.41632314  0.20542763
   0.44418332  0.91632426  0.20542755
   0.44418383  0.91632548  0.29459244
   0.22235349  0.58354791  0.70531103
   0.22802481  0.58401898  0.79330653
   0.11085120  0.91632775  0.29459302
   0.22273607  0.83380337  0.79464156
   0.11085027  0.91632675  0.20542705
   0.22260763  0.83378575  0.70534822
   0.11085123  0.66632736  0.29459278
   0.77751400  0.91632401  0.20542765
   0.44418343  0.16632525  0.29459227
   0.55578907  0.08373460  0.79467251
   0.44418301  0.16632457  0.20542769
   0.55551734  0.08356964  0.70534207
   0.44418351  0.41632528  0.29459235
   0.54988958  0.32639139  0.79179890
   0.44418259  0.41632342  0.20542765
   0.55511233  0.33351612  0.70513533
   0.22255617  0.33367900  0.70537590
   0.11085003  0.41632603  0.20542710
   0.44418355  0.66632535  0.29459220
   0.55381322  0.58450340  0.79413912
   0.44418222  0.66632366  0.20542799
   0.55535812  0.58335877  0.70528807
   0.22249290  0.33355396  0.79462502
   0.11085128  0.41632745  0.29459302
   0.55593068  0.83366390  0.79465015
   0.88897340  0.83388058  0.70527976
Direct configuration=     6
   0.91266186  0.39008612  0.93152397
   0.74423924  0.31771171  0.92348094
   0.93943398  0.49819741  0.95015072
   0.78644564  0.49280690  0.95409167
   0.66565409  0.38094771  0.93734434
   0.83325309  0.46650658  0.84425156
   0.77623663  0.61256920  0.86527980
   0.70273964  0.49176753  0.85179651
   0.94520552  0.66504482  0.86590882
   0.98218892  0.56959076  0.85284538
   0.83485331  0.49020518  0.89921360
   0.53712324  0.34872090  0.93560095
   0.57317549  0.42893458  0.84386432
   0.03446473  0.75335219  0.87542719
   0.70433743  0.65216342  0.87631244
   0.81601555  0.39407205  0.82578335
   0.68635551  0.22983783  0.90954409
   0.00399246  0.36733848  0.92395100
   0.05525553  0.57231327  0.95866313
   0.76636898  0.56194764  0.96640030
   0.10433773  0.59162416  0.84286932
   0.55601419  0.08394064  0.25000937
   0.55601443  0.33394040  0.25000932
   0.44291276  0.41578209  0.74944140
   0.55601369  0.58393948  0.25000945
   0.44636724  0.66813669  0.74856096
   0.55601380  0.83394130  0.25000941
   0.44368453  0.91597743  0.74993578
   0.88934832  0.33394669  0.25000906
   0.77378364  0.15754307  0.74747556
   0.77706582  0.41264281  0.74723684
   0.88934785  0.58394572  0.25000906
   0.77326169  0.67070618  0.74681188
   0.88934889  0.83394706  0.25000920
   0.77787625  0.91647554  0.74998504
   0.11010924  0.91568639  0.74996525
   0.88934864  0.08394755  0.25000911
   0.22266696  0.83394904  0.25000938
   0.44041889  0.16147832  0.74842402
   0.22266517  0.58394703  0.25000975
   0.11839920  0.41675514  0.74787584
   0.22266541  0.33394772  0.25000982
   0.22266666  0.08394889  0.25000967
   0.11046971  0.16593127  0.74990365
   0.11812399  0.66967309  0.74740922
   0.77754047  0.16635580  0.29447916
   0.88921201  0.08291785  0.79466177
   0.77754100  0.16635520  0.20553663
   0.89000122  0.08278158  0.70496560
   0.22112014  0.08310695  0.70532214
   0.11087591  0.16636333  0.20553459
   0.77753999  0.41635528  0.29447916
   0.89617833  0.32288685  0.79071680
   0.11087454  0.66636118  0.20553491
   0.55615745  0.83415776  0.70529190
   0.89069677  0.33276573  0.70423550
   0.22237582  0.08350968  0.79440049
   0.11087624  0.16636363  0.29448129
   0.77754035  0.66635548  0.29447894
   0.88728033  0.58933523  0.78559465
   0.77754028  0.66635316  0.20553709
   0.89003486  0.58497768  0.70303624
   0.77754043  0.91635595  0.29447908
   0.88870132  0.83410436  0.79451032
   0.77754021  0.41635349  0.20553652
   0.44420693  0.91635495  0.20553701
   0.44420729  0.91635585  0.29447885
   0.22299209  0.58380352  0.70487515
   0.22938262  0.58381061  0.79272833
   0.11087695  0.91636426  0.29448109
   0.22263583  0.83343258  0.79454000
   0.11087616  0.91636342  0.20553494
   0.22316669  0.83450682  0.70523747
   0.11087651  0.66636389  0.29448096
   0.77754090  0.91635497  0.20553711
   0.44420758  0.16635582  0.29447891
   0.55597762  0.08366164  0.79445466
   0.44420725  0.16635510  0.20553673
   0.55453097  0.08251957  0.70497033
   0.44420704  0.41635527  0.29447881
   0.55021539  0.32506275  0.79083277
   0.44420565  0.41635309  0.20553683
   0.55355639  0.33314806  0.70444491
   0.22317338  0.33325860  0.70522831
   0.11087497  0.41636181  0.20553455
   0.44420738  0.66635562  0.29447871
   0.55358284  0.58523936  0.79362579
   0.44420547  0.66635325  0.20553735
   0.55381244  0.58265143  0.70484417
   0.22312203  0.33363211  0.79463591
   0.11087628  0.41636359  0.29448128
   0.55597170  0.83359025  0.79451783
   0.88959398  0.83538775  0.70490023
Direct configuration=     7
   0.91235353  0.38992527  0.93157503
   0.74425865  0.31753069  0.92361489
   0.93933769  0.49822273  0.95002408
   0.78646438  0.49302646  0.95392347
   0.66546983  0.38081360  0.93733089
   0.83232624  0.46669635  0.84326152
   0.77565733  0.61197007  0.86510619
   0.70171279  0.49112995  0.85123140
   0.94500924  0.66360430  0.86547578
   0.98249983  0.57201407  0.85219539
   0.83503802  0.49065638  0.89771697
   0.53709131  0.34862977  0.93560554
   0.57460139  0.42895396  0.84346947
   0.03378928  0.75220550  0.87528452
   0.70521124  0.65088224  0.87605959
   0.81701330  0.39439496  0.82510500
   0.68632710  0.22972042  0.90955275
   0.00405751  0.36724271  0.92395238
   0.05543349  0.57234348  0.95867541
   0.76637975  0.56194142  0.96641009
   0.10518510  0.59164377  0.84245655
   0.55603332  0.08396325  0.25000837
   0.55603354  0.33396300  0.25000830
   0.44322670  0.41586496  0.74960893
   0.55603287  0.58396223  0.25000843
   0.44583744  0.66767896  0.74882891
   0.55603302  0.83396385  0.25000840
   0.44375776  0.91594068  0.74994390
   0.88936963  0.33396854  0.25000818
   0.77461294  0.15921543  0.74798475
   0.77713655  0.41365418  0.74744018
   0.88936922  0.58396764  0.25000820
   0.77437298  0.66974005  0.74735230
   0.88937011  0.83396890  0.25000835
   0.77769502  0.91645005  0.74997094
   0.11013528  0.91572093  0.74996595
   0.88936982  0.08396924  0.25000825
   0.22268449  0.83397148  0.25000834
   0.44126078  0.16249750  0.74872932
   0.22268294  0.58396974  0.25000865
   0.11673441  0.41659888  0.74836332
   0.22268301  0.33397025  0.25000871
   0.22268427  0.08397138  0.25000859
   0.11044732  0.16591624  0.74993330
   0.11607852  0.66879312  0.74797288
   0.77753179  0.16634551  0.29451647
   0.88924134  0.08312836  0.79467551
   0.77753213  0.16634487  0.20550073
   0.88975091  0.08304173  0.70508460
   0.22148311  0.08326762  0.70535117
   0.11086752  0.16635119  0.20549912
   0.77753134  0.41634520  0.29451646
   0.89620742  0.32274726  0.79064843
   0.11086633  0.66634940  0.20549948
   0.55605193  0.83399423  0.70532662
   0.89033695  0.33301624  0.70451982
   0.22240540  0.08356824  0.79445977
   0.11086789  0.16635160  0.29451813
   0.77753168  0.66634537  0.29451628
   0.88803218  0.58946263  0.78603669
   0.77753156  0.66634326  0.20550110
   0.88982568  0.58466984  0.70358381
   0.77753179  0.91634577  0.29451645
   0.88887304  0.83411445  0.79457879
   0.77753139  0.41634349  0.20550065
   0.44419916  0.91634485  0.20550096
   0.44419957  0.91634585  0.29451627
   0.22278175  0.58371933  0.70501872
   0.22893539  0.58387924  0.79291878
   0.11086847  0.91635224  0.29451796
   0.22266884  0.83355471  0.79457345
   0.11086763  0.91635134  0.20549940
   0.22298255  0.83426932  0.70527395
   0.11086818  0.66635186  0.29451779
   0.77753204  0.91634477  0.20550105
   0.44419963  0.16634575  0.29451625
   0.55591551  0.08368567  0.79452641
   0.44419926  0.16634505  0.20550082
   0.55485586  0.08286544  0.70509277
   0.44419929  0.41634539  0.29451621
   0.55010808  0.32550038  0.79115099
   0.44419806  0.41634332  0.20550087
   0.55406888  0.33326929  0.70467232
   0.22297009  0.33339707  0.70527693
   0.11086675  0.41635003  0.20549916
   0.44419953  0.66634565  0.29451609
   0.55365872  0.58499695  0.79379487
   0.44419781  0.66634351  0.20550133
   0.55432155  0.58288441  0.70499038
   0.22291481  0.33360636  0.79463233
   0.11086805  0.41635168  0.29451808
   0.55595819  0.83361451  0.79456141
   0.88938957  0.83489133  0.70502524
Direct configuration=     8
   0.91270554  0.38953850  0.93189700
   0.74442717  0.31738194  0.92359998
   0.93985725  0.49744649  0.95094166
   0.78641637  0.49247628  0.95494811
   0.66457119  0.38024110  0.93765478
   0.82933959  0.46478114  0.84444235
   0.77454451  0.61283041  0.86586977
   0.70275471  0.49088946  0.85224376
   0.94554198  0.66219924  0.86600071
   0.98877816  0.57421831  0.85342221
   0.83342732  0.49218429  0.89900721
   0.53687562  0.34877962  0.93558894
   0.57562724  0.43077694  0.84467222
   0.03536225  0.75471990  0.87562777
   0.70512283  0.65319258  0.87633773
   0.81532253  0.39280416  0.82654701
   0.68643488  0.23005993  0.90943052
   0.00430498  0.36753563  0.92385735
   0.05608511  0.57283887  0.95875465
   0.76625468  0.56240050  0.96657430
   0.09968360  0.59046182  0.84379599
   0.55591925  0.08381785  0.25000728
   0.55591949  0.33381733  0.25000719
   0.44343604  0.41576577  0.74936009
   0.55591849  0.58381626  0.25000734
   0.44637853  0.66824389  0.74854839
   0.55591844  0.83381790  0.25000734
   0.44378372  0.91621658  0.74993921
   0.88925366  0.33382302  0.25000706
   0.77535452  0.15956833  0.74797624
   0.77737412  0.41265266  0.74715386
   0.88925324  0.58382172  0.25000707
   0.77364779  0.67030293  0.74678655
   0.88925415  0.83382295  0.25000724
   0.77849478  0.91674819  0.74990729
   0.10974494  0.91544282  0.74995257
   0.88925403  0.08382399  0.25000718
   0.22257141  0.83382552  0.25000746
   0.44062105  0.16154064  0.74836042
   0.22256979  0.58382382  0.25000778
   0.11655383  0.41623956  0.74820142
   0.22257029  0.33382482  0.25000785
   0.22257183  0.08382601  0.25000772
   0.11052773  0.16600587  0.74995155
   0.11652692  0.66898978  0.74752565
   0.77758528  0.16641730  0.29452146
   0.88883520  0.08260645  0.79452227
   0.77758505  0.16641652  0.20549624
   0.89074362  0.08168145  0.70445084
   0.21980410  0.08238691  0.70500192
   0.11092110  0.16642584  0.20549461
   0.77758488  0.41641659  0.29452149
   0.89538990  0.32377921  0.79048914
   0.11091953  0.66642328  0.20549486
   0.55668259  0.83487004  0.70504260
   0.89123568  0.33178858  0.70372115
   0.22237275  0.08331375  0.79431390
   0.11092118  0.16642604  0.29452350
   0.77758521  0.66641678  0.29452125
   0.88724722  0.58865793  0.78588932
   0.77758414  0.66641405  0.20549671
   0.89004184  0.58509127  0.70251997
   0.77758527  0.91641736  0.29452131
   0.88812216  0.83359012  0.79434332
   0.77758421  0.41641438  0.20549608
   0.44425080  0.91641458  0.20549700
   0.44425133  0.91641558  0.29452121
   0.22451577  0.58413140  0.70408968
   0.22896485  0.58382124  0.79244360
   0.11092207  0.91642667  0.29452327
   0.22241262  0.83278843  0.79440888
   0.11092134  0.91642576  0.20549494
   0.22415320  0.83567540  0.70482740
   0.11092142  0.66642635  0.29452319
   0.77758493  0.91641608  0.20549682
   0.44425189  0.16641555  0.29452134
   0.55610467  0.08342732  0.79415940
   0.44425130  0.16641469  0.20549666
   0.55319220  0.08110389  0.70434650
   0.44425117  0.41641483  0.29452123
   0.55171674  0.32578540  0.79088445
   0.44424938  0.41641246  0.20549680
   0.55288579  0.33254143  0.70404286
   0.22396478  0.33249325  0.70466759
   0.11091990  0.41642389  0.20549452
   0.44425156  0.66641525  0.29452113
   0.55406692  0.58551534  0.79330678
   0.44424922  0.66641250  0.20549732
   0.55227425  0.58211724  0.70416753
   0.22353210  0.33379125  0.79452535
   0.11092100  0.41642581  0.29452356
   0.55587596  0.83345065  0.79443158
   0.89033989  0.83690866  0.70442494
Direct configuration=     9
   0.91268502  0.38956104  0.93187823
   0.74441735  0.31739062  0.92360085
   0.93982696  0.49749174  0.95088817
   0.78641917  0.49250835  0.95488838
   0.66462357  0.38027447  0.93763590
   0.82951369  0.46489278  0.84437351
   0.77460938  0.61278026  0.86582526
   0.70269397  0.49090348  0.85218475
   0.94551092  0.66228114  0.86597011
   0.98841218  0.57408982  0.85335070
   0.83352121  0.49209523  0.89893199
   0.53688819  0.34877088  0.93558991
   0.57556744  0.43067067  0.84460210
   0.03527056  0.75457332  0.87560776
   0.70512798  0.65305791  0.87632152
   0.81542109  0.39289689  0.82646295
   0.68642860  0.23004013  0.90943765
   0.00429056  0.36751855  0.92386289
   0.05604713  0.57280999  0.95875003
   0.76626197  0.56237374  0.96656472
   0.10000430  0.59053071  0.84371791
   0.55592590  0.08382633  0.25000734
   0.55592614  0.33382582  0.25000726
   0.44342384  0.41577155  0.74937460
   0.55592516  0.58382477  0.25000740
   0.44634699  0.66821096  0.74856474
   0.55592512  0.83382641  0.25000740
   0.44378221  0.91620050  0.74993949
   0.88926042  0.33383151  0.25000713
   0.77531129  0.15954776  0.74797673
   0.77736027  0.41271104  0.74717055
   0.88926000  0.58383023  0.25000713
   0.77369007  0.67027012  0.74681953