  93  93   0   0
  0.3967126E+02  0.9570947E-09  0.1276126E-08  0.3488026E-08  0.5000000E-15
  1.000000000000000E-004
  CAR 
 basalPlane                              
      2.31883899    -19.29797730  301      0.01279926      1.00000000
    -19.298  0.0000E+00  0.0000E+00
    -19.226  0.0000E+00  0.0000E+00
    -19.154  0.0000E+00  0.0000E+00
    -19.082  0.0000E+00  0.0000E+00
    -19.010  0.0000E+00  0.0000E+00
    -18.938  0.0000E+00  0.0000E+00
    -18.866  0.1387E-17  0.9992E-19
    -18.794  0.3331E-14  0.2401E-15
    -18.722  0.2910E-11  0.2099E-12
    -18.649  0.9220E-09  0.6664E-10
    -18.577  0.1067E-06  0.7754E-08
    -18.505  0.4554E-05  0.3359E-06
    -18.433  0.7256E-04  0.5564E-05
    -18.361  0.4375E-03  0.3709E-04
    -18.289  0.1010E-02  0.1099E-03
    -18.217  0.8997E-03  0.1747E-03
    -18.145  0.3120E-03  0.1972E-03
    -18.073  0.1006E-03  0.2044E-03
    -18.001  0.3941E-03  0.2328E-03
    -17.929  0.9782E-03  0.3033E-03
    -17.857  0.9408E-03  0.3711E-03
    -17.785  0.3487E-03  0.3962E-03
    -17.713  0.4942E-04  0.3998E-03
    -17.641  0.2644E-05  0.4000E-03
    -17.569  0.5270E-07  0.4000E-03
    -17.497  0.3868E-09  0.4000E-03
    -17.425  0.1036E-11  0.4000E-03
    -17.352  0.1004E-14  0.4000E-03
    -17.280  0.3082E-18  0.4000E-03
    -17.208  0.0000E+00  0.4000E-03
    -17.136  0.0000E+00  0.4000E-03
    -17.064  0.0000E+00  0.4000E-03
    -16.992  0.0000E+00  0.4000E-03
    -16.920  0.0000E+00  0.4000E-03
    -16.848  0.0000E+00  0.4000E-03
    -16.776  0.0000E+00  0.4000E-03
    -16.704  0.0000E+00  0.4000E-03
    -16.632  0.0000E+00  0.4000E-03
    -16.560  0.0000E+00  0.4000E-03
    -16.488  0.0000E+00  0.4000E-03
    -16.416  0.0000E+00  0.4000E-03
    -16.344  0.1448E-16  0.4000E-03
    -16.272  0.2754E-13  0.4000E-03
    -16.200  0.1907E-10  0.4000E-03
    -16.128  0.4835E-08  0.4000E-03
    -16.055  0.4529E-06  0.4000E-03
    -15.983  0.1585E-04  0.4012E-03
    -15.911  0.2098E-03  0.4163E-03
    -15.839  0.1066E-02  0.4931E-03
    -15.767  0.2101E-02  0.6445E-03
    -15.695  0.1616E-02  0.7609E-03
    -15.623  0.4839E-03  0.7958E-03
    -15.551  0.5591E-04  0.7998E-03
    -15.479  0.2459E-05  0.8000E-03
    -15.407  0.4073E-07  0.8000E-03
    -15.335  0.2109E-07  0.8000E-03
    -15.263  0.1675E-05  0.8001E-03
    -15.191  0.5035E-04  0.8038E-03
    -15.119  0.5743E-03  0.8451E-03
    -15.047  0.2518E-02  0.1027E-02
    -14.975  0.4292E-02  0.1336E-02
    -14.903  0.2906E-02  0.1545E-02
    -14.831  0.1327E-02  0.1641E-02
    -14.758  0.2645E-02  0.1831E-02
    -14.686  0.4666E-02  0.2168E-02
    -14.614  0.5158E-02  0.2539E-02
    -14.542  0.6501E-02  0.3008E-02
    -14.470  0.5710E-02  0.3419E-02
    -14.398  0.2183E-02  0.3576E-02
    -14.326  0.5780E-03  0.3618E-02
    -14.254  0.1655E-02  0.3737E-02
    -14.182  0.4534E-02  0.4064E-02
    -14.110  0.7747E-02  0.4622E-02
    -14.038  0.1246E-01  0.5520E-02
    -13.966  0.1407E-01  0.6534E-02
    -13.894  0.9556E-02  0.7222E-02
    -13.822  0.8721E-02  0.7851E-02
    -13.750  0.1268E-01  0.8764E-02
    -13.678  0.1336E-01  0.9727E-02
    -13.606  0.9267E-02  0.1039E-01
    -13.533  0.4356E-02  0.1071E-01
    -13.461  0.1133E-02  0.1079E-01
    -13.389  0.1297E-03  0.1080E-01
    -13.317  0.5871E-05  0.1080E-01
    -13.245  0.1008E-06  0.1080E-01
    -13.173  0.6431E-09  0.1080E-01
    -13.101  0.1508E-11  0.1080E-01
    -13.029  0.1290E-14  0.1080E-01
    -12.957  0.0000E+00  0.1080E-01
    -12.885  0.0000E+00  0.1080E-01
    -12.813  0.0000E+00  0.1080E-01
    -12.741  0.0000E+00  0.1080E-01
    -12.669  0.0000E+00  0.1080E-01
    -12.597  0.0000E+00  0.1080E-01
    -12.525  0.0000E+00  0.1080E-01
    -12.453  0.0000E+00  0.1080E-01
    -12.381  0.0000E+00  0.1080E-01
    -12.309  0.0000E+00  0.1080E-01
    -12.236  0.0000E+00  0.1080E-01
    -12.164  0.0000E+00  0.1080E-01
    -12.092  0.0000E+00  0.1080E-01
    -12.020  0.0000E+00  0.1080E-01
    -11.948  0.0000E+00  0.1080E-01
    -11.876  0.0000E+00  0.1080E-01
    -11.804  0.0000E+00  0.1080E-01
    -11.732  0.0000E+00  0.1080E-01
    -11.660  0.0000E+00  0.1080E-01
    -11.588  0.0000E+00  0.1080E-01
    -11.516  0.0000E+00  0.1080E-01
    -11.444  0.0000E+00  0.1080E-01
    -11.372  0.0000E+00  0.1080E-01
    -11.300  0.0000E+00  0.1080E-01
    -11.228  0.0000E+00  0.1080E-01
    -11.156  0.0000E+00  0.1080E-01
    -11.084  0.0000E+00  0.1080E-01
    -11.012  0.0000E+00  0.1080E-01
    -10.939  0.0000E+00  0.1080E-01
    -10.867  0.0000E+00  0.1080E-01
    -10.795  0.0000E+00  0.1080E-01
    -10.723  0.0000E+00  0.1080E-01
    -10.651  0.0000E+00  0.1080E-01
    -10.579  0.0000E+00  0.1080E-01
    -10.507  0.0000E+00  0.1080E-01
    -10.435  0.0000E+00  0.1080E-01
    -10.363  0.0000E+00  0.1080E-01
    -10.291  0.0000E+00  0.1080E-01
    -10.219  0.0000E+00  0.1080E-01
    -10.147  0.2100E-15  0.1080E-01
    -10.075  0.2680E-12  0.1080E-01
    -10.003  0.1241E-09  0.1080E-01
     -9.931  0.2105E-07  0.1080E-01
     -9.859  0.1328E-05  0.1080E-01
     -9.787  0.3189E-04  0.1080E-01
     -9.715  0.3022E-03  0.1082E-01
     -9.642  0.1187E-02  0.1091E-01
     -9.570  0.2101E-02  0.1106E-01
     -9.498  0.2232E-02  0.1122E-01
     -9.426  0.2561E-02  0.1141E-01
     -9.354  0.2689E-02  0.1160E-01
     -9.282  0.1841E-02  0.1173E-01
     -9.210  0.7901E-03  0.1179E-01
     -9.138  0.3990E-03  0.1182E-01
     -9.066  0.8288E-03  0.1188E-01
     -8.994  0.1055E-02  0.1195E-01
     -8.922  0.5259E-03  0.1199E-01
     -8.850  0.1006E-03  0.1200E-01
     -8.778  0.7295E-05  0.1200E-01
     -8.706  0.1979E-06  0.1200E-01
     -8.634  0.1983E-08  0.1200E-01
     -8.562  0.7270E-11  0.1200E-01
     -8.490  0.9671E-14  0.1200E-01
     -8.418  0.4622E-17  0.1200E-01
     -8.345  0.0000E+00  0.1200E-01
     -8.273  0.0000E+00  0.1200E-01
     -8.201  0.0000E+00  0.1200E-01
     -8.129  0.0000E+00  0.1200E-01
     -8.057  0.0000E+00  0.1200E-01
     -7.985  0.8336E-16  0.1200E-01
     -7.913  0.1268E-12  0.1200E-01
     -7.841  0.7034E-10  0.1200E-01
     -7.769  0.1431E-07  0.1200E-01
     -7.697  0.1078E-05  0.1200E-01
     -7.625  0.3043E-04  0.1200E-01
     -7.553  0.3266E-03  0.1203E-01
     -7.481  0.1367E-02  0.1212E-01
     -7.409  0.2434E-02  0.1230E-01
     -7.337  0.2589E-02  0.1249E-01
     -7.265  0.2464E-02  0.1266E-01
     -7.193  0.1522E-02  0.1277E-01
     -7.121  0.1056E-02  0.1285E-01
     -7.048  0.3822E-02  0.1312E-01
     -6.976  0.9693E-02  0.1382E-01
     -6.904  0.1163E-01  0.1466E-01
     -6.832  0.7512E-02  0.1520E-01
     -6.760  0.7480E-02  0.1574E-01
     -6.688  0.1243E-01  0.1664E-01
     -6.616  0.1287E-01  0.1757E-01
     -6.544  0.9012E-02  0.1821E-01
     -6.472  0.5307E-02  0.1860E-01
     -6.400  0.2518E-02  0.1878E-01
     -6.328  0.1379E-02  0.1888E-01
     -6.256  0.1138E-02  0.1896E-01
     -6.184  0.8463E-03  0.1902E-01
     -6.112  0.1413E-02  0.1912E-01
     -6.040  0.2240E-02  0.1928E-01
     -5.968  0.2631E-02  0.1947E-01
     -5.896  0.4795E-02  0.1982E-01
     -5.823  0.7340E-02  0.2035E-01
     -5.751  0.6378E-02  0.2081E-01
     -5.679  0.6016E-02  0.2124E-01
     -5.607  0.1399E-01  0.2225E-01
     -5.535  0.2378E-01  0.2396E-01
     -5.463  0.1956E-01  0.2537E-01
     -5.391  0.9123E-02  0.2603E-01
     -5.319  0.5488E-02  0.2642E-01
     -5.247  0.6285E-02  0.2688E-01
     -5.175  0.5951E-02  0.2731E-01
     -5.103  0.3237E-02  0.2754E-01
     -5.031  0.2183E-02  0.2770E-01
     -4.959  0.5985E-02  0.2813E-01
     -4.887  0.1065E-01  0.2889E-01
     -4.815  0.9093E-02  0.2955E-01
     -4.743  0.7127E-02  0.3006E-01
     -4.671  0.8201E-02  0.3065E-01
     -4.599  0.8300E-02  0.3125E-01
     -4.526  0.6503E-02  0.3172E-01
     -4.454  0.3665E-02  0.3199E-01
     -4.382  0.3270E-02  0.3222E-01
     -4.310  0.5445E-02  0.3261E-01
     -4.238  0.6496E-02  0.3308E-01
     -4.166  0.6024E-02  0.3352E-01
     -4.094  0.5448E-02  0.3391E-01
     -4.022  0.4483E-02  0.3423E-01
     -3.950  0.1965E-02  0.3437E-01
     -3.878  0.3685E-03  0.3440E-01
     -3.806  0.2674E-03  0.3442E-01
     -3.734  0.1583E-02  0.3453E-01
     -3.662  0.4373E-02  0.3485E-01
     -3.590  0.7029E-02  0.3535E-01
     -3.518  0.1089E-01  0.3614E-01
     -3.446  0.1461E-01  0.3719E-01
     -3.374  0.1364E-01  0.3817E-01
     -3.302  0.1054E-01  0.3893E-01
     -3.229  0.8417E-02  0.3954E-01
     -3.157  0.7022E-02  0.4005E-01
     -3.085  0.8285E-02  0.4064E-01
     -3.013  0.1088E-01  0.4143E-01
     -2.941  0.9564E-02  0.4212E-01
     -2.869  0.5266E-02  0.4250E-01
     -2.797  0.3615E-02  0.4276E-01
     -2.725  0.4976E-02  0.4312E-01
     -2.653  0.7433E-02  0.4365E-01
     -2.581  0.7808E-02  0.4421E-01
     -2.509  0.6090E-02  0.4465E-01
     -2.437  0.5234E-02  0.4503E-01
     -2.365  0.7355E-02  0.4556E-01
     -2.293  0.7982E-02  0.4613E-01
     -2.221  0.6442E-02  0.4660E-01
     -2.149  0.5130E-02  0.4697E-01
     -2.077  0.2652E-02  0.4716E-01
     -2.005  0.1180E-02  0.4724E-01
     -1.932  0.2652E-02  0.4744E-01
     -1.860  0.4337E-02  0.4775E-01
     -1.788  0.3074E-02  0.4797E-01
     -1.716  0.1995E-02  0.4811E-01
     -1.644  0.2227E-02  0.4827E-01
     -1.572  0.1383E-02  0.4837E-01
     -1.500  0.3392E-03  0.4840E-01
     -1.428  0.3171E-04  0.4840E-01
     -1.356  0.1113E-05  0.4840E-01
     -1.284  0.1448E-07  0.4840E-01
     -1.212  0.6914E-10  0.4840E-01
     -1.140  0.1200E-12  0.4840E-01
     -1.068  0.7519E-16  0.4840E-01
     -0.996  0.0000E+00  0.4840E-01
     -0.924  0.0000E+00  0.4840E-01
     -0.852  0.0000E+00  0.4840E-01
     -0.780  0.9507E-16  0.4840E-01
     -0.708  0.1344E-12  0.4840E-01
     -0.635  0.6872E-10  0.4840E-01
     -0.563  0.1279E-07  0.4840E-01
     -0.491  0.8735E-06  0.4840E-01
     -0.419  0.2214E-04  0.4840E-01
     -0.347  0.2110E-03  0.4842E-01
     -0.275  0.7663E-03  0.4847E-01
     -0.203  0.1077E-02  0.4855E-01
     -0.131  0.6883E-03  0.4860E-01
     -0.059  0.8322E-03  0.4866E-01
      0.013  0.1962E-02  0.4880E-01
      0.085  0.3034E-02  0.4902E-01
      0.157  0.4299E-02  0.4933E-01
      0.229  0.4574E-02  0.4966E-01
      0.301  0.3837E-02  0.4994E-01
      0.373  0.6060E-02  0.5037E-01
      0.445  0.1159E-01  0.5121E-01
      0.517  0.1676E-01  0.5241E-01
      0.589  0.1531E-01  0.5352E-01
      0.662  0.1345E-01  0.5449E-01
      0.734  0.1131E-01  0.5530E-01
      0.806  0.5516E-02  0.5570E-01
      0.878  0.1731E-02  0.5582E-01
      0.950  0.2869E-02  0.5603E-01
      1.022  0.7584E-02  0.5658E-01
      1.094  0.1113E-01  0.5738E-01
      1.166  0.1123E-01  0.5819E-01
      1.238  0.1042E-01  0.5894E-01
      1.310  0.8689E-02  0.5957E-01
      1.382  0.4632E-02  0.5990E-01
      1.454  0.1232E-02  0.5999E-01
      1.526  0.1469E-03  0.6000E-01
      1.598  0.7371E-05  0.6000E-01
      1.670  0.1486E-06  0.6000E-01
      1.742  0.1160E-08  0.6000E-01
      1.814  0.3417E-11  0.6000E-01
      1.887  0.3729E-14  0.6000E-01
      1.959  0.1233E-17  0.6000E-01
      2.031  0.0000E+00  0.6000E-01
      2.103  0.0000E+00  0.6000E-01
      2.175  0.0000E+00  0.6000E-01
      2.247  0.0000E+00  0.6000E-01
      2.319  0.0000E+00  0.6000E-01
