 running on   36 total cores
 distrk:  each k-point on   36 cores,    1 groups
 distr:  one band on    3 cores,   12 groups
 using from now: INCAR     
 vasp.5.4.1 05Feb16 (build Apr 21 2017 13:36:42) gamma-only                     
  
 POSCAR found :  5 types and      93 ions
 scaLAPACK will be used
 LDA part: xc-table for Pade appr. of Perdew
 POSCAR found :  5 types and      93 ions
 POSCAR, INCAR and KPOINTS ok, starting setup
 FFT: planning ...
 WAVECAR not read
 entering main loop
       N       E                     dE             d eps       ncg     rms          rms(c)
DAV:   1     0.435881116380E+04    0.43588E+04   -0.18081E+05   612   0.112E+03
DAV:   2    -0.133739916436E+02   -0.43722E+04   -0.42079E+04   948   0.265E+02
DAV:   3    -0.675909516120E+03   -0.66254E+03   -0.65200E+03   720   0.113E+02
DAV:   4    -0.711708825004E+03   -0.35799E+02   -0.35538E+02   840   0.333E+01
DAV:   5    -0.713210044565E+03   -0.15012E+01   -0.14932E+01   900   0.620E+00    0.123E+02
DAV:   6    -0.696611832519E+03    0.16598E+02   -0.59979E+02   840   0.334E+01    0.819E+01
DAV:   7    -0.706035864745E+03   -0.94240E+01   -0.86575E+02   900   0.919E+01    0.445E+01
DAV:   8    -0.676528254051E+03    0.29508E+02   -0.15234E+02   816   0.155E+01    0.394E+01
DAV:   9    -0.688206895629E+03   -0.11679E+02   -0.32319E+02   924   0.124E+01    0.459E+01
DAV:  10    -0.661209538373E+03    0.26997E+02   -0.15933E+02   864   0.101E+01    0.241E+01
DAV:  11    -0.657526443713E+03    0.36831E+01   -0.27934E+01   936   0.138E+01    0.162E+01
DAV:  12    -0.656850145126E+03    0.67630E+00   -0.90590E+00   948   0.314E+00    0.155E+01
DAV:  13    -0.658567986374E+03   -0.17178E+01   -0.15256E+01   948   0.286E+00    0.201E+01
DAV:  14    -0.656817510557E+03    0.17505E+01   -0.11672E+00  1008   0.281E+00    0.127E+01
DAV:  15    -0.658327256323E+03   -0.15097E+01   -0.89637E+00   912   0.360E+00    0.188E+01
DAV:  16    -0.656754311372E+03    0.15729E+01   -0.15839E+00   948   0.377E+00    0.883E+00
DAV:  17    -0.656386957378E+03    0.36735E+00   -0.61959E-01   960   0.128E+00    0.665E+00
DAV:  18    -0.656586699939E+03   -0.19974E+00   -0.38379E-01   924   0.730E-01    0.725E+00
DAV:  19    -0.656406952655E+03    0.17975E+00   -0.32400E-01   936   0.574E-01    0.543E+00
DAV:  20    -0.656428570567E+03   -0.21618E-01   -0.18365E-01   924   0.225E-01    0.561E+00
DAV:  21    -0.656177593208E+03    0.25098E+00   -0.10054E+00   924   0.113E+00    0.391E+00
DAV:  22    -0.656177533668E+03    0.59540E-04   -0.35879E-01   924   0.223E-01    0.359E+00
DAV:  23    -0.656158000047E+03    0.19534E-01   -0.15884E-01   816   0.112E-01    0.361E+00
DAV:  24    -0.656154544095E+03    0.34560E-02   -0.87112E-02   828   0.109E-01    0.339E+00
DAV:  25    -0.656149486792E+03    0.50573E-02   -0.34868E-02   732   0.641E-02    0.347E+00
DAV:  26    -0.656144938331E+03    0.45485E-02   -0.94063E-03   852   0.989E-02    0.332E+00
DAV:  27    -0.656120914283E+03    0.24024E-01   -0.20655E-01   912   0.461E-01    0.353E+00
DAV:  28    -0.656128987287E+03   -0.80730E-02   -0.25949E-02   936   0.242E-01    0.333E+00
DAV:  29    -0.656128713615E+03    0.27367E-03   -0.20157E-03   816   0.597E-02    0.339E+00
DAV:  30    -0.656127771847E+03    0.94177E-03   -0.89812E-04   684   0.273E-02    0.335E+00
DAV:  31    -0.656123265231E+03    0.45066E-02   -0.11510E-02   924   0.239E-01    0.356E+00
DAV:  32    -0.656091707005E+03    0.31558E-01   -0.16412E-02   912   0.185E-01    0.291E+00
DAV:  33    -0.656081629283E+03    0.10078E-01   -0.10894E-02   924   0.258E-01    0.328E+00
DAV:  34    -0.656094734552E+03   -0.13105E-01   -0.29588E-02   924   0.415E-01    0.378E+00
DAV:  35    -0.656133940735E+03   -0.39206E-01   -0.33756E-02   912   0.288E-01    0.441E+00
DAV:  36    -0.656146778542E+03   -0.12838E-01   -0.64409E-03   864   0.117E-01    0.451E+00
DAV:  37    -0.656158066420E+03   -0.11288E-01   -0.22025E-03   708   0.719E-02    0.467E+00
DAV:  38    -0.656224657968E+03   -0.66592E-01   -0.22835E-02   876   0.196E-01    0.531E+00
DAV:  39    -0.656253610489E+03   -0.28953E-01   -0.45672E-03   888   0.826E-02    0.547E+00
DAV:  40    -0.656259822232E+03   -0.62117E-02   -0.25485E-04   648   0.224E-02    0.552E+00
DAV:  41    -0.656291524640E+03   -0.31702E-01   -0.17451E-03   696   0.646E-02    0.577E+00
DAV:  42    -0.656361781057E+03   -0.70256E-01   -0.14978E-02   828   0.120E-01    0.610E+00
DAV:  43    -0.656390397036E+03   -0.28616E-01   -0.18089E-03   792   0.501E-02    0.622E+00
DAV:  44    -0.656401296319E+03   -0.10899E-01   -0.17055E-03   708   0.595E-02    0.632E+00
DAV:  45    -0.656429695097E+03   -0.28399E-01   -0.13191E-03   708   0.510E-02    0.642E+00
DAV:  46    -0.656475273163E+03   -0.45578E-01   -0.60631E-03   840   0.679E-02    0.666E+00
DAV:  47    -0.656479240200E+03   -0.39670E-02   -0.40746E-04   600   0.307E-02    0.674E+00
DAV:  48    -0.656457671038E+03    0.21569E-01   -0.59791E-04   468   0.287E-02    0.675E+00
DAV:  49    -0.656426486419E+03    0.31185E-01   -0.68192E-04   672   0.491E-02    0.673E+00
DAV:  50    -0.656405453419E+03    0.21033E-01   -0.81250E-04   732   0.427E-02    0.672E+00
DAV:  51    -0.656361112087E+03    0.44341E-01   -0.20130E-03   792   0.494E-02    0.659E+00
DAV:  52    -0.656318739435E+03    0.42373E-01   -0.28530E-03   732   0.807E-02    0.649E+00
DAV:  53    -0.656323751775E+03   -0.50123E-02   -0.44131E-04   648   0.220E-02    0.655E+00
DAV:  54    -0.656304564418E+03    0.19187E-01   -0.61636E-04   588   0.415E-02    0.653E+00
DAV:  55    -0.656290941658E+03    0.13623E-01   -0.37442E-04   660   0.209E-02    0.651E+00
DAV:  56    -0.656321770280E+03   -0.30829E-01   -0.37924E-03   792   0.106E-01    0.650E+00
DAV:  57    -0.656297776319E+03    0.23994E-01   -0.84933E-04   612   0.363E-02    0.640E+00
DAV:  58    -0.656273219521E+03    0.24557E-01   -0.69419E-04   600   0.316E-02    0.628E+00
DAV:  59    -0.656252021496E+03    0.21198E-01   -0.84754E-04   612   0.310E-02    0.616E+00
DAV:  60    -0.656243607485E+03    0.84140E-02   -0.16248E-04   480   0.177E-02    0.609E+00
DAV:  61    -0.656245759404E+03   -0.21519E-02   -0.84511E-04   528   0.381E-02    0.598E+00
DAV:  62    -0.656246566035E+03   -0.80663E-03   -0.25390E-04   432   0.206E-02    0.599E+00
DAV:  63    -0.656235809821E+03    0.10756E-01   -0.43711E-04   636   0.256E-02    0.591E+00
DAV:  64    -0.656224049731E+03    0.11760E-01   -0.15814E-04   396   0.168E-02    0.582E+00
DAV:  65    -0.656221276436E+03    0.27733E-02   -0.34001E-05   372   0.804E-03    0.580E+00
DAV:  66    -0.656092797965E+03    0.12848E+00   -0.30504E+00   888   0.653E-01    0.308E+00
DAV:  67    -0.656095605579E+03   -0.28076E-02   -0.19670E+00   804   0.289E-01    0.363E+00
DAV:  68    -0.656035233055E+03    0.60373E-01   -0.92243E-01   852   0.209E-01    0.150E+00
DAV:  69    -0.656042065367E+03   -0.68323E-02   -0.63974E-01   804   0.157E-01    0.281E+00
DAV:  70    -0.656015567526E+03    0.26498E-01   -0.26590E-01   780   0.137E-01    0.106E+00
DAV:  71    -0.656011928405E+03    0.36391E-02   -0.16452E-01   900   0.152E-01    0.169E+00
DAV:  72    -0.656008998855E+03    0.29296E-02   -0.22284E-02   900   0.133E-01    0.131E+00
DAV:  73    -0.656006598219E+03    0.24006E-02   -0.15027E-02   708   0.596E-02    0.147E+00
DAV:  74    -0.656001832271E+03    0.47659E-02   -0.16753E-03   744   0.593E-02    0.107E+00
DAV:  75    -0.655998115753E+03    0.37165E-02   -0.32601E-03   780   0.475E-02    0.921E-01
DAV:  76    -0.655998445504E+03   -0.32975E-03   -0.11307E-03   576   0.368E-02    0.977E-01
DAV:  77    -0.655996869340E+03    0.15762E-02   -0.14127E-03   564   0.307E-02    0.831E-01
DAV:  78    -0.655995658127E+03    0.12112E-02   -0.12998E-03   600   0.304E-02    0.712E-01
DAV:  79    -0.655995150622E+03    0.50751E-03   -0.17937E-04   432   0.235E-02    0.634E-01
DAV:  80    -0.655995159629E+03   -0.90071E-05   -0.11852E-04   432   0.142E-02
   1 F= -.67132566E+03 E0= -.67126684E+03  d E =-.671326E+03
 curvature:   0.00 expect dE= 0.000E+00 dE for cont linesearch  0.000E+00
 trial: gam= 0.00000 g(F)=  0.221E+01 g(S)=  0.000E+00 ort = 0.000E+00 (trialstep = 0.100E+01)
 search vector abs. value=  0.221E+01
 bond charge predicted
       N       E                     dE             d eps       ncg     rms          rms(c)
DAV:   1    -0.655864038636E+03    0.13111E+00   -0.13630E+02   600   0.148E+01    0.163E+01
DAV:   2    -0.656725195920E+03   -0.86116E+00   -0.90621E+00   804   0.415E+00    0.122E+01
DAV:   3    -0.663805548715E+03   -0.70804E+01   -0.10307E+02   900   0.835E+00    0.255E+01
DAV:   4    -0.656701404375E+03    0.71041E+01   -0.14109E+01   936   0.132E+01    0.762E+00
DAV:   5    -0.656598035486E+03    0.10337E+00   -0.34829E+00   912   0.224E+00    0.667E+00
DAV:   6    -0.656644811642E+03   -0.46776E-01   -0.31289E+00   948   0.151E+00    0.666E+00
DAV:   7    -0.656841048943E+03   -0.19624E+00   -0.39967E+00   804   0.921E-01    0.112E+01
DAV:   8    -0.656586125551E+03    0.25492E+00   -0.12028E+01   804   0.934E-01    0.183E+00
DAV:   9    -0.656531719548E+03    0.54406E-01   -0.36112E-01   828   0.479E-01    0.188E+00
DAV:  10    -0.656524457758E+03    0.72618E-02   -0.38275E-01   924   0.273E-01    0.128E+00
DAV:  11    -0.656515847352E+03    0.86104E-02   -0.13647E-01   936   0.210E-01    0.820E-01
DAV:  12    -0.656509775077E+03    0.60723E-02   -0.92593E-02   924   0.195E-01    0.845E-01
DAV:  13    -0.656506794133E+03    0.29809E-02   -0.51462E-02   876   0.108E-01    0.519E-01
DAV:  14    -0.656503575878E+03    0.32183E-02   -0.27852E-02   840   0.979E-02    0.420E-01
DAV:  15    -0.656502269558E+03    0.13063E-02   -0.16651E-02   780   0.594E-02    0.331E-01
DAV:  16    -0.656500468321E+03    0.18012E-02   -0.79184E-03   744   0.624E-02    0.209E-01
DAV:  17    -0.656499751529E+03    0.71679E-03   -0.32934E-03   504   0.298E-02    0.174E-01
DAV:  18    -0.656499196999E+03    0.55453E-03   -0.16342E-03   468   0.219E-02    0.192E-01
DAV:  19    -0.656497905687E+03    0.12913E-02   -0.67318E-04   504   0.200E-02    0.169E-01
DAV:  20    -0.656496943878E+03    0.96181E-03   -0.34201E-04   456   0.164E-02    0.170E-01
DAV:  21    -0.656496278554E+03    0.66532E-03   -0.15947E-04   408   0.137E-02    0.152E-01
DAV:  22    -0.656495404315E+03    0.87424E-03   -0.10632E-04   480   0.140E-02    0.156E-01
DAV:  23    -0.656493992182E+03    0.14121E-02   -0.21845E-04   588   0.174E-02    0.112E-01
DAV:  24    -0.656493534893E+03    0.45729E-03   -0.43341E-05   408   0.107E-02    0.985E-02
DAV:  25    -0.656493075076E+03    0.45982E-03   -0.14030E-04   528   0.133E-02    0.719E-02
DAV:  26    -0.656493030863E+03    0.44213E-04   -0.32820E-05   360   0.110E-02
   2 F= -.67183994E+03 E0= -.67177578E+03  d E =-.514284E+00
 trial-energy change:   -0.514284  1 .order   -0.568913   -2.210378    1.072553
 step:   0.6506(harm=  0.6733)  dis= 0.14874  next Energy=  -672.029647 (dE=-0.704E+00)
 bond charge predicted
       N       E                     dE             d eps       ncg     rms          rms(c)
DAV:   1    -0.656620629569E+03   -0.12755E+00   -0.16929E+01   612   0.535E+00    0.337E+00
DAV:   2    -0.656701073873E+03   -0.80444E-01   -0.95215E-01   828   0.149E+00    0.193E+00
DAV:   3    -0.656912685891E+03   -0.21161E+00   -0.19526E+00   936   0.909E-01    0.884E+00
DAV:   4    -0.656774340420E+03    0.13835E+00   -0.35272E+00   888   0.935E-01    0.195E+00
DAV:   5    -0.656732407742E+03    0.41933E-01   -0.47362E-01   888   0.289E-01    0.225E+00
DAV:   6    -0.656718526191E+03    0.13882E-01   -0.43750E-01   936   0.190E-01    0.147E+00
DAV:   7    -0.656711794933E+03    0.67313E-02   -0.25691E-01   900   0.244E-01    0.142E+00
DAV:   8    -0.656704402016E+03    0.73929E-02   -0.17418E-01   924   0.171E-01    0.742E-01
DAV:   9    -0.656699979870E+03    0.44221E-02   -0.72179E-02   876   0.115E-01    0.864E-01
DAV:  10    -0.656697743378E+03    0.22365E-02   -0.63124E-02   864   0.780E-02    0.620E-01
DAV:  11    -0.656694410101E+03    0.33333E-02   -0.26573E-02   768   0.820E-02    0.499E-01
DAV:  12    -0.656692369102E+03    0.20410E-02   -0.16921E-02   756   0.577E-02    0.421E-01
DAV:  13    -0.656691052471E+03    0.13166E-02   -0.62247E-03   672   0.453E-02    0.287E-01
DAV:  14    -0.656690430954E+03    0.62152E-03   -0.29859E-03   492   0.281E-02    0.311E-01
DAV:  15    -0.656689490327E+03    0.94063E-03   -0.15143E-03   396   0.250E-02    0.219E-01
DAV:  16    -0.656687871461E+03    0.16189E-02   -0.99755E-04   672   0.366E-02    0.107E-01
DAV:  17    -0.656687811132E+03    0.60330E-04   -0.31607E-04   492   0.262E-02
   3 F= -.67202636E+03 E0= -.67196297E+03  d E =-.700703E+00
 curvature:  -0.34 expect dE=-0.275E+00 dE for cont linesearch -0.109E-04
 trial: gam= 0.36719 g(F)=  0.820E+00 g(S)=  0.000E+00 ort = 0.849E-02 (trialstep = 0.930E+00)
 search vector abs. value=  0.112E+01
 bond charge predicted
       N       E                     dE             d eps       ncg     rms          rms(c)
DAV:   1    -0.656073101081E+03    0.61477E+00   -0.84717E+01   600   0.125E+01    0.477E+00
DAV:   2    -0.656594159666E+03   -0.52106E+00   -0.50355E+00   804   0.357E+00    0.537E+00
DAV:   3    -0.656545947540E+03    0.48212E-01   -0.67525E+00   936   0.306E+00    0.774E+00
DAV:   4    -0.656442788791E+03    0.10316E+00   -0.54734E+00   912   0.177E+00    0.291E+00
DAV:   5    -0.656315387071E+03    0.12740E+00   -0.72855E-01   924   0.958E-01    0.237E+00
DAV:   6    -0.656293151983E+03    0.22235E-01   -0.49803E-01   948   0.371E-01    0.177E+00
DAV:   7    -0.656309212420E+03   -0.16060E-01   -0.39636E-01   948   0.669E-01    0.408E+00
DAV:   8    -0.656286448797E+03    0.22764E-01   -0.87295E-01   888   0.719E-01    0.112E+00
DAV:   9    -0.656271313100E+03    0.15136E-01   -0.13079E-01   828   0.280E-01    0.886E-01
DAV:  10    -0.656266540648E+03    0.47725E-02   -0.87926E-02   888   0.164E-01    0.839E-01
DAV:  11    -0.656264055063E+03    0.24856E-02   -0.52193E-02   876   0.925E-02    0.529E-01
DAV:  12    -0.656262704699E+03    0.13504E-02   -0.30455E-02   804   0.688E-02    0.623E-01
DAV:  13    -0.656259650567E+03    0.30541E-02   -0.19659E-02   828   0.860E-02    0.372E-01
DAV:  14    -0.656257784524E+03    0.18660E-02   -0.90729E-03   816   0.712E-02    0.391E-01
DAV:  15    -0.656256697345E+03    0.10872E-02   -0.47930E-03   780   0.508E-02    0.261E-01
DAV:  16    -0.656256303505E+03    0.39384E-03   -0.21371E-03   624   0.306E-02    0.263E-01
DAV:  17    -0.656255684699E+03    0.61881E-03   -0.11613E-03   516   0.343E-02    0.135E-01
DAV:  18    -0.656255408404E+03    0.27629E-03   -0.59628E-04   528   0.370E-02    0.112E-01
DAV:  19    -0.656255405443E+03    0.29603E-05   -0.36668E-04   612   0.289E-02
   4 F= -.67159977E+03 E0= -.67153597E+03  d E =0.426588E+00
 trial-energy change:    0.426588  1 .order    0.494701   -0.765703    1.755106
 step:   0.3164(harm=  0.2825)  dis= 0.02775  next Energy=  -672.159264 (dE=-0.133E+00)
 bond charge predicted
       N       E                     dE             d eps       ncg     rms          rms(c)
DAV:   1    -0.656749245544E+03   -0.49384E+00   -0.37131E+01   600   0.816E+00    0.337E+00
DAV:   2    -0.656962416061E+03   -0.21317E+00   -0.19251E+00   828   0.185E+00    0.713E+00
DAV:   3    -0.657093338216E+03   -0.13092E+00   -0.40296E+00   900   0.201E+00    0.377E+00
DAV:   4    -0.656982236876E+03    0.11110E+00   -0.11886E+00   924   0.813E-01    0.334E+00
DAV:   5    -0.656923787298E+03    0.58450E-01   -0.10099E+00   924   0.492E-01    0.225E+00
DAV:   6    -0.656861903675E+03    0.61884E-01   -0.44926E-01   948   0.652E-01    0.157E+00
DAV:   7    -0.656845329144E+03    0.16575E-01   -0.25752E-01   900   0.299E-01    0.115E+00
DAV:   8    -0.656832775522E+03    0.12554E-01   -0.13832E-01   936   0.247E-01    0.100E+00
DAV:   9    -0.656826573821E+03    0.62017E-02   -0.10756E-01   900   0.163E-01    0.622E-01
DAV:  10    -0.656823456880E+03    0.31169E-02   -0.67076E-02   936   0.142E-01    0.698E-01
DAV:  11    -0.656820474927E+03    0.29820E-02   -0.38409E-02   852   0.852E-02    0.280E-01
DAV:  12    -0.656819322182E+03    0.11527E-02   -0.20574E-02   756   0.554E-02    0.457E-01
DAV:  13    -0.656817634169E+03    0.16880E-02   -0.11557E-02   792   0.539E-02    0.184E-01
DAV:  14    -0.656817380174E+03    0.25399E-03   -0.50445E-03   528   0.337E-02    0.303E-01
DAV:  15    -0.656817184216E+03    0.19596E-03   -0.29501E-03   384   0.275E-02    0.159E-01
DAV:  16    -0.656817055542E+03    0.12867E-03   -0.96975E-04   576   0.283E-02    0.152E-01
DAV:  17    -0.656816972408E+03    0.83133E-04   -0.57239E-04   360   0.152E-02
   5 F= -.67215718E+03 E0= -.67209407E+03  d E =-.130821E+00
 curvature:  -0.19 expect dE=-0.542E-01 dE for cont linesearch -0.480E-05
 trial: gam= 0.38401 g(F)=  0.282E+00 g(S)=  0.000E+00 ort =-0.530E-02 (trialstep = 0.807E+00)
 search vector abs. value=  0.443E+00
 bond charge predicted
       N       E                     dE             d eps       ncg     rms          rms(c)
DAV:   1    -0.656905906009E+03   -0.88850E-01   -0.29364E+01   600   0.711E+00    0.188E+00
DAV:   2    -0.656952719232E+03   -0.46813E-01   -0.61747E-01   900   0.135E+00    0.128E+00
DAV:   3    -0.656983413130E+03   -0.30694E-01   -0.28377E-01   900   0.735E-01    0.167E+00
DAV:   4    -0.656943442473E+03    0.39971E-01   -0.28355E-01   924   0.698E-01    0.837E-01
DAV:   5    -0.656946092080E+03   -0.26496E-02   -0.73246E-02   852   0.170E-01    0.108E+00
DAV:   6    -0.656944674282E+03    0.14178E-02   -0.10590E-01   936   0.175E-01    0.783E-01
DAV:   7    -0.656946666025E+03   -0.19917E-02   -0.10319E-01   888   0.214E-01    0.121E+00
DAV:   8    -0.656943446321E+03    0.32197E-02   -0.67318E-02   888   0.206E-01    0.570E-01
DAV:   9    -0.656941857508E+03    0.15888E-02   -0.28605E-02   876   0.820E-02    0.517E-01
DAV:  10    -0.656939639783E+03    0.22177E-02   -0.18580E-02   780   0.883E-02    0.244E-01
DAV:  11    -0.656939309028E+03    0.33076E-03   -0.75054E-03   588   0.386E-02    0.195E-01
DAV:  12    -0.656939086803E+03    0.22222E-03   -0.40894E-03   468   0.294E-02    0.109E-01
DAV:  13    -0.656939013947E+03    0.72856E-04   -0.15794E-03   420   0.211E-02    0.818E-02
DAV:  14    -0.656938991986E+03    0.21961E-04   -0.86474E-04   384   0.159E-02
   6 F= -.67227425E+03 E0= -.67221018E+03  d E =-.117071E+00
 trial-energy change:   -0.117071  1 .order   -0.117041   -0.225815   -0.008268
 step:   0.8381(harm=  0.8381)  dis= 0.04113  next Energy=  -672.274379 (dE=-0.117E+00)
 bond charge predicted
       N       E                     dE             d eps       ncg     rms          rms(c)
DAV:   1    -0.656939308113E+03   -0.29417E-03   -0.42856E-02   600   0.271E-01    0.822E-02
DAV:   2    -0.656939864013E+03   -0.55590E-03   -0.27123E-03   900   0.719E-02    0.274E-01
DAV:   3    -0.656939571879E+03    0.29213E-03   -0.30977E-03   720   0.612E-02    0.181E-01
DAV:   4    -0.656939442354E+03    0.12953E-03   -0.63465E-04   456   0.280E-02    0.103E-01
DAV:   5    -0.656939402862E+03    0.39492E-04   -0.15370E-04   384   0.116E-02
   7 F= -.67227445E+03 E0= -.67221090E+03  d E =-.117268E+00
 curvature:  -0.66 expect dE=-0.126E+00 dE for cont linesearch -0.504E-05
 trial: gam= 0.65310 g(F)=  0.189E+00 g(S)=  0.000E+00 ort = 0.183E-02 (trialstep = 0.814E+00)
 search vector abs. value=  0.381E+00
 bond charge predicted
       N       E                     dE             d eps       ncg     rms          rms(c)
DAV:   1    -0.657004637068E+03   -0.65195E-01   -0.16749E+01   600   0.531E+00    0.174E+00
DAV:   2    -0.657054461312E+03   -0.49824E-01   -0.65176E-01   900   0.128E+00    0.123E+00
DAV:   3    -0.657067819186E+03   -0.13358E-01   -0.21702E-01   876   0.450E-01    0.153E+00
DAV:   4    -0.657052567476E+03    0.15252E-01   -0.22529E-01   936   0.403E-01    0.101E+00
DAV:   5    -0.657053541573E+03   -0.97410E-03   -0.12093E-01   912   0.200E-01    0.109E+00
DAV:   6    -0.657050242514E+03    0.32991E-02   -0.61630E-02   840   0.104E-01    0.673E-01
DAV:   7    -0.657057706848E+03   -0.74643E-02   -0.81484E-02   888   0.252E-01    0.177E+00
DAV:   8    -0.657048953356E+03    0.87535E-02   -0.54640E-02   912   0.180E-01    0.366E-01
DAV:   9    -0.657046733416E+03    0.22199E-02   -0.24421E-02   828   0.785E-02    0.430E-01
DAV:  10    -0.657045931697E+03    0.80172E-03   -0.14234E-02   756   0.599E-02    0.133E-01
DAV:  11    -0.657045755237E+03    0.17646E-03   -0.56841E-03   504   0.332E-02    0.240E-01
DAV:  12    -0.657045632050E+03    0.12319E-03   -0.36152E-03   384   0.259E-02    0.113E-01
DAV:  13    -0.657045550713E+03    0.81337E-04   -0.12616E-03   396   0.198E-02    0.137E-01
DAV:  14    -0.657045521525E+03    0.29188E-04   -0.87169E-04   360   0.129E-02
   8 F= -.67237345E+03 E0= -.67230791E+03  d E =-.989991E-01
 trial-energy change:   -0.098999  1 .order   -0.099332   -0.154743   -0.043921
 step:   1.1359(harm=  1.1359)  dis= 0.03117  next Energy=  -672.382484 (dE=-0.108E+00)
 bond charge predicted
       N       E                     dE             d eps       ncg     rms          rms(c)
DAV:   1    -0.657051271814E+03   -0.57211E-02   -0.26333E+00   600   0.210E+00    0.712E-01
DAV:   2    -0.657059584699E+03   -0.83129E-02   -0.10893E-01   888   0.508E-01    0.633E-01
DAV:   3    -0.657074497893E+03   -0.14913E-01   -0.10048E-01   924   0.246E-01    0.223E+00
DAV:   4    -0.657065938309E+03    0.85596E-02   -0.10203E-01   888   0.277E-01    0.699E-01
DAV:   5    -0.657061021936E+03    0.49164E-02   -0.18894E-02   876   0.866E-02    0.676E-01
DAV:   6    -0.657058601486E+03    0.24205E-02   -0.13945E-02   744   0.734E-02    0.327E-01
DAV:   7    -0.657059081936E+03   -0.48045E-03   -0.45209E-03   816   0.866E-02    0.553E-01
DAV:   8    -0.657057820866E+03    0.12611E-02   -0.29663E-03   804   0.653E-02    0.134E-01
DAV:   9    -0.657057756957E+03    0.63909E-04   -0.13750E-03   492   0.353E-02    0.240E-01
DAV:  10    -0.657057518039E+03    0.23892E-03   -0.94965E-04   384   0.254E-02    0.988E-02
DAV:  11    -0.657057538693E+03   -0.20654E-04   -0.59050E-04   384   0.192E-02
   9 F= -.67238284E+03 E0= -.67231745E+03  d E =-.108393E+00
 curvature:  -1.14 expect dE=-0.492E+00 dE for cont linesearch -0.323E-04
 trial: gam= 2.31208 g(F)=  0.433E+00 g(S)=  0.000E+00 ort = 0.329E-02 (trialstep = 0.135E+00)
 search vector abs. value=  0.248E+01
 bond charge predicted
       N       E                     dE             d eps       ncg     rms          rms(c)
DAV:   1    -0.657106650643E+03   -0.49133E-01   -0.26794E+00   600   0.206E+00    0.749E-01
DAV:   2    -0.657118358616E+03   -0.11708E-01   -0.10734E-01   900   0.501E-01    0.113E+00
DAV:   3    -0.657138556180E+03   -0.20198E-01   -0.15770E-01   900   0.516E-01    0.129E+00
DAV:   4    -0.657120561459E+03    0.17995E-01   -0.50576E-02   936   0.277E-01    0.804E-01
DAV:   5    -0.657116906373E+03    0.36551E-02   -0.87565E-03   852   0.963E-02    0.633E-01
DAV:   6    -0.657114878812E+03    0.20276E-02   -0.11382E-02   900   0.147E-01    0.523E-01
DAV:   7    -0.657114080703E+03    0.79811E-03   -0.53927E-03   804   0.786E-02    0.316E-01
DAV:   8    -0.657113718862E+03    0.36184E-03   -0.49893E-03   744   0.525E-02    0.255E-01
DAV:   9    -0.657113481880E+03    0.23698E-03   -0.43488E-03   444   0.317E-02    0.184E-01
DAV:  10    -0.657113327408E+03    0.15447E-03   -0.27379E-03   420   0.317E-02    0.136E-01
DAV:  11    -0.657113245475E+03    0.81933E-04   -0.17520E-03   408   0.217E-02    0.955E-02
DAV:  12    -0.657113203860E+03    0.41615E-04   -0.96177E-04   384   0.162E-02
  10 F= -.67243516E+03 E0= -.67237046E+03  d E =-.523136E-01
 ZBRENT: can't locate minimum, use default step
 trial-energy change:   -0.052314  1 .order   -0.052246   -0.059302   -0.045191
 step:   0.5384(harm=  0.5656)  dis= 0.03473  next Energy=  -672.507452 (dE=-0.125E+00)
 bond charge predicted
       N       E                     dE             d eps       ncg     rms          rms(c)
DAV:   1    -0.657137598517E+03   -0.24353E-01   -0.24051E+01   600   0.618E+00    0.214E+00
DAV:   2    -0.657225298057E+03   -0.87700E-01   -0.94487E-01   888   0.141E+00    0.287E+00
DAV:   3    -0.657358624975E+03   -0.13333E+00   -0.12244E+00   912   0.141E+00    0.323E+00
DAV:   4    -0.657257071183E+03    0.10155E+00   -0.72569E-01   948   0.781E-01    0.205E+00
DAV:   5    -0.657229968799E+03    0.27102E-01   -0.42639E-01   960   0.352E-01    0.163E+00
DAV:   6    -0.657206720443E+03    0.23248E-01   -0.18784E-01   936   0.426E-01    0.101E+00
DAV:   7    -0.657206010895E+03    0.70955E-03   -0.12271E-01   888   0.221E-01    0.111E+00
DAV:   8    -0.657199576232E+03    0.64347E-02   -0.55193E-02   900   0.180E-01    0.474E-01
DAV:   9    -0.657199233828E+03    0.34240E-03   -0.44678E-02   888   0.840E-02    0.586E-01
DAV:  10    -0.657197945135E+03    0.12887E-02   -0.26266E-02   828   0.746E-02    0.335E-01
DAV:  11    -0.657197447927E+03    0.49721E-03   -0.15726E-02   696   0.607E-02    0.340E-01
DAV:  12    -0.657197024101E+03    0.42383E-03   -0.79566E-03   528   0.379E-02    0.146E-01
DAV:  13    -0.657196938742E+03    0.85358E-04   -0.43900E-03   420   0.295E-02    0.201E-01
DAV:  14    -0.657196805106E+03    0.13364E-03   -0.21270E-03   384   0.213E-02    0.695E-02
DAV:  15    -0.657196793140E+03    0.11966E-04   -0.94685E-04   384   0.165E-02
  11 F= -.67250920E+03 E0= -.67244589E+03  d E =-.126362E+00
 curvature:  -1.59 expect dE=-0.260E+00 dE for cont linesearch -0.557E-03
 trial: gam= 0.35479 g(F)=  0.164E+00 g(S)=  0.000E+00 ort = 0.295E-01 (trialstep = 0.215E+00)
 search vector abs. value=  0.497E+00
 bond charge predicted
       N       E                     dE             d eps       ncg     rms          rms(c)
DAV:   1    -0.657230062709E+03   -0.33258E-01   -0.18522E+00   600   0.179E+00    0.434E-01
DAV:   2    -0.657241938430E+03   -0.11876E-01   -0.64755E-02   948   0.443E-01    0.156E+00
DAV:   3    -0.657239403234E+03    0.25352E-02   -0.48712E-02   924   0.260E-01    0.683E-01
DAV:   4    -0.657236017619E+03    0.33856E-02   -0.58877E-03   852   0.798E-02    0.571E-01
DAV:   5    -0.657234170653E+03    0.18470E-02   -0.33413E-03   792   0.666E-02    0.386E-01
DAV:   6    -0.657233711178E+03    0.45947E-03   -0.40743E-03   840   0.847E-02    0.326E-01
DAV:   7    -0.657233378608E+03    0.33257E-03   -0.19593E-03   792   0.524E-02    0.214E-01
DAV:   8    -0.657233107416E+03    0.27119E-03   -0.16266E-03   564   0.375E-02    0.138E-01
DAV:   9    -0.657233029647E+03    0.77769E-04   -0.12598E-03   408   0.229E-02    0.983E-02
DAV:  10    -0.657232989548E+03    0.40099E-04   -0.78110E-04   384   0.186E-02
  12 F= -.67254268E+03 E0= -.67247900E+03  d E =-.334751E-01
 ZBRENT: can't locate minimum, use default step
 trial-energy change:   -0.033475  1 .order   -0.033392   -0.037476   -0.029308
 step:   0.8614(harm=  0.9880)  dis= 0.03192  next Energy=  -672.595173 (dE=-0.860E-01)
 bond charge predicted
       N       E                     dE             d eps       ncg     rms          rms(c)
DAV:   1    -0.657266238199E+03   -0.33209E-01   -0.16664E+01   600   0.537E+00    0.127E+00
DAV:   2    -0.657346286575E+03   -0.80048E-01   -0.54247E-01   936   0.119E+00    0.434E+00
DAV:   3    -0.657336035690E+03    0.10251E-01   -0.39299E-01   924   0.677E-01    0.143E+00
DAV:   4    -0.657318547061E+03    0.17489E-01   -0.17488E-01   888   0.243E-01    0.150E+00
DAV:   5    -0.657307271732E+03    0.11275E-01   -0.16885E-01   876   0.192E-01    0.103E+00
DAV:   6    -0.657298016037E+03    0.92557E-02   -0.37521E-02   900   0.245E-01    0.695E-01
DAV:   7    -0.657294817091E+03    0.31989E-02   -0.18410E-02   864   0.156E-01    0.461E-01
DAV:   8    -0.657293629540E+03    0.11876E-02   -0.89776E-03   900   0.105E-01    0.362E-01
DAV:   9    -0.657292907781E+03    0.72176E-03   -0.62283E-03   828   0.679E-02    0.247E-01
DAV:  10    -0.657292687703E+03    0.22008E-03   -0.55381E-03   624   0.385E-02    0.216E-01
DAV:  11    -0.657292447875E+03    0.23983E-03   -0.38087E-03   468   0.314E-02    0.119E-01
DAV:  12    -0.657292417594E+03    0.30282E-04   -0.24625E-03   408   0.252E-02    0.126E-01
DAV:  13    -0.657292338741E+03    0.78853E-04   -0.12894E-03   384   0.204E-02    0.445E-02
DAV:  14    -0.657292339037E+03   -0.29632E-06   -0.60998E-04   384   0.148E-02
  13 F= -.67259405E+03 E0= -.67253170E+03  d E =-.848449E-01
 curvature:  -1.37 expect dE=-0.211E+00 dE for cont linesearch -0.133E-02
 trial: gam= 0.88055 g(F)=  0.154E+00 g(S)=  0.000E+00 ort = 0.220E-01 (trialstep = 0.296E+00)
 search vector abs. value=  0.578E+00
 bond charge predicted
       N       E                     dE             d eps       ncg     rms          rms(c)
DAV:   1    -0.657329662028E+03   -0.37323E-01   -0.35056E+00   600   0.247E+00    0.659E-01
DAV:   2    -0.657338486617E+03   -0.88246E-02   -0.10899E-01   876   0.539E-01    0.526E-01
DAV:   3    -0.657345024990E+03   -0.65384E-02   -0.38525E-02   912   0.237E-01    0.971E-01
DAV:   4    -0.657338992158E+03    0.60328E-02   -0.37154E-02   924   0.220E-01    0.554E-01
DAV:   5    -0.657339157724E+03   -0.16557E-03   -0.75859E-03   888   0.896E-02    0.628E-01
DAV:   6    -0.657338662804E+03    0.49492E-03   -0.28816E-03   852   0.759E-02    0.393E-01
DAV:   7    -0.657337366091E+03    0.12967E-02   -0.53599E-03   852   0.108E-01    0.369E-01
DAV:   8    -0.657336664936E+03    0.70116E-03   -0.14055E-03   612   0.409E-02    0.648E-02
DAV:   9    -0.657336708604E+03   -0.43668E-04   -0.92521E-04   432   0.296E-02
  14 F= -.67263508E+03 E0= -.67257395E+03  d E =-.410262E-01
 trial-energy change:   -0.041026  1 .order   -0.040924   -0.051354   -0.030493
 step:   0.7293(harm=  0.7293)  dis= 0.02090  next Energy=  -672.657260 (dE=-0.632E-01)
 bond charge predicted
       N       E                     dE             d eps       ncg     rms          rms(c)
DAV:   1    -0.657348045632E+03   -0.11381E-01   -0.74942E+00   600   0.360E+00    0.973E-01
DAV:   2    -0.657366350562E+03   -0.18305E-01   -0.23057E-01   888   0.773E-01    0.684E-01
DAV:   3    -0.657369979619E+03   -0.36291E-02   -0.40647E-02   936   0.209E-01    0.118E+00
DAV:   4    -0.657369874456E+03    0.10516E-03   -0.63168E-02   948   0.280E-01    0.740E-01
DAV:   5    -0.657363505442E+03    0.63690E-02   -0.29559E-02   936   0.189E-01    0.396E-01
DAV:   6    -0.657364728795E+03   -0.12234E-02   -0.23140E-02   804   0.829E-02    0.645E-01
DAV:   7    -0.657363340058E+03    0.13887E-02   -0.24459E-02   900   0.892E-02    0.256E-01
DAV:   8    -0.657363151759E+03    0.18830E-03   -0.14437E-02   720   0.555E-02    0.298E-01
DAV:   9    -0.657362836676E+03    0.31508E-03   -0.93179E-03   564   0.400E-02    0.142E-01
DAV:  10    -0.657362735872E+03    0.10080E-03   -0.49319E-03   480   0.303E-02    0.168E-01
DAV:  11    -0.657362631791E+03    0.10408E-03   -0.29818E-03   384   0.206E-02    0.782E-02
DAV:  12    -0.657362606988E+03    0.24803E-04   -0.15284E-03   384   0.159E-02    0.958E-02
DAV:  13    -0.657362567387E+03    0.39602E-04   -0.75615E-04   384   0.114E-02
  15 F= -.67265614E+03 E0= -.67259405E+03  d E =-.620954E-01
 curvature:  -1.22 expect dE=-0.261E+00 dE for cont linesearch -0.437E-04
 trial: gam= 1.57716 g(F)=  0.215E+00 g(S)=  0.000E+00 ort =-0.456E-02 (trialstep = 0.135E+00)
 search vector abs. value=  0.164E+01
 bond charge predicted
       N       E                     dE             d eps       ncg     rms          rms(c)
DAV:   1    -0.657386074017E+03   -0.23467E-01   -0.18248E+00   600   0.170E+00    0.568E-01
DAV:   2    -0.657397390336E+03   -0.11316E-01   -0.79040E-02   876   0.451E-01    0.135E+00
DAV:   3    -0.657403338806E+03   -0.59485E-02   -0.93544E-02   924   0.369E-01    0.940E-01
DAV:   4    -0.657395133267E+03    0.82055E-02   -0.19485E-02   912   0.158E-01    0.662E-01
DAV:   5    -0.657392303298E+03    0.28300E-02   -0.64478E-03   816   0.816E-02    0.472E-01
DAV:   6    -0.657391214887E+03    0.10884E-02   -0.64631E-03   816   0.988E-02    0.359E-01
DAV:   7    -0.657390925444E+03    0.28944E-03   -0.29501E-03   768   0.573E-02    0.269E-01
DAV:   8    -0.657390506222E+03    0.41922E-03   -0.91044E-04   684   0.445E-02    0.159E-01
DAV:   9    -0.657390421795E+03    0.84427E-04   -0.33208E-04   420   0.272E-02
  16 F= -.67268165E+03 E0= -.67261934E+03  d E =-.255072E-01
 ZBRENT: can't locate minimum, use default step
 trial-energy change:   -0.025507  1 .order   -0.025354   -0.028069   -0.022639
 step:   0.5402(harm=  0.6982)  dis= 0.02897  next Energy=  -672.728693 (dE=-0.725E-01)
 bond charge predicted
       N       E                     dE             d eps       ncg     rms          rms(c)
DAV:   1    -0.657401014266E+03   -0.10508E-01   -0.16417E+01   600   0.511E+00    0.171E+00
DAV:   2    -0.657451215557E+03   -0.50201E-01   -0.56503E-01   888   0.119E+00    0.157E+00
DAV:   3    -0.657526618369E+03   -0.75403E-01   -0.53000E-01   912   0.964E-01    0.248E+00
DAV:   4    -0.657462471371E+03    0.64147E-01   -0.36168E-01   936   0.651E-01    0.134E+00
DAV:   5    -0.657449849781E+03    0.12622E-01   -0.14738E-01   948   0.239E-01    0.110E+00
DAV:   6    -0.657453177432E+03   -0.33277E-02   -0.56193E-02   912   0.272E-01    0.186E+00
DAV:   7    -0.657450904522E+03    0.22729E-02   -0.72254E-02   876   0.311E-01    0.997E-01
DAV:   8    -0.657444159165E+03    0.67454E-02   -0.81643E-03   864   0.140E-01    0.459E-01
DAV:   9    -0.657442473523E+03    0.16856E-02   -0.15778E-03   828   0.796E-02    0.646E-01
DAV:  10    -0.657440954891E+03    0.15186E-02   -0.13520E-03   564   0.352E-02    0.343E-01
DAV:  11    -0.657440140461E+03    0.81443E-03   -0.10539E-03   600   0.457E-02    0.401E-01
DAV:  12    -0.657439221281E+03    0.91918E-03   -0.10816E-03   624   0.437E-02    0.145E-01
DAV:  13    -0.657439157964E+03    0.63317E-04   -0.62831E-04   528   0.259E-02
  17 F= -.67272349E+03 E0= -.67266325E+03  d E =-.673470E-01
 curvature:  -2.54 expect dE=-0.338E+00 dE for cont linesearch -0.246E-02
 ZBRENT: extrapolating
 opt :   0.6666  next Energy=  -672.726009 (dE=-0.699E-01)
 bond charge predicted
       N       E                     dE             d eps       ncg     rms          rms(c)
DAV:   1    -0.657439828800E+03   -0.60752E-03   -0.15979E+00   600   0.159E+00    0.560E-01
DAV:   2    -0.657461280711E+03   -0.21452E-01   -0.92066E-02   912   0.485E-01    0.238E+00
DAV:   3    -0.657455845662E+03    0.54350E-02   -0.98272E-02   924   0.361E-01    0.812E-01
DAV:   4    -0.657449543263E+03    0.63024E-02   -0.90396E-03   852   0.103E-01    0.773E-01
DAV:   5    -0.657446047995E+03    0.34953E-02   -0.53191E-03   840   0.878E-02    0.515E-01
DAV:   6    -0.657444459397E+03    0.15886E-02   -0.60518E-03   840   0.106E-01    0.340E-01
DAV:   7    -0.657444098535E+03    0.36086E-03   -0.14824E-03   756   0.545E-02    0.279E-01
DAV:   8    -0.657443723220E+03    0.37531E-03   -0.72082E-04   648   0.444E-02    0.207E-01
DAV:   9    -0.657443590800E+03    0.13242E-03   -0.61120E-04   372   0.248E-02    0.150E-01
DAV:  10    -0.657443482730E+03    0.10807E-03   -0.54714E-04   384   0.226E-02    0.111E-01
DAV:  11    -0.657443442535E+03    0.40195E-04   -0.41416E-04   360   0.170E-02
  18 F= -.67272567E+03 E0= -.67266336E+03  d E =-.695208E-01
 curvature:  -2.60 expect dE=-0.429E+00 dE for cont linesearch -0.345E-05
 trial: gam= 0.49088 g(F)=  0.165E+00 g(S)=  0.000E+00 ort =-0.147E-02 (trialstep = 0.241E+00)
 search vector abs. value=  0.559E+00
 bond charge predicted
       N       E                     dE             d eps       ncg     rms          rms(c)
DAV:   1    -0.657471664982E+03   -0.28182E-01   -0.19919E+00   600   0.182E+00    0.584E-01
DAV:   2    -0.657477427291E+03   -0.57623E-02   -0.71817E-02   888   0.428E-01    0.328E-01
DAV:   3    -0.657477292039E+03    0.13525E-03   -0.94188E-03   756   0.843E-02    0.360E-01
DAV:   4    -0.657477359600E+03   -0.67561E-04   -0.11967E-02   816   0.512E-02    0.334E-01
DAV:   5    -0.657478993276E+03   -0.16337E-02   -0.15838E-02   852   0.120E-01    0.505E-01
DAV:   6    -0.657476882538E+03    0.21107E-02   -0.96863E-03   804   0.114E-01    0.172E-01
DAV:   7    -0.657476886050E+03   -0.35125E-05   -0.24009E-03   564   0.296E-02    0.206E-01
DAV:   8    -0.657476777825E+03    0.10823E-03   -0.20378E-03   468   0.279E-02    0.990E-02
DAV:   9    -0.657476706702E+03    0.71123E-04   -0.10452E-03   384   0.230E-02    0.111E-01
DAV:  10    -0.657476663178E+03    0.43524E-04   -0.69674E-04   360   0.131E-02
  19 F= -.67275755E+03 E0= -.67269490E+03  d E =-.318843E-01
 trial-energy change:   -0.031884  1 .order   -0.031862   -0.039709   -0.024015
 step:   0.6107(harm=  0.6107)  dis= 0.01996  next Energy=  -672.775901 (dE=-0.502E-01)
 bond charge predicted
       N       E                     dE             d eps       ncg     rms          rms(c)
DAV:   1    -0.657485696596E+03   -0.89899E-02   -0.46672E+00   600   0.279E+00    0.899E-01
DAV:   2    -0.657499388277E+03   -0.13692E-01   -0.16857E-01   876   0.660E-01    0.517E-01
DAV:   3    -0.657505462148E+03   -0.60739E-02   -0.36627E-02   864   0.255E-01    0.904E-01
DAV:   4    -0.657499762996E+03    0.56992E-02   -0.43150E-02   936   0.239E-01    0.594E-01
DAV:   5    -0.657499818984E+03   -0.55988E-04   -0.12116E-02   888   0.110E-01    0.587E-01
DAV:   6    -0.657499380838E+03    0.43815E-03   -0.26280E-03   852   0.618E-02    0.400E-01
DAV:   7    -0.657498237823E+03    0.11430E-02   -0.55699E-03   828   0.101E-01    0.340E-01
DAV:   8    -0.657497647877E+03    0.58995E-03   -0.33251E-03   636   0.421E-02    0.102E-01
DAV:   9    -0.657497639661E+03    0.82155E-05   -0.23414E-03   432   0.286E-02    0.191E-01
DAV:  10    -0.657497476659E+03    0.16300E-03   -0.14367E-03   396   0.226E-02    0.530E-02
DAV:  11    -0.657497487312E+03   -0.10653E-04   -0.82034E-04   384   0.154E-02
  20 F= -.67277645E+03 E0= -.67271461E+03  d E =-.507805E-01
 curvature:  -1.04 expect dE=-0.112E+00 dE for cont linesearch -0.676E-05
 trial: gam= 0.63601 g(F)=  0.108E+00 g(S)=  0.000E+00 ort = 0.191E-02 (trialstep = 0.315E+00)
 search vector abs. value=  0.337E+00
 bond charge predicted
       N       E                     dE             d eps       ncg     rms          rms(c)
DAV:   1    -0.657518926265E+03   -0.21450E-01   -0.20366E+00   600   0.197E+00    0.550E-01
DAV:   2    -0.657526463045E+03   -0.75368E-02   -0.76876E-02   876   0.447E-01    0.658E-01
DAV:   3    -0.657546984960E+03   -0.20522E-01   -0.90665E-02   936   0.315E-01    0.283E+00
DAV:   4    -0.657531250708E+03    0.15734E-01   -0.65255E-02   912   0.256E-01    0.564E-01
DAV:   5    -0.657525445350E+03    0.58054E-02   -0.51208E-03   864   0.774E-02    0.541E-01
DAV:   6    -0.657524080264E+03    0.13651E-02   -0.28438E-03   744   0.534E-02    0.300E-01
DAV:   7    -0.657524289554E+03   -0.20929E-03   -0.22179E-03   732   0.603E-02    0.427E-01
DAV:   8    -0.657523582071E+03    0.70748E-03   -0.94743E-04   612   0.429E-02    0.147E-01
DAV:   9    -0.657523480154E+03    0.10192E-03   -0.43878E-04   468   0.332E-02    0.224E-01
DAV:  10    -0.657523289045E+03    0.19111E-03   -0.35048E-04   360   0.196E-02    0.801E-02
DAV:  11    -0.657523276536E+03    0.12509E-04   -0.20006E-04   372   0.169E-02
  21 F= -.67280128E+03 E0= -.67273755E+03  d E =-.248374E-01
 trial-energy change:   -0.024837  1 .order   -0.024840   -0.034462   -0.015218
 step:   0.5645(harm=  0.5645)  dis= 0.01058  next Energy=  -672.807303 (dE=-0.309E-01)
 bond charge predicted
       N       E                     dE             d eps       ncg     rms          rms(c)
DAV:   1    -0.657527256092E+03   -0.39670E-02   -0.12717E+00   600   0.155E+00    0.448E-01
DAV:   2    -0.657533323944E+03   -0.60679E-02   -0.54732E-02   876   0.366E-01    0.648E-01
DAV:   3    -0.657544588831E+03   -0.11265E-01   -0.68542E-02   936   0.283E-01    0.212E+00
DAV:   4    -0.657534805415E+03    0.97834E-02   -0.40229E-02   888   0.211E-01    0.490E-01
DAV:   5    -0.657531323158E+03    0.34823E-02   -0.34414E-03   804   0.608E-02    0.426E-01
DAV:   6    -0.657530415280E+03    0.90788E-03   -0.20286E-03   624   0.431E-02    0.221E-01
DAV:   7    -0.657530747849E+03   -0.33257E-03   -0.17147E-03   684   0.519E-02    0.382E-01
DAV:   8    -0.657530209987E+03    0.53786E-03   -0.64097E-04   552   0.379E-02    0.134E-01
DAV:   9    -0.657530112460E+03    0.97526E-04   -0.21880E-04   456   0.284E-02
  22 F= -.67280740E+03 E0= -.67274292E+03  d E =-.309504E-01
 curvature:  -0.87 expect dE=-0.963E-01 dE for cont linesearch -0.229E-05
 trial: gam= 1.04323 g(F)=  0.111E+00 g(S)=  0.000E+00 ort = 0.941E-03 (trialstep = 0.256E+00)
 search vector abs. value=  0.479E+00
 bond charge predicted
       N       E                     dE             d eps       ncg     rms          rms(c)
DAV:   1    -0.657550519883E+03   -0.20310E-01   -0.20968E+00   600   0.194E+00    0.529E-01
DAV:   2    -0.657560968294E+03   -0.10448E-01   -0.78200E-02   876   0.482E-01    0.785E-01
DAV:   3    -0.657572378815E+03   -0.11411E-01   -0.83854E-02   936   0.364E-01    0.239E+00
DAV:   4    -0.657561832483E+03    0.10546E-01   -0.46475E-02   900   0.243E-01    0.552E-01
DAV:   5    -0.657557039268E+03    0.47932E-02   -0.61903E-03   804   0.815E-02    0.600E-01
DAV:   6    -0.657555235801E+03    0.18035E-02   -0.34156E-03   708   0.576E-02    0.196E-01
DAV:   7    -0.657555957925E+03   -0.72212E-03   -0.27281E-03   708   0.530E-02    0.531E-01
DAV:   8    -0.657555050558E+03    0.90737E-03   -0.14324E-03   648   0.417E-02    0.185E-01
DAV:   9    -0.657554995446E+03    0.55113E-04   -0.69641E-04   492   0.342E-02
  23 F= -.67283090E+03 E0= -.67276534E+03  d E =-.235037E-01
 trial-energy change:   -0.023504  1 .order   -0.023624   -0.028679   -0.018568
 step:   0.7275(harm=  0.7275)  dis= 0.01621  next Energy=  -672.848070 (dE=-0.407E-01)
 bond charge predicted
       N       E                     dE             d eps       ncg     rms          rms(c)
DAV:   1    -0.657560002110E+03   -0.49516E-02   -0.70701E+00   600   0.357E+00    0.994E-01
DAV:   2    -0.657592703934E+03   -0.32702E-01   -0.26876E-01   864   0.897E-01    0.134E+00
DAV:   3    -0.657618616460E+03   -0.25913E-01   -0.31859E-01   924   0.612E-01    0.397E+00
DAV:   4    -0.657597039639E+03    0.21577E-01   -0.21675E-01   912   0.420E-01    0.868E-01
DAV:   5    -0.657582727645E+03    0.14312E-01   -0.66826E-02   876   0.138E-01    0.107E+00
DAV:   6    -0.657577678622E+03    0.50490E-02   -0.52828E-02   816   0.887E-02    0.521E-01
DAV:   7    -0.657577217365E+03    0.46126E-03   -0.33302E-02   828   0.142E-01    0.872E-01
DAV:   8    -0.657574793489E+03    0.24239E-02   -0.23457E-02   840   0.668E-02    0.279E-01
DAV:   9    -0.657574629626E+03    0.16386E-03   -0.10172E-02   708   0.502E-02    0.515E-01
DAV:  10    -0.657573905679E+03    0.72395E-03   -0.76212E-03   540   0.353E-02    0.252E-01
DAV:  11    -0.657573754371E+03    0.15131E-03   -0.33497E-03   456   0.283E-02    0.296E-01
DAV:  12    -0.657573603612E+03    0.15076E-03   -0.24576E-03   384   0.219E-02    0.212E-01
DAV:  13    -0.657573510461E+03    0.93151E-04   -0.93227E-04   396   0.191E-02
  24 F= -.67284695E+03 E0= -.67278320E+03  d E =-.395494E-01
 curvature:  -1.56 expect dE=-0.108E+00 dE for cont linesearch -0.455E-06
 trial: gam= 0.59983 g(F)=  0.692E-01 g(S)=  0.000E+00 ort =-0.374E-03 (trialstep = 0.351E+00)
 search vector abs. value=  0.241E+00
 bond charge predicted
       N       E                     dE             d eps       ncg     rms          rms(c)
DAV:   1    -0.657591375100E+03   -0.17771E-01   -0.19504E+00   600   0.181E+00    0.626E-01
DAV:   2    -0.657598574467E+03   -0.71994E-02   -0.82489E-02   864   0.410E-01    0.672E-01
DAV:   3    -0.657613178472E+03   -0.14604E-01   -0.96749E-02   936   0.234E-01    0.224E+00
DAV:   4    -0.657604007326E+03    0.91711E-02   -0.81546E-02   888   0.240E-01    0.626E-01
DAV:   5    -0.657598389294E+03    0.56180E-02   -0.68720E-03   852   0.799E-02    0.567E-01
DAV:   6    -0.657596768636E+03    0.16207E-02   -0.31833E-03   684   0.507E-02    0.287E-01
DAV:   7    -0.657597277360E+03   -0.50872E-03   -0.44446E-03   804   0.745E-02    0.504E-01
DAV:   8    -0.657596283688E+03    0.99367E-03   -0.46833E-03   720   0.531E-02    0.135E-01
DAV:   9    -0.657596269329E+03    0.14359E-04   -0.31480E-03   432   0.308E-02    0.260E-01
DAV:  10    -0.657596056875E+03    0.21245E-03   -0.26485E-03   384   0.243E-02    0.128E-01
DAV:  11    -0.657596023154E+03    0.33721E-04   -0.14719E-03   384   0.172E-02    0.151E-01
DAV:  12    -0.657595970575E+03    0.52579E-04   -0.10952E-03   372   0.134E-02    0.110E-01
DAV:  13    -0.657595941283E+03    0.29292E-04   -0.45979E-04   384   0.112E-02
  25 F= -.67286645E+03 E0= -.67280335E+03  d E =-.195040E-01
 trial-energy change:   -0.019504  1 .order   -0.019593   -0.024183   -0.015002
 step:   0.9237(harm=  0.9237)  dis= 0.01695  next Energy=  -672.878797 (dE=-0.319E-01)
 bond charge predicted
       N       E                     dE             d eps       ncg     rms          rms(c)
DAV:   1    -0.657600478702E+03   -0.45081E-02   -0.51997E+00   600   0.296E+00    0.981E-01
DAV:   2    -0.657616145188E+03   -0.15666E-01   -0.19488E-01   864   0.658E-01    0.703E-01
DAV:   3    -0.657620685865E+03   -0.45407E-02   -0.98921E-02   900   0.183E-01    0.124E+00
DAV:   4    -0.657622610630E+03   -0.19248E-02   -0.11699E-01   900   0.238E-01    0.860E-01
DAV:   5    -0.657614897148E+03    0.77135E-02   -0.39467E-02   888   0.166E-01    0.483E-01
DAV:   6    -0.657614618281E+03    0.27887E-03   -0.16874E-02   792   0.718E-02    0.482E-01
DAV:   7    -0.657613571462E+03    0.10468E-02   -0.11499E-02   900   0.801E-02    0.276E-01
DAV:   8    -0.657613296135E+03    0.27533E-03   -0.63402E-03   684   0.519E-02    0.170E-01
DAV:   9    -0.657613167529E+03    0.12861E-03   -0.36078E-03   468   0.362E-02    0.161E-01
DAV:  10    -0.657613063813E+03    0.10372E-03   -0.23775E-03   420   0.247E-02    0.868E-02
DAV:  11    -0.657613044175E+03    0.19638E-04   -0.13576E-03   384   0.196E-02    0.942E-02
DAV:  12    -0.657612997692E+03    0.46483E-04   -0.75631E-04   384   0.132E-02
  26 F= -.67287878E+03 E0= -.67281608E+03  d E =-.318295E-01
 curvature:  -1.61 expect dE=-0.140E+00 dE for cont linesearch -0.822E-08
 trial: gam= 1.23152 g(F)=  0.869E-01 g(S)=  0.000E+00 ort = 0.350E-04 (trialstep = 0.248E+00)
 search vector abs. value=  0.453E+00
 bond charge predicted
       N       E                     dE             d eps       ncg     rms          rms(c)
DAV:   1    -0.657628497088E+03   -0.15453E-01   -0.16894E+00   600   0.173E+00    0.564E-01
DAV:   2    -0.657633725091E+03   -0.52280E-02   -0.62286E-02   876   0.396E-01    0.383E-01
DAV:   3    -0.657639733918E+03   -0.60088E-02   -0.35283E-02   912   0.212E-01    0.808E-01
DAV:   4    -0.657633566835E+03    0.61671E-02   -0.28766E-02   900   0.180E-01    0.291E-01
DAV:   5    -0.657633669763E+03   -0.10293E-03   -0.65998E-03   744   0.453E-02    0.383E-01
DAV:   6    -0.657633356160E+03    0.31360E-03   -0.82748E-03   696   0.669E-02    0.265E-01
DAV:   7    -0.657633314528E+03    0.41632E-04   -0.84893E-03   684   0.615E-02    0.310E-01
DAV:   8    -0.657632919148E+03    0.39538E-03   -0.56980E-03   552   0.386E-02    0.120E-01
DAV:   9    -0.657632914756E+03    0.43927E-05   -0.33441E-03   432   0.266E-02    0.172E-01
DAV:  10    -0.657632807855E+03    0.10690E-03   -0.18905E-03   384   0.187E-02    0.637E-02
DAV:  11    -0.657632808424E+03   -0.56867E-06   -0.96339E-04   384   0.135E-02
  27 F= -.67289512E+03 E0= -.67283253E+03  d E =-.163429E-01
 trial-energy change:   -0.016343  1 .order   -0.016378   -0.021545   -0.011211
 step:   0.5167(harm=  0.5167)  dis= 0.01092  next Energy=  -672.901234 (dE=-0.225E-01)
 bond charge predicted
       N       E                     dE             d eps       ncg     rms          rms(c)
DAV:   1    -0.657637407828E+03   -0.46000E-02   -0.19874E+00   600   0.187E+00    0.627E-01
DAV:   2    -0.657643905526E+03   -0.64977E-02   -0.80409E-02   876   0.431E-01    0.499E-01
DAV:   3    -0.657649207338E+03   -0.53018E-02   -0.47260E-02   888   0.190E-01    0.912E-01
DAV:   4    -0.657644754206E+03    0.44531E-02   -0.42465E-02   888   0.181E-01    0.533E-01
DAV:   5    -0.657644651588E+03    0.10262E-03   -0.14930E-02   780   0.966E-02    0.533E-01
DAV:   6    -0.657643987602E+03    0.66399E-03   -0.20888E-03   792   0.468E-02    0.391E-01
DAV:   7    -0.657642960943E+03    0.10267E-02   -0.41665E-03   768   0.788E-02    0.295E-01
DAV:   8    -0.657642601316E+03    0.35963E-03   -0.19455E-03   540   0.323E-02    0.112E-01
DAV:   9    -0.657642564482E+03    0.36834E-04   -0.86006E-04   420   0.279E-02
  28 F= -.67290113E+03 E0= -.67283875E+03  d E =-.223534E-01
 curvature:  -1.35 expect dE=-0.958E-01 dE for cont linesearch -0.529E-08
 trial: gam= 0.82751 g(F)=  0.712E-01 g(S)=  0.000E+00 ort = 0.422E-04 (trialstep = 0.302E+00)
 search vector abs. value=  0.381E+00
 bond charge predicted
       N       E                     dE             d eps       ncg     rms          rms(c)
DAV:   1    -0.657660974833E+03   -0.18374E-01   -0.20769E+00   600   0.190E+00    0.548E-01
DAV:   2    -0.657668105340E+03   -0.71305E-02   -0.67686E-02   888   0.449E-01    0.744E-01
DAV:   3    -0.657681361517E+03   -0.13256E-01   -0.80607E-02   900   0.361E-01    0.102E+00
DAV:   4    -0.657668478494E+03    0.12883E-01   -0.29536E-02   888   0.221E-01    0.550E-01
DAV:   5    -0.657666788324E+03    0.16902E-02   -0.24891E-03   756   0.628E-02    0.443E-01
DAV:   6    -0.657666653348E+03    0.13498E-03   -0.43249E-03   792   0.931E-02    0.463E-01
DAV:   7    -0.657665906615E+03    0.74673E-03   -0.23981E-03   804   0.672E-02    0.236E-01
DAV:   8    -0.657665589087E+03    0.31753E-03   -0.63820E-04   564   0.344E-02    0.130E-01
DAV:   9    -0.657665530066E+03    0.59022E-04   -0.32724E-04   384   0.247E-02
  29 F= -.67291969E+03 E0= -.67285701E+03  d E =-.185586E-01
 trial-energy change:   -0.018559  1 .order   -0.018749   -0.021498   -0.016000
 step:   1.1793(harm=  1.1793)  dis= 0.02252  next Energy=  -672.943158 (dE=-0.420E-01)
 bond charge predicted
       N       E                     dE             d eps       ncg     rms          rms(c)
DAV:   1    -0.657664205815E+03    0.13833E-02   -0.17598E+01   600   0.553E+00    0.159E+00
DAV:   2    -0.657715440886E+03   -0.51235E-01   -0.55633E-01   852   0.124E+00    0.176E+00
DAV:   3    -0.657795532695E+03   -0.80092E-01   -0.58866E-01   900   0.995E-01    0.237E+00
DAV:   4    -0.657727581638E+03    0.67951E-01   -0.28664E-01   924   0.617E-01    0.135E+00
DAV:   5    -0.657715760017E+03    0.11822E-01   -0.89099E-02   936   0.208E-01    0.117E+00
DAV:   6    -0.657707111922E+03    0.86481E-02   -0.42525E-02   900   0.266E-01    0.880E-01
DAV:   7    -0.657706474437E+03    0.63748E-03   -0.58494E-02   804   0.186E-01    0.696E-01
DAV:   8    -0.657702643878E+03    0.38306E-02   -0.86605E-03   828   0.141E-01    0.236E-01
DAV:   9    -0.657702454428E+03    0.18945E-03   -0.19189E-03   828   0.592E-02    0.405E-01
DAV:  10    -0.657701774930E+03    0.67950E-03   -0.57491E-04   480   0.333E-02    0.126E-01
DAV:  11    -0.657701714398E+03    0.60532E-04   -0.48600E-04   528   0.289E-02
  30 F= -.67294321E+03 E0= -.67288137E+03  d E =-.420854E-01
 curvature:  -3.15 expect dE=-0.288E+00 dE for cont linesearch -0.353E-05
 trial: gam= 1.24547 g(F)=  0.914E-01 g(S)=  0.000E+00 ort = 0.654E-03 (trialstep = 0.266E+00)
 search vector abs. value=  0.684E+00
 bond charge predicted
       N       E                     dE             d eps       ncg     rms          rms(c)
DAV:   1    -0.657717544030E+03   -0.15769E-01   -0.30873E+00   600   0.225E+00    0.606E-01
DAV:   2    -0.657725330520E+03   -0.77865E-02   -0.95335E-02   876   0.493E-01    0.420E-01
DAV:   3    -0.657733825244E+03   -0.84947E-02   -0.40955E-02   900   0.255E-01    0.913E-01
DAV:   4    -0.657724901285E+03    0.89240E-02   -0.30948E-02   900   0.208E-01    0.309E-01
DAV:   5    -0.657725630111E+03   -0.72883E-03   -0.74291E-03   792   0.671E-02    0.521E-01
DAV:   6    -0.657724440755E+03    0.11894E-02   -0.87728E-03   828   0.701E-02    0.211E-01
DAV:   7    -0.657724578331E+03   -0.13758E-03   -0.86177E-03   648   0.414E-02    0.323E-01
DAV:   8    -0.657724249117E+03    0.32921E-03   -0.64032E-03   504   0.343E-02    0.154E-01
DAV:   9    -0.657724130477E+03    0.11864E-03   -0.35741E-03   444   0.300E-02    0.174E-01
DAV:  10    -0.657724082324E+03    0.48153E-04   -0.21770E-03   384   0.224E-02    0.997E-02
DAV:  11    -0.657724034302E+03    0.48022E-04   -0.10271E-03   384   0.167E-02    0.985E-02
DAV:  12    -0.657724012823E+03    0.21479E-04   -0.57870E-04   372   0.112E-02
  31 F= -.67296130E+03 E0= -.67289808E+03  d E =-.180817E-01
 trial-energy change:   -0.018082  1 .order   -0.018306   -0.024506   -0.012106
 step:   0.5253(harm=  0.5253)  dis= 0.01595  next Energy=  -672.967429 (dE=-0.242E-01)
 bond charge predicted
       N       E                     dE             d eps       ncg     rms          rms(c)
DAV:   1    -0.657728133339E+03   -0.40990E-02   -0.29412E+00   600   0.220E+00    0.614E-01
DAV:   2    -0.657736353668E+03   -0.82203E-02   -0.10457E-01   864   0.478E-01    0.602E-01
DAV:   3    -0.657742038623E+03   -0.56850E-02   -0.58918E-02   900   0.192E-01    0.982E-01
DAV:   4    -0.657738241046E+03    0.37976E-02   -0.56211E-02   912   0.210E-01    0.805E-01
DAV:   5    -0.657737182016E+03    0.10590E-02   -0.23118E-02   804   0.131E-01    0.560E-01
DAV:   6    -0.657735735996E+03    0.14460E-02   -0.26002E-03   768   0.529E-02    0.441E-01
DAV:   7    -0.657734605244E+03    0.11308E-02   -0.25033E-03   768   0.631E-02    0.250E-01
DAV:   8    -0.657734394004E+03    0.21124E-03   -0.67073E-04   516   0.347E-02    0.177E-01
DAV:   9    -0.657734219030E+03    0.17497E-03   -0.27087E-04   408   0.269E-02    0.116E-01
DAV:  10    -0.657734138264E+03    0.80766E-04   -0.22728E-04   384   0.215E-02
  32 F= -.67296735E+03 E0= -.67290409E+03  d E =-.241358E-01
 curvature:  -1.95 expect dE=-0.156E+00 dE for cont linesearch -0.589E-06
 trial: gam= 0.88802 g(F)=  0.801E-01 g(S)=  0.000E+00 ort = 0.455E-03 (trialstep = 0.318E+00)
 search vector abs. value=  0.621E+00
 bond charge predicted
       N       E                     dE             d eps       ncg     rms          rms(c)
DAV:   1    -0.657748576629E+03   -0.14358E-01   -0.41608E+00   600   0.262E+00    0.763E-01
DAV:   2    -0.657759957513E+03   -0.11381E-01   -0.13290E-01   876   0.565E-01    0.573E-01
DAV:   3    -0.657797320553E+03   -0.37363E-01   -0.99881E-02   936   0.325E-01    0.387E+00
DAV:   4    -0.657769701292E+03    0.27619E-01   -0.80021E-02   912   0.276E-01    0.634E-01
DAV:   5    -0.657759780955E+03    0.99203E-02   -0.87489E-03   888   0.964E-02    0.568E-01
DAV:   6    -0.657758529378E+03    0.12516E-02   -0.55899E-03   708   0.550E-02    0.333E-01
DAV:   7    -0.657758471779E+03    0.57599E-04   -0.39777E-03   780   0.588E-02    0.394E-01
DAV:   8    -0.657757912554E+03    0.55922E-03   -0.20284E-03   672   0.496E-02    0.167E-01
DAV:   9    -0.657757754285E+03    0.15827E-03   -0.12081E-03   492   0.354E-02    0.217E-01
DAV:  10    -0.657757581837E+03    0.17245E-03   -0.80729E-04   420   0.202E-02    0.851E-02
DAV:  11    -0.657757563450E+03    0.18387E-04   -0.69561E-04   408   0.181E-02
  33 F= -.67298761E+03 E0= -.67292354E+03  d E =-.202644E-01
 trial-energy change:   -0.020264  1 .order   -0.020327   -0.025564   -0.015091
 step:   0.7755(harm=  0.7755)  dis= 0.02152  next Energy=  -672.998551 (dE=-0.312E-01)
 bond charge predicted
       N       E                     dE             d eps       ncg     rms          rms(c)
DAV:   1    -0.657754100819E+03    0.34810E-02   -0.86374E+00   600   0.378E+00    0.110E+00
DAV:   2    -0.657780462233E+03   -0.26361E-01   -0.27916E-01   864   0.835E-01    0.920E-01
DAV:   3    -0.657910202573E+03   -0.12974E+00   -0.95280E-01   936   0.589E-01    0.742E+00
DAV:   4    -0.657818393466E+03    0.91809E-01   -0.13767E+00   924   0.454E-01    0.856E-01
DAV:   5    -0.657780310858E+03    0.38083E-01   -0.38329E-02   948   0.182E-01    0.102E+00
DAV:   6    -0.657776113569E+03    0.41973E-02   -0.19154E-02   840   0.923E-02    0.535E-01
DAV:   7    -0.657775543110E+03    0.57046E-03   -0.88215E-03   864   0.898E-02    0.683E-01
DAV:   8    -0.657773981123E+03    0.15620E-02   -0.51392E-03   732   0.625E-02    0.291E-01
DAV:   9    -0.657773783787E+03    0.19734E-03   -0.57951E-03   708   0.474E-02    0.458E-01
DAV:  10    -0.657773066206E+03    0.71758E-03   -0.38820E-03   456   0.310E-02    0.179E-01
DAV:  11    -0.657773030959E+03    0.35246E-04   -0.22523E-03   468   0.275E-02    0.291E-01
DAV:  12    -0.657772764648E+03    0.26631E-03   -0.10450E-03   420   0.185E-02    0.121E-01
DAV:  13    -0.657772788160E+03   -0.23512E-04   -0.64910E-04   396   0.159E-02
  34 F= -.67299836E+03 E0= -.67293370E+03  d E =-.310093E-01
 curvature:  -2.99 expect dE=-0.213E+00 dE for cont linesearch -0.180E-06
 trial: gam= 0.86596 g(F)=  0.714E-01 g(S)=  0.000E+00 ort =-0.193E-03 (trialstep = 0.409E+00)
 search vector abs. value=  0.536E+00
 bond charge predicted
       N       E                     dE             d eps       ncg     rms          rms(c)
DAV:   1    -0.657783483663E+03   -0.10719E-01   -0.57633E+00   600   0.305E+00    0.996E-01
DAV:   2    -0.657809076521E+03   -0.25593E-01   -0.21668E-01   876   0.755E-01    0.115E+00
DAV:   3    -0.657890123592E+03   -0.81047E-01   -0.44985E-01   924   0.577E-01    0.614E+00
DAV:   4    -0.657832790544E+03    0.57333E-01   -0.50951E-01   912   0.430E-01    0.778E-01
DAV:   5    -0.657803526349E+03    0.29264E-01   -0.53768E-02   900   0.162E-01    0.100E+00
DAV:   6    -0.657799888302E+03    0.36380E-02   -0.37590E-02   780   0.713E-02    0.463E-01
DAV:   7    -0.657799348513E+03    0.53979E-03   -0.30612E-02   792   0.904E-02    0.732E-01
DAV:   8    -0.657798068406E+03    0.12801E-02   -0.21637E-02   720   0.574E-02    0.381E-01
DAV:   9    -0.657797917656E+03    0.15075E-03   -0.95636E-03   648   0.468E-02    0.550E-01
DAV:  10    -0.657797203684E+03    0.71397E-03   -0.64004E-03   468   0.331E-02    0.304E-01
DAV:  11    -0.657797104466E+03    0.99217E-04   -0.27442E-03   408   0.275E-02    0.357E-01
DAV:  12    -0.657796882230E+03    0.22224E-03   -0.21656E-03   384   0.200E-02    0.253E-01
DAV:  13    -0.657796750473E+03    0.13176E-03   -0.77979E-04   420   0.171E-02    0.220E-01
DAV:  14    -0.657796695398E+03    0.55075E-04   -0.66699E-04   384   0.131E-02
  35 F= -.67301955E+03 E0= -.67295480E+03  d E =-.211910E-01
 trial-energy change:   -0.021191  1 .order   -0.021470   -0.029137   -0.013803
 step:   0.7776(harm=  0.7776)  dis= 0.02243  next Energy=  -673.026042 (dE=-0.277E-01)
 bond charge predicted
       N       E                     dE             d eps       ncg     rms          rms(c)
DAV:   1    -0.657794478056E+03    0.22724E-02   -0.46638E+00   600   0.274E+00    0.915E-01
DAV:   2    -0.657818737059E+03   -0.24259E-01   -0.18364E-01   876   0.689E-01    0.121E+00
DAV:   3    -0.657875568664E+03   -0.56832E-01   -0.28991E-01   924   0.543E-01    0.527E+00
DAV:   4    -0.657834452919E+03    0.41116E-01   -0.21904E-01   912   0.396E-01    0.776E-01
DAV:   5    -0.657810473929E+03    0.23979E-01   -0.28478E-02   876   0.147E-01    0.873E-01
DAV:   6    -0.657807743080E+03    0.27308E-02   -0.15555E-02   756   0.636E-02    0.440E-01
DAV:   7    -0.657807383869E+03    0.35921E-03   -0.17993E-02   792   0.968E-02    0.704E-01
DAV:   8    -0.657806263492E+03    0.11204E-02   -0.12516E-02   684   0.499E-02    0.377E-01
DAV:   9    -0.657806175759E+03    0.87733E-04   -0.63518E-03   564   0.400E-02    0.528E-01
DAV:  10    -0.657805569024E+03    0.60674E-03   -0.43818E-03   432   0.307E-02    0.310E-01
DAV:  11    -0.657805483859E+03    0.85165E-04   -0.19609E-03   408   0.265E-02    0.356E-01
DAV:  12    -0.657805267329E+03    0.21653E-03   -0.15140E-03   384   0.187E-02    0.255E-01
DAV:  13    -0.657805181395E+03    0.85935E-04   -0.65304E-04   396   0.160E-02
  36 F= -.67302564E+03 E0= -.67296034E+03  d E =-.272766E-01
 curvature:  -2.93 expect dE=-0.203E+00 dE for cont linesearch -0.196E-05
 trial: gam= 0.95033 g(F)=  0.693E-01 g(S)=  0.000E+00 ort = 0.599E-03 (trialstep = 0.467E+00)
 search vector abs. value=  0.555E+00
 bond charge predicted
       N       E                     dE             d eps       ncg     rms          rms(c)
DAV:   1    -0.657808905869E+03   -0.36385E-02   -0.77742E+00   600   0.358E+00    0.117E+00
DAV:   2    -0.657856854058E+03   -0.47948E-01   -0.37792E-01   876   0.934E-01    0.183E+00
DAV:   3    -0.657877765419E+03   -0.20911E-01   -0.51059E-01   936   0.640E-01    0.416E+00
DAV:   4    -0.657857199271E+03    0.20566E-01   -0.29797E-01   936   0.449E-01    0.106E+00
DAV:   5    -0.657837401693E+03    0.19798E-01   -0.59827E-02   888   0.146E-01    0.115E+00
DAV:   6    -0.657831382575E+03    0.60191E-02   -0.45562E-02   792   0.885E-02    0.697E-01
DAV:   7    -0.657829506573E+03    0.18760E-02   -0.41505E-02   912   0.188E-01    0.983E-01
DAV:   8    -0.657826325411E+03    0.31812E-02   -0.31500E-02   744   0.835E-02    0.288E-01
DAV:   9    -0.657826267661E+03    0.57750E-04   -0.17205E-02   840   0.666E-02    0.562E-01
DAV:  10    -0.657825496059E+03    0.77160E-03   -0.12623E-02   624   0.423E-02    0.305E-01
DAV:  11    -0.657825258805E+03    0.23725E-03   -0.64293E-03   456   0.371E-02    0.330E-01
DAV:  12    -0.657824995159E+03    0.26365E-03   -0.48143E-03   444   0.282E-02    0.226E-01
DAV:  13    -0.657824855274E+03    0.13988E-03   -0.24619E-03   408   0.201E-02    0.179E-01
DAV:  14    -0.657824807538E+03    0.47736E-04   -0.16307E-03   384   0.172E-02    0.159E-01
DAV:  15    -0.657824733637E+03    0.73901E-04   -0.69151E-04   384   0.141E-02
  37 F= -.67304228E+03 E0= -.67297779E+03  d E =-.166469E-01
 trial-energy change:   -0.016647  1 .order   -0.017056   -0.032607   -0.001505
 step:   0.4915(harm=  0.4895)  dis= 0.01333  next Energy=  -673.042322 (dE=-0.167E-01)
 bond charge predicted
       N       E                     dE             d eps       ncg     rms          rms(c)
DAV:   1    -0.657824892327E+03   -0.84789E-04   -0.22124E-02   600   0.189E-01    0.139E-01
DAV:   2    -0.657825621715E+03   -0.72939E-03   -0.58410E-03   840   0.625E-02    0.369E-01
DAV:   3    -0.657826552451E+03   -0.93074E-03   -0.10487E-02   720   0.767E-02    0.578E-01
DAV:   4    -0.657825279364E+03    0.12731E-02   -0.44021E-03   516   0.542E-02    0.145E-01
DAV:   5    -0.657825071977E+03    0.20739E-03   -0.95280E-04   396   0.194E-02    0.157E-01
DAV:   6    -0.657824941041E+03    0.13094E-03   -0.39998E-04   384   0.162E-02    0.399E-02
DAV:   7    -0.657824965967E+03   -0.24926E-04   -0.16102E-04   384   0.115E-02
  38 F= -.67304236E+03 E0= -.67297775E+03  d E =-.167273E-01
 curvature:  -1.93 expect dE=-0.996E-01 dE for cont linesearch -0.482E-05
 trial: gam= 0.73989 g(F)=  0.516E-01 g(S)=  0.000E+00 ort = 0.118E-02 (trialstep = 0.472E+00)
 search vector abs. value=  0.357E+00
 bond charge predicted
       N       E                     dE             d eps       ncg     rms          rms(c)
DAV:   1    -0.657835418124E+03   -0.10477E-01   -0.54012E+00   600   0.299E+00    0.773E-01
DAV:   2    -0.657847378914E+03   -0.11961E-01   -0.15517E-01   864   0.622E-01    0.450E-01
DAV:   3    -0.657848704861E+03   -0.13259E-02   -0.19932E-02   888   0.156E-01    0.661E-01
DAV:   4    -0.657849538099E+03   -0.83324E-03   -0.30080E-02   900   0.164E-01    0.956E-01
DAV:   5    -0.657848370146E+03    0.11680E-02   -0.14760E-02   840   0.140E-01    0.540E-01
DAV:   6    -0.657846886276E+03    0.14839E-02   -0.20848E-03   804   0.572E-02    0.400E-01
DAV:   7    -0.657846076683E+03    0.80959E-03   -0.11111E-03   672   0.431E-02    0.249E-01
DAV:   8    -0.657845922294E+03    0.15439E-03   -0.53600E-04   564   0.293E-02    0.175E-01
DAV:   9    -0.657845763234E+03    0.15906E-03   -0.28123E-04   468   0.287E-02    0.121E-01
DAV:  10    -0.657845695006E+03    0.68228E-04   -0.17188E-04   432   0.216E-02
  39 F= -.67305981E+03 E0= -.67299546E+03  d E =-.174469E-01
 trial-energy change:   -0.017447  1 .order   -0.017532   -0.024775   -0.010288
 step:   0.8069(harm=  0.8069)  dis= 0.01788  next Energy=  -673.063548 (dE=-0.212E-01)
 bond charge predicted
       N       E                     dE             d eps       ncg     rms          rms(c)
DAV:   1    -0.657846661395E+03   -0.89816E-03   -0.27287E+00   600   0.212E+00    0.555E-01
DAV:   2    -0.657853861992E+03   -0.72006E-02   -0.81007E-02   864   0.454E-01    0.587E-01
DAV:   3    -0.657867941613E+03   -0.14080E-01   -0.62174E-02   900   0.305E-01    0.110E+00
DAV:   4    -0.657853664105E+03    0.14278E-01   -0.38208E-02   900   0.228E-01    0.413E-01
DAV:   5    -0.657852769763E+03    0.89434E-03   -0.39475E-03   744   0.561E-02    0.336E-01
DAV:   6    -0.657853435214E+03   -0.66545E-03   -0.41820E-03   792   0.681E-02    0.554E-01
DAV:   7    -0.657852839649E+03    0.59556E-03   -0.54340E-03   840   0.833E-02    0.361E-01
DAV:   8    -0.657852148398E+03    0.69125E-03   -0.23099E-03   624   0.370E-02    0.775E-02
DAV:   9    -0.657852081108E+03    0.67290E-04   -0.13456E-03   444   0.241E-02    0.173E-01
DAV:  10    -0.657851945419E+03    0.13569E-03   -0.75933E-04   420   0.166E-02    0.518E-02
DAV:  11    -0.657851948299E+03   -0.28798E-05   -0.41161E-04   420   0.141E-02
  40 F= -.67306374E+03 E0= -.67299958E+03  d E =-.213737E-01
 curvature:  -2.74 expect dE=-0.101E+00 dE for cont linesearch -0.761E-05
 trial: gam= 0.68322 g(F)=  0.370E-01 g(S)=  0.000E+00 ort = 0.996E-03 (trialstep = 0.539E+00)
 search vector abs. value=  0.205E+00
 bond charge predicted
       N       E                     dE             d eps       ncg     rms          rms(c)
DAV:   1    -0.657862403694E+03   -0.10458E-01   -0.39594E+00   600   0.250E+00    0.685E-01
DAV:   2    -0.657883093094E+03   -0.20689E-01   -0.13909E-01   864   0.606E-01    0.191E+00
DAV:   3    -0.657888813053E+03   -0.57200E-02   -0.99005E-02   912   0.376E-01    0.106E+00
DAV:   4    -0.657877509193E+03    0.11304E-01   -0.16346E-02   900   0.160E-01    0.799E-01
DAV:   5    -0.657874009913E+03    0.34993E-02   -0.37144E-03   852   0.798E-02    0.635E-01
DAV:   6    -0.657872053218E+03    0.19567E-02   -0.74036E-03   900   0.129E-01    0.473E-01
DAV:   7    -0.657871482073E+03    0.57115E-03   -0.26390E-03   792   0.700E-02    0.319E-01
DAV:   8    -0.657871030535E+03    0.45154E-03   -0.23545E-03   828   0.549E-02    0.281E-01
DAV:   9    -0.657870755851E+03    0.27468E-03   -0.19161E-03   456   0.278E-02    0.178E-01
DAV:  10    -0.657870603797E+03    0.15205E-03   -0.14112E-03   396   0.253E-02    0.117E-01
DAV:  11    -0.657870553271E+03    0.50527E-04   -0.83870E-04   384   0.195E-02
  41 F= -.67307747E+03 E0= -.67301344E+03  d E =-.137305E-01
 trial-energy change:   -0.013730  1 .order   -0.013573   -0.020276   -0.006871
 step:   0.8150(harm=  0.8150)  dis= 0.01403  next Energy=  -673.079071 (dE=-0.153E-01)
 bond charge predicted
       N       E                     dE             d eps       ncg     rms          rms(c)
DAV:   1    -0.657872665462E+03   -0.20617E-02   -0.10414E+00   600   0.128E+00    0.357E-01
DAV:   2    -0.657876950408E+03   -0.42849E-02   -0.38447E-02   888   0.306E-01    0.671E-01
DAV:   3    -0.657882263230E+03   -0.53128E-02   -0.35200E-02   912   0.211E-01    0.793E-01
DAV:   4    -0.657875620233E+03    0.66430E-02   -0.12390E-02   840   0.131E-01    0.293E-01
DAV:   5    -0.657875202283E+03    0.41795E-03   -0.11560E-03   708   0.389E-02    0.255E-01
DAV:   6    -0.657874981088E+03    0.22120E-03   -0.15715E-03   564   0.316E-02    0.153E-01
DAV:   7    -0.657875287685E+03   -0.30660E-03   -0.21224E-03   612   0.393E-02    0.286E-01
DAV:   8    -0.657874856592E+03    0.43109E-03   -0.20046E-03   516   0.378E-02    0.828E-02
DAV:   9    -0.657874881555E+03   -0.24963E-04   -0.13533E-03   384   0.202E-02    0.126E-01
DAV:  10    -0.657874812478E+03    0.69077E-04   -0.82407E-04   384   0.150E-02
  42 F= -.67307925E+03 E0= -.67301494E+03  d E =-.155098E-01
 curvature:  -2.22 expect dE=-0.134E+00 dE for cont linesearch -0.888E-06
 trial: gam= 1.67303 g(F)=  0.602E-01 g(S)=  0.000E+00 ort = 0.286E-03 (trialstep = 0.192E+00)
 search vector abs. value=  0.635E+00
 bond charge predicted
       N       E                     dE             d eps       ncg     rms          rms(c)
DAV:   1    -0.657884344120E+03   -0.94626E-02   -0.14949E+00   600   0.157E+00    0.464E-01
DAV:   2    -0.657891440180E+03   -0.70961E-02   -0.53107E-02   900   0.391E-01    0.967E-01
DAV:   3    -0.657899058604E+03   -0.76184E-02   -0.52340E-02   912   0.276E-01    0.925E-01
DAV:   4    -0.657890106464E+03    0.89521E-02   -0.14697E-02   888   0.144E-01    0.514E-01
DAV:   5    -0.657888632468E+03    0.14740E-02   -0.19773E-03   732   0.498E-02    0.390E-01
DAV:   6    -0.657888418685E+03    0.21378E-03   -0.32596E-03   792   0.795E-02    0.391E-01
DAV:   7    -0.657887911936E+03    0.50675E-03   -0.13971E-03   720   0.515E-02    0.202E-01
DAV:   8    -0.657887650112E+03    0.26182E-03   -0.39934E-04   528   0.292E-02    0.938E-02
DAV:   9    -0.657887644381E+03    0.57303E-05   -0.16802E-04   384   0.210E-02
  43 F= -.67308894E+03 E0= -.67302514E+03  d E =-.969481E-02
 trial-energy change:   -0.009695  1 .order   -0.009735   -0.011637   -0.007833
 step:   0.5867(harm=  0.5867)  dis= 0.01769  next Energy=  -673.097046 (dE=-0.178E-01)
 bond charge predicted
       N       E                     dE             d eps       ncg     rms          rms(c)
DAV:   1    -0.657888351163E+03   -0.70105E-03   -0.63410E+00   600   0.323E+00    0.954E-01
DAV:   2    -0.657914628905E+03   -0.26278E-01   -0.23613E-01   852   0.769E-01    0.184E+00
DAV:   3    -0.657940380562E+03   -0.25752E-01   -0.23714E-01   912   0.562E-01    0.149E+00
DAV:   4    -0.657915261264E+03    0.25119E-01   -0.72153E-02   936   0.302E-01    0.100E+00
DAV:   5    -0.657908749526E+03    0.65117E-02   -0.24463E-02   876   0.124E-01    0.831E-01
DAV:   6    -0.657903816771E+03    0.49328E-02   -0.18007E-02   936   0.150E-01    0.458E-01
DAV:   7    -0.657903599728E+03    0.21704E-03   -0.12781E-02   828   0.923E-02    0.438E-01
DAV:   8    -0.657902760083E+03    0.83965E-03   -0.59862E-03   912   0.870E-02    0.356E-01
DAV:   9    -0.657902256407E+03    0.50368E-03   -0.11335E-03   648   0.470E-02    0.252E-01
DAV:  10    -0.657902114206E+03    0.14220E-03   -0.66198E-04   408   0.296E-02    0.199E-01
DAV:  11    -0.657901960024E+03    0.15418E-03   -0.51790E-04   432   0.243E-02    0.131E-01
DAV:  12    -0.657901866509E+03    0.93515E-04   -0.41232E-04   408   0.176E-02
  44 F= -.67309676E+03 E0= -.67303272E+03  d E =-.175163E-01
 curvature:  -3.07 expect dE=-0.919E-01 dE for cont linesearch -0.151E-05
 trial: gam= 0.47301 g(F)=  0.299E-01 g(S)=  0.000E+00 ort =-0.559E-03 (trialstep = 0.271E+00)
 search vector abs. value=  0.171E+00
 bond charge predicted
       N       E                     dE             d eps       ncg     rms          rms(c)
DAV:   1    -0.657908178790E+03   -0.62188E-02   -0.78513E-01   600   0.108E+00    0.347E-01
DAV:   2    -0.657910434838E+03   -0.22560E-02   -0.26852E-02   888   0.254E-01    0.222E-01
DAV:   3    -0.657911266321E+03   -0.83148E-03   -0.30057E-03   828   0.731E-02    0.439E-01
DAV:   4    -0.657911112485E+03    0.15384E-03   -0.53451E-03   720   0.823E-02    0.435E-01
DAV:   5    -0.657910649510E+03    0.46298E-03   -0.26215E-03   672   0.612E-02    0.262E-01
DAV:   6    -0.657910220564E+03    0.42895E-03   -0.71383E-04   600   0.338E-02    0.140E-01
DAV:   7    -0.657910152295E+03    0.68269E-04   -0.61234E-04   504   0.203E-02
  45 F= -.67310358E+03 E0= -.67304003E+03  d E =-.681351E-02
 trial-energy change:   -0.006814  1 .order   -0.006814   -0.008030   -0.005597
 step:   0.8938(harm=  0.8938)  dis= 0.01219  next Energy=  -673.110016 (dE=-0.133E-01)
 bond charge predicted
       N       E                     dE             d eps       ncg     rms          rms(c)
DAV:   1    -0.657909517920E+03    0.70264E-03   -0.41487E+00   600   0.249E+00    0.808E-01
DAV:   2    -0.657923945146E+03   -0.14427E-01   -0.15347E-01   888   0.590E-01    0.947E-01
DAV:   3    -0.657947643504E+03   -0.23698E-01   -0.15598E-01   912   0.444E-01    0.132E+00
DAV:   4    -0.657922778229E+03    0.24865E-01   -0.92254E-02   924   0.326E-01    0.621E-01
DAV:   5    -0.657920805301E+03    0.19729E-02   -0.25539E-02   792   0.828E-02    0.485E-01
DAV:   6    -0.657920232028E+03    0.57327E-03   -0.21913E-02   852   0.679E-02    0.364E-01
DAV:   7    -0.657919970821E+03    0.26121E-03   -0.17777E-02   816   0.705E-02    0.341E-01
DAV:   8    -0.657919599715E+03    0.37111E-03   -0.10154E-02   756   0.443E-02    0.148E-01
DAV:   9    -0.657919609694E+03   -0.99789E-05   -0.58305E-03   492   0.349E-02    0.260E-01
DAV:  10    -0.657919322583E+03    0.28711E-03   -0.26965E-03   456   0.261E-02    0.613E-02
DAV:  11    -0.657919288229E+03    0.34353E-04   -0.12746E-03   408   0.163E-02    0.128E-01
DAV:  12    -0.657919250480E+03    0.37750E-04   -0.76082E-04   360   0.125E-02
  46 F= -.67310932E+03 E0= -.67304527E+03  d E =-.125554E-01
 curvature:  -2.58 expect dE=-0.120E+00 dE for cont linesearch -0.562E-04
 trial: gam= 1.59517 g(F)=  0.464E-01 g(S)=  0.000E+00 ort =-0.193E-02 (trialstep = 0.142E+00)
 search vector abs. value=  0.477E+00
 bond charge predicted
       N       E                     dE             d eps       ncg     rms          rms(c)
DAV:   1    -0.657924448515E+03   -0.51603E-02   -0.57058E-01   600   0.896E-01    0.292E-01
DAV:   2    -0.657926092285E+03   -0.16438E-02   -0.19546E-02   900   0.203E-01    0.261E-01
DAV:   3    -0.657926606388E+03   -0.51410E-03   -0.90037E-03   792   0.591E-02    0.382E-01
DAV:   4    -0.657926895122E+03   -0.28873E-03   -0.10883E-02   756   0.821E-02    0.486E-01
DAV:   5    -0.657925985713E+03    0.90941E-03   -0.41942E-03   672   0.613E-02    0.184E-01
DAV:   6    -0.657925840844E+03    0.14487E-03   -0.24292E-03   492   0.236E-02    0.178E-01
DAV:   7    -0.657925762053E+03    0.78791E-04   -0.23105E-03   480   0.226E-02    0.903E-02
DAV:   8    -0.657925753596E+03    0.84573E-05   -0.14228E-03   360   0.186E-02    0.117E-01
DAV:   9    -0.657925708420E+03    0.45176E-04   -0.93373E-04   348   0.146E-02
  47 F= -.67311487E+03 E0= -.67305063E+03  d E =-.555337E-02
 ZBRENT: can't locate minimum, use default step
 trial-energy change:   -0.005553  1 .order   -0.005545   -0.006163   -0.004928
 step:   0.5690(harm=  0.7096)  dis= 0.01160  next Energy=  -673.124689 (dE=-0.154E-01)
 bond charge predicted
       N       E                     dE             d eps       ncg     rms          rms(c)
DAV:   1    -0.657925786075E+03   -0.32479E-04   -0.51249E+00   600   0.269E+00    0.873E-01
DAV:   2    -0.657941235491E+03   -0.15449E-01   -0.16828E-01   852   0.609E-01    0.837E-01
DAV:   3    -0.657996811474E+03   -0.55576E-01   -0.16766E-01   948   0.354E-01    0.486E+00
DAV:   4    -0.657960408969E+03    0.36403E-01   -0.13175E-01   924   0.320E-01    0.755E-01
DAV:   5    -0.657941776625E+03    0.18632E-01   -0.16010E-02   900   0.123E-01    0.861E-01
DAV:   6    -0.657938689064E+03    0.30876E-02   -0.80621E-03   720   0.660E-02    0.412E-01
DAV:   7    -0.657938792983E+03   -0.10392E-03   -0.17779E-02   804   0.782E-02    0.613E-01
DAV:   8    -0.657937437604E+03    0.13554E-02   -0.14650E-02   732   0.535E-02    0.208E-01
DAV:   9    -0.657937438854E+03   -0.12506E-05   -0.76605E-03   588   0.427E-02    0.394E-01
DAV:  10    -0.657937009129E+03    0.42973E-03   -0.57762E-03   432   0.299E-02    0.183E-01
DAV:  11    -0.657936916380E+03    0.92749E-04   -0.25126E-03   408   0.229E-02    0.226E-01
DAV:  12    -0.657936823579E+03    0.92801E-04   -0.19019E-03   384   0.159E-02    0.158E-01
DAV:  13    -0.657936761778E+03    0.61801E-04   -0.66048E-04   384   0.142E-02
  48 F= -.67312325E+03 E0= -.67305816E+03  d E =-.139363E-01
 curvature:  -3.66 expect dE=-0.160E+00 dE for cont linesearch -0.227E-03
 trial: gam= 0.71608 g(F)=  0.437E-01 g(S)=  0.000E+00 ort = 0.544E-02 (trialstep = 0.228E+00)
 search vector abs. value=  0.296E+00
 bond charge predicted
       N       E                     dE             d eps       ncg     rms          rms(c)
DAV:   1    -0.657944493637E+03   -0.76701E-02   -0.96693E-01   600   0.123E+00    0.391E-01
DAV:   2    -0.657949803617E+03   -0.53100E-02   -0.32683E-02   864   0.281E-01    0.726E-01
DAV:   3    -0.657960814858E+03   -0.11011E-01   -0.39610E-02   912   0.227E-01    0.215E+00
DAV:   4    -0.657951526153E+03    0.92887E-02   -0.23508E-02   840   0.171E-01    0.483E-01
DAV:   5    -0.657947080518E+03    0.44456E-02   -0.27298E-03   756   0.651E-02    0.358E-01
DAV:   6    -0.657946396439E+03    0.68408E-03   -0.49265E-04   600   0.308E-02    0.129E-01
DAV:   7    -0.657946849924E+03   -0.45348E-03   -0.92542E-04   576   0.356E-02    0.379E-01
DAV:   8    -0.657946409598E+03    0.44033E-03   -0.72734E-04   396   0.270E-02    0.173E-01
DAV:   9    -0.657946351655E+03    0.57943E-04   -0.72902E-04   408   0.235E-02
  49 F= -.67313221E+03 E0= -.67306600E+03  d E =-.895298E-02
 trial-energy change:   -0.008953  1 .order   -0.009032   -0.010824   -0.007239
 step:   0.6872(harm=  0.6872)  dis= 0.01128  next Energy=  -673.139595 (dE=-0.163E-01)
 bond charge predicted
       N       E                     dE             d eps       ncg     rms          rms(c)
DAV:   1    -0.657946673049E+03   -0.26345E-03   -0.39367E+00   600   0.250E+00    0.749E-01
DAV:   2    -0.657968983812E+03   -0.22311E-01   -0.14754E-01   852   0.594E-01    0.123E+00
DAV:   3    -0.657988893814E+03   -0.19910E-01   -0.15563E-01   924   0.446E-01    0.353E+00
DAV:   4    -0.657971995342E+03    0.16898E-01   -0.81183E-02   900   0.314E-01    0.770E-01
DAV:   5    -0.657957593261E+03    0.14402E-01   -0.13707E-02   864   0.115E-01    0.715E-01
DAV:   6    -0.657955614049E+03    0.19792E-02   -0.65463E-03   720   0.521E-02    0.415E-01
DAV:   7    -0.657955261438E+03    0.35261E-03   -0.12494E-02   780   0.881E-02    0.577E-01
DAV:   8    -0.657954520754E+03    0.74068E-03   -0.87645E-03   648   0.434E-02    0.334E-01
DAV:   9    -0.657954128456E+03    0.39230E-03   -0.51836E-03   540   0.433E-02    0.324E-01
DAV:  10    -0.657953890046E+03    0.23841E-03   -0.34912E-03   396   0.237E-02    0.204E-01
DAV:  11    -0.657953789830E+03    0.10022E-03   -0.15448E-03   396   0.207E-02    0.198E-01
DAV:  12    -0.657953734315E+03    0.55515E-04   -0.11131E-03   384   0.144E-02    0.159E-01
DAV:  13    -0.657953667951E+03    0.66364E-04   -0.40022E-04   384   0.134E-02
  50 F= -.67313828E+03 E0= -.67307318E+03  d E =-.150282E-01
 curvature:  -2.14 expect dE=-0.500E-01 dE for cont linesearch -0.577E-04
 trial: gam= 0.79590 g(F)=  0.234E-01 g(S)=  0.000E+00 ort =-0.283E-02 (trialstep = 0.320E+00)
 search vector abs. value=  0.206E+00
 bond charge predicted
       N       E                     dE             d eps       ncg     rms          rms(c)
DAV:   1    -0.657956989816E+03   -0.32555E-02   -0.13075E+00   600   0.145E+00    0.425E-01
DAV:   2    -0.657960247789E+03   -0.32580E-02   -0.37694E-02   852   0.311E-01    0.333E-01
DAV:   3    -0.657964273789E+03   -0.40260E-02   -0.13187E-02   924   0.116E-01    0.110E+00
DAV:   4    -0.657962091155E+03    0.21826E-02   -0.15261E-02   804   0.124E-01    0.461E-01
DAV:   5    -0.657960031937E+03    0.20592E-02   -0.27733E-03   696   0.604E-02    0.266E-01
DAV:   6    -0.657959748332E+03    0.28360E-03   -0.43841E-04   564   0.273E-02    0.171E-01
[...]
DAV:   1    -0.658129484093E+03   -0.41399E-04   -0.19562E-03   588   0.540E-02    0.229E-02
DAV:   2    -0.658129538479E+03   -0.54385E-04   -0.48501E-04   384   0.147E-02
 219 F= -.67325971E+03 E0= -.67319635E+03  d E =-.577882E-04
 trial-energy change:   -0.000058  1 .order   -0.000057   -0.000070   -0.000043
 step:   0.4306(harm=  0.4306)  dis= 0.00093  next Energy=  -673.259745 (dE=-0.916E-04)
 bond charge predicted
       N       E                     dE             d eps       ncg     rms          rms(c)
DAV:   1    -0.658129596908E+03   -0.11282E-03   -0.46750E-03   612   0.863E-02    0.391E-02
DAV:   2    -0.658130089420E+03   -0.49251E-03   -0.12136E-03   576   0.400E-02    0.274E-01
DAV:   3    -0.658129627770E+03    0.46165E-03   -0.99297E-04   492   0.344E-02    0.497E-02
DAV:   4    -0.658129601895E+03    0.25875E-04   -0.10250E-04   336   0.918E-03
 220 F= -.67325969E+03 E0= -.67319609E+03  d E =-.374614E-04
 curvature:  -0.60 expect dE=-0.222E-03 dE for cont linesearch -0.153E-06
 trial: gam= 0.67328 g(F)=  0.369E-03 g(S)=  0.000E+00 ort = 0.174E-04 (trialstep = 0.218E+00)
 search vector abs. value=  0.931E-03
 bond charge predicted
       N       E                     dE             d eps       ncg     rms          rms(c)
DAV:   1    -0.658129713640E+03   -0.85870E-04   -0.29276E-03   576   0.633E-02    0.447E-02
DAV:   2    -0.658130506326E+03   -0.79269E-03   -0.15513E-03   540   0.439E-02    0.418E-01
DAV:   3    -0.658129821102E+03    0.68522E-03   -0.14554E-03   468   0.408E-02    0.965E-02
DAV:   4    -0.658129725777E+03    0.95325E-04   -0.12455E-04   348   0.110E-02
 221 F= -.67325975E+03 E0= -.67319571E+03  d E =-.623469E-04
 trial-energy change:   -0.000062  1 .order   -0.000056   -0.000083   -0.000029
 step:   0.3360(harm=  0.3360)  dis= 0.00069  next Energy=  -673.259754 (dE=-0.639E-04)
 bond charge predicted
       N       E                     dE             d eps       ncg     rms          rms(c)
DAV:   1    -0.658129763853E+03    0.57249E-04   -0.93584E-04   528   0.350E-02    0.497E-02
DAV:   2    -0.658129927019E+03   -0.16317E-03   -0.51533E-04   408   0.171E-02    0.189E-01
DAV:   3    -0.658129970930E+03   -0.43911E-04   -0.10358E-03   420   0.283E-02    0.178E-01
DAV:   4    -0.658129807745E+03    0.16319E-03   -0.38808E-04   384   0.201E-02    0.778E-02
DAV:   5    -0.658129775325E+03    0.32420E-04   -0.59518E-05   348   0.678E-03
 222 F= -.67325977E+03 E0= -.67319619E+03  d E =-.788011E-04
 curvature:  -0.41 expect dE=-0.952E-04 dE for cont linesearch -0.564E-05
 ZBRENT: increasing intervall
 opt :   0.5711  next Energy=  -673.259791 (dE=-0.101E-03)
 bond charge predicted
       N       E                     dE             d eps       ncg     rms          rms(c)
DAV:   1    -0.658129805928E+03    0.18169E-05   -0.31969E-03   576   0.677E-02    0.319E-02
DAV:   2    -0.658130041339E+03   -0.23541E-03   -0.54368E-04   480   0.280E-02    0.217E-01
DAV:   3    -0.658129844355E+03    0.19698E-03   -0.51579E-04   420   0.256E-02    0.681E-02
DAV:   4    -0.658129812031E+03    0.32324E-04   -0.42439E-05   324   0.756E-03
 223 F= -.67325974E+03 E0= -.67319586E+03  d E =-.493680E-04
 curvature:  -1.59 expect dE=-0.852E-03 dE for cont linesearch -0.411E-04
 ZBRENT: bracketing found
 ZBRENT: interpolating
 opt :   0.4351  next Energy=  -673.259775 (dE=-0.844E-04)
 bond charge predicted
       N       E                     dE             d eps       ncg     rms          rms(c)
DAV:   1    -0.658129780575E+03    0.63780E-04   -0.11398E-03   552   0.396E-02    0.284E-02
DAV:   2    -0.658129826959E+03   -0.46385E-04   -0.26923E-04   336   0.126E-02
 224 F= -.67325979E+03 E0= -.67319638E+03  d E =-.102543E-03
 curvature:  -0.22 expect dE=-0.768E-04 dE for cont linesearch -0.134E-06
 trial: gam= 1.00669 g(F)=  0.354E-03 g(S)=  0.000E+00 ort =-0.240E-04 (trialstep = 0.195E+00)
 search vector abs. value=  0.125E-02
 bond charge predicted
       N       E                     dE             d eps       ncg     rms          rms(c)
DAV:   1    -0.658129885887E+03   -0.10531E-03   -0.31958E-03   588   0.677E-02    0.737E-02
DAV:   2    -0.658132626232E+03   -0.27403E-02   -0.65896E-03   696   0.850E-02    0.552E-01
DAV:   3    -0.658129989602E+03    0.26366E-02   -0.55868E-03   672   0.816E-02    0.864E-02
DAV:   4    -0.658129890853E+03    0.98749E-04   -0.37593E-04   360   0.141E-02
 225 F= -.67325982E+03 E0= -.67319660E+03  d E =-.293339E-04
 trial-energy change:   -0.000029  1 .order   -0.000053   -0.000064   -0.000042
 step:   0.5709(harm=  0.5709)  dis= 0.00146  next Energy=  -673.259887 (dE=-0.942E-04)
 bond charge predicted
       N       E                     dE             d eps       ncg     rms          rms(c)
DAV:   1    -0.658129960539E+03    0.29064E-04   -0.10990E-02   600   0.127E-01    0.599E-02
DAV:   2    -0.658131045718E+03   -0.10852E-02   -0.20379E-03   624   0.576E-02    0.488E-01
DAV:   3    -0.658130120893E+03    0.92482E-03   -0.19659E-03   552   0.521E-02    0.130E-01
DAV:   4    -0.658129966921E+03    0.15397E-03   -0.12997E-04   324   0.137E-02    0.423E-02
DAV:   5    -0.658129964224E+03    0.26970E-05   -0.12325E-04   348   0.884E-03
 226 F= -.67325983E+03 E0= -.67319609E+03  d E =-.362711E-04
 curvature:  -1.08 expect dE=-0.348E-03 dE for cont linesearch -0.561E-08
 trial: gam= 0.66118 g(F)=  0.323E-03 g(S)=  0.000E+00 ort =-0.255E-05 (trialstep = 0.270E+00)
 search vector abs. value=  0.865E-03
 bond charge predicted
       N       E                     dE             d eps       ncg     rms          rms(c)
DAV:   1    -0.658129955920E+03    0.11002E-04   -0.40730E-03   576   0.731E-02    0.362E-02
DAV:   2    -0.658130054329E+03   -0.98409E-04   -0.63227E-04   468   0.212E-02
 227 F= -.67325998E+03 E0= -.67319507E+03  d E =-.154617E-03
 trial-energy change:   -0.000155  1 .order   -0.000065   -0.000087   -0.000044
 step:   0.5492(harm=  0.5492)  dis= 0.00126  next Energy=  -673.259917 (dE=-0.881E-04)
 bond charge predicted
       N       E                     dE             d eps       ncg     rms          rms(c)
DAV:   1    -0.658130006718E+03   -0.50798E-04   -0.51779E-03   612   0.810E-02    0.110E-01
DAV:   2    -0.658141723984E+03   -0.11717E-01   -0.16157E-02   816   0.129E-01    0.196E+00
DAV:   3    -0.658132826825E+03    0.88972E-02   -0.13427E-02   792   0.125E-01    0.297E-01
DAV:   4    -0.658130167738E+03    0.26591E-02   -0.15780E-03   600   0.429E-02    0.144E-01
DAV:   5    -0.658130023984E+03    0.14375E-03   -0.72926E-04   396   0.197E-02    0.102E-01
DAV:   6    -0.658129971342E+03    0.52643E-04   -0.30921E-04   360   0.123E-02
 228 F= -.67325997E+03 E0= -.67319605E+03  d E =-.138318E-03
 curvature:  -0.74 expect dE=-0.224E-03 dE for cont linesearch -0.815E-05
 ZBRENT: increasing intervall
 opt :   1.1071  next Energy=  -673.259986 (dE=-0.156E-03)
 bond charge predicted
       N       E                     dE             d eps       ncg     rms          rms(c)
DAV:   1    -0.658129750239E+03    0.27375E-03   -0.17020E-02   600   0.150E-01    0.664E-02
DAV:   2    -0.658129979478E+03   -0.22924E-03   -0.18484E-03   528   0.379E-02    0.210E-01
DAV:   3    -0.658129999784E+03   -0.20306E-04   -0.21805E-03   444   0.289E-02    0.179E-01
DAV:   4    -0.658129868416E+03    0.13137E-03   -0.99526E-04   408   0.252E-02    0.123E-01
DAV:   5    -0.658129801370E+03    0.67046E-04   -0.32037E-04   324   0.113E-02
 229 F= -.67325993E+03 E0= -.67319647E+03  d E =-.101935E-03
 curvature:  -1.63 expect dE=-0.169E-02 dE for cont linesearch -0.540E-04
 ZBRENT: bracketing found
 ZBRENT: interpolating
 opt :   0.7531  next Energy=  -673.259978 (dE=-0.148E-03)
 bond charge predicted
       N       E                     dE             d eps       ncg     rms          rms(c)
DAV:   1    -0.658129884018E+03   -0.15602E-04   -0.70550E-03   576   0.962E-02    0.513E-02
DAV:   2    -0.658130021575E+03   -0.13756E-03   -0.53872E-04   504   0.236E-02    0.160E-01
DAV:   3    -0.658129965246E+03    0.56328E-04   -0.55090E-04   360   0.144E-02
 230 F= -.67326001E+03 E0= -.67319485E+03  d E =-.181026E-03
 curvature:  -0.30 expect dE=-0.154E-03 dE for cont linesearch -0.323E-06
 trial: gam= 1.68741 g(F)=  0.514E-03 g(S)=  0.000E+00 ort =-0.305E-04 (trialstep = 0.110E+00)
 search vector abs. value=  0.288E-02
 bond charge predicted
       N       E                     dE             d eps       ncg     rms          rms(c)
DAV:   1    -0.658129913358E+03    0.10822E-03   -0.21343E-03   600   0.550E-02    0.921E-02
DAV:   2    -0.658133199933E+03   -0.32866E-02   -0.50602E-03   624   0.698E-02    0.934E-01
DAV:   3    -0.658130919760E+03    0.22802E-02   -0.64495E-03   648   0.832E-02    0.263E-01
DAV:   4    -0.658130170228E+03    0.74953E-03   -0.53255E-04   420   0.261E-02    0.204E-01
DAV:   5    -0.658129915917E+03    0.25431E-03   -0.13392E-04   384   0.158E-02    0.671E-02
DAV:   6    -0.658129922711E+03   -0.67944E-05   -0.11932E-04   360   0.115E-02
 231 F= -.67326003E+03 E0= -.67319572E+03  d E =-.241678E-04
 ZBRENT: can't locate minimum, use default step
 trial-energy change:   -0.000024  1 .order   -0.000046   -0.000051   -0.000041
 step:   0.4415(harm=  0.5773)  dis= 0.00184  next Energy=  -673.260144 (dE=-0.134E-03)
 bond charge predicted
       N       E                     dE             d eps       ncg     rms          rms(c)
DAV:   1    -0.658129710865E+03    0.20505E-03   -0.16481E-02   600   0.156E-01    0.538E-02
DAV:   2    -0.658129799613E+03   -0.88748E-04   -0.10114E-03   516   0.345E-02    0.118E-01
DAV:   3    -0.658129764751E+03    0.34862E-04   -0.92187E-04   324   0.133E-02
 232 F= -.67326008E+03 E0= -.67319648E+03  d E =-.664215E-04
 curvature:  -1.64 expect dE=-0.768E-03 dE for cont linesearch -0.723E-05
 ZBRENT: extrapolating
 opt :   0.5838  next Energy=  -673.260085 (dE=-0.744E-04)
 bond charge predicted
       N       E                     dE             d eps       ncg     rms          rms(c)
DAV:   1    -0.658129737618E+03    0.61995E-04   -0.36359E-03   600   0.694E-02    0.124E-01
DAV:   2    -0.658134883643E+03   -0.51460E-02   -0.13869E-02   804   0.119E-01    0.746E-01
DAV:   3    -0.658130188452E+03    0.46952E-02   -0.13320E-02   780   0.118E-01    0.194E-01
DAV:   4    -0.658129886363E+03    0.30209E-03   -0.11996E-03   468   0.252E-02    0.165E-01
DAV:   5    -0.658129759987E+03    0.12638E-03   -0.10964E-03   408   0.202E-02    0.925E-02
DAV:   6    -0.658129704835E+03    0.55151E-04   -0.55160E-04   360   0.153E-02
 233 F= -.67326010E+03 E0= -.67319615E+03  d E =-.925587E-04
 curvature:  -1.82 expect dE=-0.120E-02 dE for cont linesearch -0.114E-05
 trial: gam= 0.79741 g(F)=  0.659E-03 g(S)=  0.000E+00 ort = 0.425E-04 (trialstep = 0.205E+00)
 search vector abs. value=  0.255E-02
 bond charge predicted
       N       E                     dE             d eps       ncg     rms          rms(c)
DAV:   1    -0.658129689552E+03    0.70435E-04   -0.60693E-03   600   0.928E-02    0.546E-02
DAV:   2    -0.658129947506E+03   -0.25795E-03   -0.14781E-03   504   0.300E-02    0.227E-01
DAV:   3    -0.658129936661E+03    0.10845E-04   -0.19688E-03   456   0.338E-02    0.203E-01
DAV:   4    -0.658129758580E+03    0.17808E-03   -0.65707E-04   396   0.217E-02    0.945E-02
DAV:   5    -0.658129698487E+03    0.60094E-04   -0.18307E-04   348   0.892E-03
 234 F= -.67326017E+03 E0= -.67319613E+03  d E =-.697381E-04
 trial-energy change:   -0.000070  1 .order   -0.000103   -0.000142   -0.000063
 step:   0.3694(harm=  0.3694)  dis= 0.00124  next Energy=  -673.260231 (dE=-0.128E-03)
 bond charge predicted
       N       E                     dE             d eps       ncg     rms          rms(c)
DAV:   1    -0.658129657718E+03    0.10086E-03   -0.37176E-03   576   0.741E-02    0.458E-02
DAV:   2    -0.658129746154E+03   -0.88436E-04   -0.55379E-04   432   0.186E-02
 235 F= -.67326028E+03 E0= -.67319663E+03  d E =-.178479E-03
 curvature:  -0.68 expect dE=-0.458E-03 dE for cont linesearch -0.868E-06
 trial: gam= 1.11319 g(F)=  0.673E-03 g(S)=  0.000E+00 ort =-0.571E-04 (trialstep = 0.164E+00)
 search vector abs. value=  0.371E-02
 bond charge predicted
       N       E                     dE             d eps       ncg     rms          rms(c)
DAV:   1    -0.658129711231E+03   -0.53513E-04   -0.62368E-03   612   0.920E-02    0.841E-02
DAV:   2    -0.658132455420E+03   -0.27442E-02   -0.73372E-03   720   0.853E-02    0.557E-01
DAV:   3    -0.658129839613E+03    0.26158E-02   -0.68568E-03   696   0.851E-02    0.113E-01
DAV:   4    -0.658129716894E+03    0.12272E-03   -0.73299E-04   348   0.153E-02    0.934E-02
DAV:   5    -0.658129705507E+03    0.11387E-04   -0.65235E-04   348   0.122E-02
 236 F= -.67326030E+03 E0= -.67319667E+03  d E =-.144736E-04
 trial-energy change:   -0.000014  1 .order   -0.000078   -0.000100   -0.000057
 step:   0.3831(harm=  0.3831)  dis= 0.00153  next Energy=  -673.260398 (dE=-0.117E-03)
 bond charge predicted
       N       E                     dE             d eps       ncg     rms          rms(c)
DAV:   1    -0.658129616746E+03    0.10015E-03   -0.99725E-03   600   0.120E-01    0.628E-02
DAV:   2    -0.658130318649E+03   -0.70190E-03   -0.27005E-03   540   0.470E-02    0.328E-01
DAV:   3    -0.658129828574E+03    0.49007E-03   -0.30237E-03   540   0.516E-02    0.175E-01
DAV:   4    -0.658129666000E+03    0.16257E-03   -0.40474E-04   360   0.170E-02    0.768E-02
DAV:   5    -0.658129642423E+03    0.23576E-04   -0.22845E-04   348   0.934E-03
 237 F= -.67326031E+03 E0= -.67319648E+03  d E =-.253544E-04
 curvature:  -1.17 expect dE=-0.515E-03 dE for cont linesearch -0.548E-07
 trial: gam= 0.42454 g(F)=  0.441E-03 g(S)=  0.000E+00 ort =-0.132E-04 (trialstep = 0.208E+00)
 search vector abs. value=  0.110E-02
 bond charge predicted
       N       E                     dE             d eps       ncg     rms          rms(c)
DAV:   1    -0.658129672926E+03   -0.69260E-05   -0.29448E-03   576   0.647E-02    0.364E-02
DAV:   2    -0.658130082394E+03   -0.40947E-03   -0.90812E-04   552   0.359E-02    0.245E-01
DAV:   3    -0.658129701356E+03    0.38104E-03   -0.91337E-04   468   0.335E-02    0.656E-02
DAV:   4    -0.658129675156E+03    0.26199E-04   -0.84428E-05   324   0.834E-03
 238 F= -.67326034E+03 E0= -.67319674E+03  d E =-.349931E-04
 trial-energy change:   -0.000035  1 .order   -0.000064   -0.000090   -0.000038
 step:   0.3606(harm=  0.3606)  dis= 0.00071  next Energy=  -673.260385 (dE=-0.785E-04)
 bond charge predicted
       N       E                     dE             d eps       ncg     rms          rms(c)
DAV:   1    -0.658129689205E+03    0.12150E-04   -0.16279E-03   576   0.474E-02    0.389E-02
DAV:   2    -0.658129749160E+03   -0.59955E-04   -0.24277E-04   360   0.150E-02
 239 F= -.67326042E+03 E0= -.67319583E+03  d E =-.110703E-03
 curvature:  -0.46 expect dE=-0.247E-03 dE for cont linesearch -0.270E-07
 trial: gam= 1.10443 g(F)=  0.543E-03 g(S)=  0.000E+00 ort =-0.807E-05 (trialstep = 0.140E+00)
 search vector abs. value=  0.187E-02
 bond charge predicted
       N       E                     dE             d eps       ncg     rms          rms(c)
DAV:   1    -0.658129832684E+03   -0.14348E-03   -0.27228E-03   624   0.626E-02    0.110E-01
DAV:   2    -0.658141842390E+03   -0.12010E-01   -0.15848E-02   804   0.132E-01    0.198E+00
DAV:   3    -0.658132681108E+03    0.91613E-02   -0.13012E-02   780   0.126E-01    0.306E-01
DAV:   4    -0.658129975702E+03    0.27054E-02   -0.13192E-03   600   0.427E-02    0.122E-01
DAV:   5    -0.658129849493E+03    0.12621E-03   -0.31233E-04   396   0.190E-02    0.105E-01
DAV:   6    -0.658129793516E+03    0.55977E-04   -0.17354E-04   336   0.112E-02
 240 F= -.67326043E+03 E0= -.67319648E+03  d E =-.157655E-04
 trial-energy change:   -0.000016  1 .order   -0.000057   -0.000075   -0.000039
 step:   0.2910(harm=  0.2910)  dis= 0.00103  next Energy=  -673.260495 (dE=-0.777E-04)
 bond charge predicted
       N       E                     dE             d eps       ncg     rms          rms(c)
DAV:   1    -0.658129842162E+03    0.73308E-05   -0.26976E-03   576   0.612E-02    0.604E-02
DAV:   2    -0.658130008150E+03   -0.16599E-03   -0.72785E-04   420   0.159E-02    0.183E-01
DAV:   3    -0.658129897782E+03    0.11037E-03   -0.94135E-04   360   0.148E-02    0.833E-02
DAV:   4    -0.658129882255E+03    0.15527E-04   -0.53818E-04   372   0.134E-02
 241 F= -.67326049E+03 E0= -.67319661E+03  d E =-.738427E-04
 curvature:  -0.51 expect dE=-0.164E-03 dE for cont linesearch -0.281E-05
 ZBRENT: increasing intervall
 opt :   0.5925  next Energy=  -673.260469 (dE=-0.517E-04)
 bond charge predicted
       N       E                     dE             d eps       ncg     rms          rms(c)
DAV:   1    -0.658129881265E+03    0.16517E-04   -0.10775E-02   600   0.121E-01    0.550E-02
DAV:   2    -0.658130038772E+03   -0.15751E-03   -0.72778E-04   516   0.267E-02    0.176E-01
DAV:   3    -0.658129977050E+03    0.61722E-04   -0.73066E-04   360   0.174E-02
 242 F= -.67326052E+03 E0= -.67319802E+03  d E =-.107433E-03
 curvature:   4.00 expect dE= 0.439E-02 dE for cont linesearch  0.592E-04
 ZBRENT: bracketing found
 ZBRENT: interpolating
 opt :   0.4054  next Energy=  -673.260497 (dE=-0.797E-04)
 bond charge predicted
       N       E                     dE             d eps       ncg     rms          rms(c)
DAV:   1    -0.658129916499E+03    0.12227E-03   -0.43659E-03   588   0.782E-02    0.108E-01
DAV:   2    -0.658131825064E+03   -0.19086E-02   -0.34267E-03   600   0.580E-02    0.554E-01
DAV:   3    -0.658130843306E+03    0.98176E-03   -0.63878E-03   636   0.836E-02    0.397E-01
DAV:   4    -0.658130218923E+03    0.62438E-03   -0.12189E-03   444   0.349E-02    0.196E-01
DAV:   5    -0.658129955080E+03    0.26384E-03   -0.17848E-04   384   0.154E-02    0.901E-02
DAV:   6    -0.658129905937E+03    0.49144E-04   -0.81368E-05   360   0.125E-02
 243 F= -.67326049E+03 E0= -.67319701E+03  d E =-.742782E-04
 curvature:  -0.39 expect dE=-0.286E-03 dE for cont linesearch -0.820E-06
 trial: gam= 0.76482 g(F)=  0.728E-03 g(S)=  0.000E+00 ort = 0.624E-04 (trialstep = 0.188E+00)
 search vector abs. value=  0.191E-02
 bond charge predicted
       N       E                     dE             d eps       ncg     rms          rms(c)
DAV:   1    -0.658129998037E+03   -0.42957E-04   -0.53238E-03   576   0.812E-02    0.228E-02
DAV:   2    -0.658130033945E+03   -0.35908E-04   -0.17237E-04   444   0.181E-02
 244 F= -.67326054E+03 E0= -.67319672E+03  d E =-.489967E-04
 trial-energy change:   -0.000049  1 .order   -0.000098   -0.000146   -0.000049
 step:   0.2834(harm=  0.2834)  dis= 0.00078  next Energy=  -673.260602 (dE=-0.110E-03)
 bond charge predicted
       N       E                     dE             d eps       ncg     rms          rms(c)
DAV:   1    -0.658130046393E+03   -0.48355E-04   -0.14179E-03   528   0.422E-02    0.232E-02
DAV:   2    -0.658130049734E+03   -0.33410E-05   -0.54380E-05   336   0.120E-02
 245 F= -.67326052E+03 E0= -.67319665E+03  d E =-.249282E-04
 curvature:  -0.35 expect dE=-0.748E-04 dE for cont linesearch -0.198E-07
 trial: gam= 0.31181 g(F)=  0.214E-03 g(S)=  0.000E+00 ort =-0.104E-04 (trialstep = 0.207E+00)
 search vector abs. value=  0.394E-03
 bond charge predicted
       N       E                     dE             d eps       ncg     rms          rms(c)
DAV:   1    -0.658130095873E+03   -0.49480E-04   -0.13119E-03   468   0.402E-02    0.368E-02
DAV:   2    -0.658130584819E+03   -0.48895E-03   -0.11057E-03   492   0.349E-02    0.279E-01
DAV:   3    -0.658130158830E+03    0.42599E-03   -0.11296E-03   480   0.357E-02    0.777E-02
DAV:   4    -0.658130126730E+03    0.32099E-04   -0.91819E-05   348   0.908E-03
 246 F= -.67326059E+03 E0= -.67319699E+03  d E =-.693413E-04
 trial-energy change:   -0.000069  1 .order   -0.000037   -0.000044   -0.000030
 step:   0.6464(harm=  0.6464)  dis= 0.00088  next Energy=  -673.260585 (dE=-0.681E-04)
 reached required accuracy - stopping structural energy minimisation
