<?xml version="1.0" encoding="ISO-8859-1"?>
<modeling>
 <generator>
  <i name="program" type="string">vasp </i>
  <i name="version" type="string">5.4.1  </i>
  <i name="subversion" type="string">05Feb16 (build Apr 21 2017 13:36:42) gamma-only                       parallel </i>
  <i name="platform" type="string">IFC91_ompi </i>
  <i name="date" type="string">2020 09 15 </i>
  <i name="time" type="string">03:22:13 </i>
 </generator>
 <incar>
  <i type="string" name="SYSTEM"> basalPlane</i>
  <i type="int" name="ISTART">     0</i>
  <i type="string" name="PREC">accurate  !=accurate, max(enmax) no wra</i>
  <i type="string" name="ALGO"> Normal    !=Normal, blocked Davidson it</i>
  <i type="int" name="NSIM">     4</i>
  <i type="int" name="ISPIN">     1</i>
  <i type="int" name="ICHARG">     2</i>
  <i type="int" name="INIWAV">     1</i>
  <i type="int" name="NELM">   200</i>
  <i type="int" name="NELMDL">    -5</i>
  <i type="int" name="NELMIN">     2</i>
  <i type="int" name="IBRION">     2</i>
  <i name="EDIFF">      0.00010000</i>
  <i name="EDIFFG">     -0.02000000</i>
  <i type="int" name="NSW"> 10000</i>
  <i type="int" name="ISIF">     2</i>
  <i type="int" name="ISYM">     2</i>
  <i name="ENCUT">    400.00000000</i>
  <i name="ENAUG">    645.00000000</i>
  <i type="string" name="LREAL"> Auto     !=Auto projection operators ev</i>
  <i type="logical" name="LPLANE"> T  </i>
  <i type="int" name="ISMEAR">     0</i>
  <i name="SIGMA">      0.10000000</i>
  <i type="int" name="NWRITE">     2</i>
  <i type="logical" name="LWAVE"> F  </i>
  <i type="logical" name="LCHARG"> F  </i>
  <i type="logical" name="LORBIT"> F  </i>
  <i type="logical" name="LELF"> F  </i>
  <i type="logical" name="LSCALU"> F  </i>
  <v type="int" name="KPOINT_BSE">    -1     0     0     0</v>
  <i type="int" name="NELM">   200</i>
 </incar>
 <kpoints>
  <varray name="kpointlist" >
   <v>       0.00000000       0.00000000       0.00000000 </v>
  </varray>
  <varray name="weights" >
   <v>       1.00000000 </v>
  </varray>
 </kpoints>
 <parameters>
  <separator name="general" >
   <i type="string" name="SYSTEM">basalPlane</i>
   <i type="logical" name="LCOMPAT"> F  </i>
  </separator>
  <separator name="electronic" >
   <i type="string" name="PREC">accura</i>
   <i name="ENMAX">    400.00000000</i>
   <i name="ENAUG">    645.00000000</i>
   <i name="EDIFF">      0.00010000</i>
   <i type="int" name="IALGO">    38</i>
   <i type="int" name="IWAVPR">    11</i>
   <i type="int" name="NBANDS">   300</i>
   <i name="NELECT">    488.00000000</i>
   <i type="int" name="TURBO">     0</i>
   <i type="int" name="IRESTART">     0</i>
   <i type="int" name="NREBOOT">     0</i>
   <i type="int" name="NMIN">     0</i>
   <i name="EREF">      0.00000000</i>
   <separator name="electronic smearing" >
    <i type="int" name="ISMEAR">     0</i>
    <i name="SIGMA">      0.10000000</i>
    <i name="KSPACING">      0.50000000</i>
    <i type="logical" name="KGAMMA"> T  </i>
   </separator>
   <separator name="electronic projectors" >
    <i type="logical" name="LREAL"> T  </i>
    <v name="ROPT">     -0.00025000     -0.00025000     -0.00025000     -0.00025000     -0.00025000</v>
    <i type="int" name="LMAXPAW">  -100</i>
    <i type="int" name="LMAXMIX">     2</i>
    <i type="logical" name="NLSPLINE"> F  </i>
   </separator>
   <separator name="electronic startup" >
    <i type="int" name="ISTART">     0</i>
    <i type="int" name="ICHARG">     2</i>
    <i type="int" name="INIWAV">     1</i>
   </separator>
   <separator name="electronic spin" >
    <i type="int" name="ISPIN">     1</i>
    <i type="logical" name="LNONCOLLINEAR"> F  </i>
    <v name="MAGMOM">      1.00000000      1.00000000      1.00000000      1.00000000      1.00000000      1.00000000      1.00000000      1.00000000      1.00000000      1.00000000      1.00000000      1.00000000      1.00000000      1.00000000      1.00000000      1.00000000      1.00000000      1.00000000      1.00000000      1.00000000
      1.00000000      1.00000000      1.00000000      1.00000000      1.00000000      1.00000000      1.00000000      1.00000000      1.00000000      1.00000000      1.00000000      1.00000000      1.00000000      1.00000000      1.00000000      1.00000000      1.00000000      1.00000000      1.00000000      1.00000000
      1.00000000      1.00000000      1.00000000      1.00000000      1.00000000      1.00000000      1.00000000      1.00000000      1.00000000      1.00000000      1.00000000      1.00000000      1.00000000      1.00000000      1.00000000      1.00000000      1.00000000      1.00000000      1.00000000      1.00000000
      1.00000000      1.00000000      1.00000000      1.00000000      1.00000000      1.00000000      1.00000000      1.00000000      1.00000000      1.00000000      1.00000000      1.00000000      1.00000000      1.00000000      1.00000000      1.00000000      1.00000000      1.00000000      1.00000000      1.00000000
      1.00000000      1.00000000      1.00000000      1.00000000      1.00000000      1.00000000      1.00000000      1.00000000      1.00000000      1.00000000      1.00000000      1.00000000      1.00000000</v>
    <i name="NUPDOWN">     -1.00000000</i>
    <i type="logical" name="LSORBIT"> F  </i>
    <v name="SAXIS">      0.00000000      0.00000000      1.00000000</v>
    <i type="logical" name="LSPIRAL"> F  </i>
    <v name="QSPIRAL">      0.00000000      0.00000000      0.00000000</v>
    <i type="logical" name="LZEROZ"> F  </i>
   </separator>
   <separator name="electronic exchange-correlation" >
    <i type="logical" name="LASPH"> F  </i>
    <i type="logical" name="LMETAGGA"> F  </i>
   </separator>
   <separator name="electronic convergence" >
    <i type="int" name="NELM">   200</i>
    <i type="int" name="NELMDL">    -5</i>
    <i type="int" name="NELMIN">     2</i>
    <i name="ENINI">    400.00000000</i>
    <separator name="electronic convergence detail" >
     <i type="logical" name="LDIAG"> T  </i>
     <i type="logical" name="LSUBROT"> F  </i>
     <i name="WEIMIN">      0.00100000</i>
     <i name="EBREAK">      0.00000008</i>
     <i name="DEPER">      0.30000000</i>
     <i type="int" name="NRMM">     4</i>
     <i name="TIME">      0.40000000</i>
    </separator>
   </separator>
   <separator name="electronic mixer" >
    <i name="AMIX">      0.40000000</i>
    <i name="BMIX">      1.00000000</i>
    <i name="AMIN">      0.10000000</i>
    <i name="AMIX_MAG">      1.60000000</i>
    <i name="BMIX_MAG">      1.00000000</i>
    <separator name="electronic mixer details" >
     <i type="int" name="IMIX">     4</i>
     <i type="logical" name="MIXFIRST"> F  </i>
     <i type="int" name="MAXMIX">   -45</i>
     <i name="WC">    100.00000000</i>
     <i type="int" name="INIMIX">     1</i>
     <i type="int" name="MIXPRE">     1</i>
     <i type="int" name="MREMOVE">     5</i>
    </separator>
   </separator>
   <separator name="electronic dipolcorrection" >
    <i type="logical" name="LDIPOL"> F  </i>
    <i type="logical" name="LMONO"> F  </i>
    <i type="int" name="IDIPOL">     0</i>
    <i name="EPSILON">      1.00000000</i>
    <v name="DIPOL">   -100.00000000   -100.00000000   -100.00000000</v>
    <i name="EFIELD">      0.00000000</i>
   </separator>
  </separator>
  <separator name="grids" >
   <i type="int" name="NGX">    64</i>
   <i type="int" name="NGY">    84</i>
   <i type="int" name="NGZ">   240</i>
   <i type="int" name="NGXF">   128</i>
   <i type="int" name="NGYF">   168</i>
   <i type="int" name="NGZF">   480</i>
   <i type="logical" name="ADDGRID"> F  </i>
  </separator>
  <separator name="ionic" >
   <i type="int" name="NSW"> 10000</i>
   <i type="int" name="IBRION">     2</i>
   <i type="int" name="ISIF">     2</i>
   <i name="PSTRESS">      0.00000000</i>
   <i name="EDIFFG">     -0.02000000</i>
   <i type="int" name="NFREE">     1</i>
   <i name="POTIM">      0.50000000</i>
   <i name="SMASS">     -3.00000000</i>
   <i name="SCALEE">      1.00000000</i>
  </separator>
  <separator name="ionic md" >
   <i name="TEBEG">      0.00010000</i>
   <i name="TEEND">      0.00010000</i>
   <i type="int" name="NBLOCK">     1</i>
   <i type="int" name="KBLOCK"> 10000</i>
   <i type="int" name="NPACO">   256</i>
   <i name="APACO">     16.00000000</i>
  </separator>
  <separator name="symmetry" >
   <i type="int" name="ISYM">     2</i>
   <i name="SYMPREC">      0.00001000</i>
  </separator>
  <separator name="dos" >
   <i type="logical" name="LORBIT"> F  </i>
   <v name="RWIGS">     -1.00000000     -1.00000000     -1.00000000     -1.00000000     -1.00000000</v>
   <i type="int" name="NEDOS">   301</i>
   <i name="EMIN">     10.00000000</i>
   <i name="EMAX">    -10.00000000</i>
   <i name="EFERMI">      0.00000000</i>
  </separator>
  <separator name="writing" >
   <i type="int" name="NWRITE">     2</i>
   <i type="logical" name="LWAVE"> F  </i>
   <i type="logical" name="LCHARG"> F  </i>
   <i type="logical" name="LPARD"> F  </i>
   <i type="logical" name="LVTOT"> F  </i>
   <i type="logical" name="LVHAR"> F  </i>
   <i type="logical" name="LELF"> F  </i>
   <i type="logical" name="LOPTICS"> F  </i>
   <v name="STM">      0.00000000      0.00000000      0.00000000      0.00000000      0.00000000      0.00000000      0.00000000</v>
  </separator>
  <separator name="performance" >
   <i type="int" name="NPAR">    12</i>
   <i type="int" name="NSIM">     4</i>
   <i type="int" name="NBLK">    -1</i>
   <i type="logical" name="LPLANE"> T  </i>
   <i type="logical" name="LSCALAPACK"> T  </i>
   <i type="logical" name="LSCAAWARE"> F  </i>
   <i type="logical" name="LSCALU"> F  </i>
   <i type="logical" name="LASYNC"> F  </i>
   <i type="logical" name="LORBITALREAL"> F  </i>
  </separator>
  <separator name="miscellaneous" >
   <i type="int" name="IDIOT">     3</i>
   <i type="logical" name="LMUSIC"> F  </i>
   <v name="POMASS">     12.01100000     51.99600000      1.00000000     95.94000000     32.06600000</v>
   <v name="DARWINR">      0.00000000      0.00000000      0.00000000      0.00000000      0.00000000</v>
   <v name="DARWINV">      1.00000000      1.00000000      1.00000000      1.00000000      1.00000000</v>
   <i type="logical" name="LCORR"> T  </i>
  </separator>
  <i type="logical" name="GGA_COMPAT"> T  </i>
  <i type="logical" name="LBERRY"> F  </i>
  <i type="int" name="ICORELEVEL">     0</i>
  <i type="logical" name="LDAU"> F  </i>
  <i type="int" name="I_CONSTRAINED_M">     0</i>
  <separator name="electronic exchange-correlation" >
   <i type="string" name="GGA">--</i>
   <i type="int" name="VOSKOWN">     0</i>
   <i type="logical" name="LHFCALC"> F  </i>
   <i type="string" name="PRECFOCK"></i>
   <i type="logical" name="LSYMGRAD"> F  </i>
   <i type="logical" name="LHFONE"> F  </i>
   <i type="logical" name="LRHFCALC"> F  </i>
   <i type="logical" name="LTHOMAS"> F  </i>
   <i type="logical" name="LMODELHF"> F  </i>
   <i name="ENCUT4O">     -1.00000000</i>
   <i type="int" name="EXXOEP">     0</i>
   <i type="int" name="FOURORBIT">     0</i>
   <i name="AEXX">      0.00000000</i>
   <i name="HFALPHA">      0.00000000</i>
   <i name="MCALPHA">      0.00000000</i>
   <i name="ALDAX">      1.00000000</i>
   <i name="AGGAX">      1.00000000</i>
   <i name="ALDAC">      1.00000000</i>
   <i name="AGGAC">      1.00000000</i>
   <i type="int" name="NKREDX">     1</i>
   <i type="int" name="NKREDY">     1</i>
   <i type="int" name="NKREDZ">     1</i>
   <i type="logical" name="SHIFTRED"> F  </i>
   <i type="logical" name="ODDONLY"> F  </i>
   <i type="logical" name="EVENONLY"> F  </i>
   <i type="int" name="LMAXFOCK">     0</i>
   <i type="int" name="NMAXFOCKAE">     0</i>
   <i type="logical" name="LFOCKAEDFT"> F  </i>
   <i name="HFSCREEN">      0.00000000</i>
   <i name="HFSCREENC">      0.00000000</i>
   <i type="int" name="NBANDSGWLOW">     0</i>
  </separator>
  <separator name="vdW DFT" >
   <i type="logical" name="LUSE_VDW"> F  </i>
   <i name="Zab_VDW">     -0.84910000</i>
   <i name="PARAM1">      0.12340000</i>
   <i name="PARAM2">      1.00000000</i>
   <i name="PARAM3">      0.00000000</i>
  </separator>
  <separator name="model GW" >
   <i type="int" name="MODEL_GW">     0</i>
   <i name="MODEL_EPS0">     23.80275655</i>
   <i name="MODEL_ALPHA">      1.00000000</i>
  </separator>
  <separator name="linear response parameters" >
   <i type="logical" name="LEPSILON"> F  </i>
   <i type="logical" name="LRPA"> F  </i>
   <i type="logical" name="LNABLA"> F  </i>
   <i type="logical" name="LVEL"> F  </i>
   <i type="int" name="KINTER">     0</i>
   <i name="CSHIFT">      0.10000000</i>
   <i name="OMEGAMAX">     -1.00000000</i>
   <i name="DEG_THRESHOLD">      0.00200000</i>
  </separator>
  <separator name="orbital magnetization" >
   <i type="logical" name="NUCIND"> F  </i>
   <v name="MAGPOS">      0.00000000      0.00000000      0.00000000</v>
   <i type="logical" name="LNICSALL"> T  </i>
   <i type="logical" name="ORBITALMAG"> F  </i>
   <i type="logical" name="LMAGBLOCH"> F  </i>
   <i type="logical" name="LCHIMAG"> F  </i>
   <i type="logical" name="LGAUGE"> T  </i>
   <i type="int" name="MAGATOM">     0</i>
   <v name="MAGDIPOL">      0.00000000      0.00000000      0.00000000</v>
   <v name="AVECCONST">      0.00000000      0.00000000      0.00000000</v>
  </separator>
  <separator name="response functions" >
   <i type="logical" name="LADDER"> F  </i>
   <i type="logical" name="LFXC"> F  </i>
   <i type="logical" name="LHARTREE"> T  </i>
   <i type="int" name="IBSE">     0</i>
   <v type="int" name="KPOINT">    -1     0     0     0</v>
   <i type="logical" name="LTCTE"> F  </i>
   <i type="logical" name="LTETE"> F  </i>
   <i type="logical" name="LTRIPLET"> F  </i>
   <i type="logical" name="LFXCEPS"> F  </i>
   <i type="logical" name="LFXHEG"> F  </i>
   <i type="int" name="NATURALO">     0</i>
   <i type="logical" name="L2ORDER"> F  </i>
   <i type="logical" name="LUSEW"> F  </i>
   <i name="ENCUTGW">     -2.00000000</i>
   <i name="ENCUTGWSOFT">     -2.00000000</i>
   <i name="ENCUTLF">     -1.00000000</i>
   <i type="int" name="LMAXMP2">    -1</i>
   <i name="SCISSOR">      0.00000000</i>
   <i type="int" name="NOMEGA">     0</i>
   <i type="int" name="NOMEGAR">     0</i>
   <i type="int" name="NBANDSGW">    -1</i>
   <i type="int" name="NBANDSO">    -1</i>
   <i type="int" name="NBANDSV">    -1</i>
   <i type="int" name="NELM">   200</i>
   <i type="int" name="NELMHF">     1</i>
   <i type="int" name="DIM">     3</i>
   <i type="int" name="ANTIRES">     0</i>
   <i name="OMEGAMAX">    -30.00000000</i>
   <i name="OMEGAMIN">    -30.00000000</i>
   <i name="OMEGATL">   -200.00000000</i>
   <i type="int" name="OMEGAGRID">     0</i>
   <i name="CSHIFT">     -0.10000000</i>
   <i type="logical" name="SELFENERGY"> F  </i>
   <i type="logical" name="LSPECTRAL"> F  </i>
   <i type="logical" name="LSPECTRALGW"> F  </i>
   <i type="logical" name="LSINGLES"> F  </i>
   <i type="logical" name="LFERMIGW"> F  </i>
   <i type="logical" name="ODDONLYGW"> F  </i>
   <i type="logical" name="EVENONLYGW"> F  </i>
   <i type="int" name="NKREDLFX">     1</i>
   <i type="int" name="NKREDLFY">     1</i>
   <i type="int" name="NKREDLFZ">     1</i>
   <i type="int" name="MAXMEM">  1800</i>
   <i type="int" name="TELESCOPE">     0</i>
   <i type="int" name="TAUPAR">     1</i>
   <i type="int" name="OMEGAPAR">    -1</i>
   <i name="LAMBDA">      1.00000000</i>
  </separator>
  <separator name="External order field" >
   <i name="OFIELD_KAPPA">      0.00000000</i>
   <v name="OFIELD_K">      0.00000000      0.00000000      0.00000000</v>
   <i name="OFIELD_Q6_NEAR">      0.00000000</i>
   <i name="OFIELD_Q6_FAR">      0.00000000</i>
   <i name="OFIELD_A">      0.00000000</i>
  </separator>
 </parameters>
 <atominfo>
  <atoms>      93 </atoms>
  <types>       5 </types>
  <array name="atoms" >
   <dimension dim="1">ion</dimension>
   <field type="string">element</field>
   <field type="int">atomtype</field>
   <set>
    <rc><c>C </c><c>   1</c></rc>
    <rc><c>C </c><c>   1</c></rc>
    <rc><c>C </c><c>   1</c></rc>
    <rc><c>C </c><c>   1</c></rc>
    <rc><c>C </c><c>   1</c></rc>
    <rc><c>C </c><c>   1</c></rc>
    <rc><c>C </c><c>   1</c></rc>
    <rc><c>C </c><c>   1</c></rc>
    <rc><c>C </c><c>   1</c></rc>
    <rc><c>C </c><c>   1</c></rc>
    <rc><c>Cr</c><c>   2</c></rc>
    <rc><c>H </c><c>   3</c></rc>
    <rc><c>H </c><c>   3</c></rc>
    <rc><c>H </c><c>   3</c></rc>
    <rc><c>H </c><c>   3</c></rc>
    <rc><c>H </c><c>   3</c></rc>
    <rc><c>H </c><c>   3</c></rc>
    <rc><c>H </c><c>   3</c></rc>
    <rc><c>H </c><c>   3</c></rc>
    <rc><c>H </c><c>   3</c></rc>
    <rc><c>H </c><c>   3</c></rc>
    <rc><c>Mo</c><c>   4</c></rc>
    <rc><c>Mo</c><c>   4</c></rc>
    <rc><c>Mo</c><c>   4</c></rc>
    <rc><c>Mo</c><c>   4</c></rc>
    <rc><c>Mo</c><c>   4</c></rc>
    <rc><c>Mo</c><c>   4</c></rc>
    <rc><c>Mo</c><c>   4</c></rc>
    <rc><c>Mo</c><c>   4</c></rc>
    <rc><c>Mo</c><c>   4</c></rc>
    <rc><c>Mo</c><c>   4</c></rc>
    <rc><c>Mo</c><c>   4</c></rc>
    <rc><c>Mo</c><c>   4</c></rc>
    <rc><c>Mo</c><c>   4</c></rc>
    <rc><c>Mo</c><c>   4</c></rc>
    <rc><c>Mo</c><c>   4</c></rc>
    <rc><c>Mo</c><c>   4</c></rc>
    <rc><c>Mo</c><c>   4</c></rc>
    <rc><c>Mo</c><c>   4</c></rc>
    <rc><c>Mo</c><c>   4</c></rc>
    <rc><c>Mo</c><c>   4</c></rc>
    <rc><c>Mo</c><c>   4</c></rc>
    <rc><c>Mo</c><c>   4</c></rc>
    <rc><c>Mo</c><c>   4</c></rc>
    <rc><c>Mo</c><c>   4</c></rc>
    <rc><c>S </c><c>   5</c></rc>
    <rc><c>S </c><c>   5</c></rc>
    <rc><c>S </c><c>   5</c></rc>
    <rc><c>S </c><c>   5</c></rc>
    <rc><c>S </c><c>   5</c></rc>
    <rc><c>S </c><c>   5</c></rc>
    <rc><c>S </c><c>   5</c></rc>
    <rc><c>S </c><c>   5</c></rc>
    <rc><c>S </c><c>   5</c></rc>
    <rc><c>S </c><c>   5</c></rc>
    <rc><c>S </c><c>   5</c></rc>
    <rc><c>S </c><c>   5</c></rc>
    <rc><c>S </c><c>   5</c></rc>
    <rc><c>S </c><c>   5</c></rc>
    <rc><c>S </c><c>   5</c></rc>
    <rc><c>S </c><c>   5</c></rc>
    <rc><c>S </c><c>   5</c></rc>
    <rc><c>S </c><c>   5</c></rc>
    <rc><c>S </c><c>   5</c></rc>
    <rc><c>S </c><c>   5</c></rc>
    <rc><c>S </c><c>   5</c></rc>
    <rc><c>S </c><c>   5</c></rc>
    <rc><c>S </c><c>   5</c></rc>
    <rc><c>S </c><c>   5</c></rc>
    <rc><c>S </c><c>   5</c></rc>
    <rc><c>S </c><c>   5</c></rc>
    <rc><c>S </c><c>   5</c></rc>
    <rc><c>S </c><c>   5</c></rc>
    <rc><c>S </c><c>   5</c></rc>
    <rc><c>S </c><c>   5</c></rc>
    <rc><c>S </c><c>   5</c></rc>
    <rc><c>S </c><c>   5</c></rc>
    <rc><c>S </c><c>   5</c></rc>
    <rc><c>S </c><c>   5</c></rc>
    <rc><c>S </c><c>   5</c></rc>
    <rc><c>S </c><c>   5</c></rc>
    <rc><c>S </c><c>   5</c></rc>
    <rc><c>S </c><c>   5</c></rc>
    <rc><c>S </c><c>   5</c></rc>
    <rc><c>S </c><c>   5</c></rc>
    <rc><c>S </c><c>   5</c></rc>
    <rc><c>S </c><c>   5</c></rc>
    <rc><c>S </c><c>   5</c></rc>
    <rc><c>S </c><c>   5</c></rc>
    <rc><c>S </c><c>   5</c></rc>
    <rc><c>S </c><c>   5</c></rc>
    <rc><c>S </c><c>   5</c></rc>
    <rc><c>S </c><c>   5</c></rc>
   </set>
  </array>
  <array name="atomtypes" >
   <dimension dim="1">type</dimension>
   <field type="int">atomspertype</field>
   <field type="string">element</field>
   <field>mass</field>
   <field>valence</field>
   <field type="string">pseudopotential</field>
   <set>
    <rc><c>  10</c><c>C </c><c>     12.01100000</c><c>      4.00000000</c><c>  PAW_PBE C 08Apr2002                   </c></rc>
    <rc><c>   1</c><c>Cr</c><c>     51.99600000</c><c>      6.00000000</c><c>  PAW_PBE Cr 06Sep2000                  </c></rc>
    <rc><c>  10</c><c>H </c><c>      1.00000000</c><c>      1.00000000</c><c>  PAW_PBE H 15Jun2001                   </c></rc>
    <rc><c>  24</c><c>Mo</c><c>     95.94000000</c><c>      6.00000000</c><c>  PAW_PBE Mo 08Apr2002                  </c></rc>
    <rc><c>  48</c><c>S </c><c>     32.06600000</c><c>      6.00000000</c><c>  PAW_PBE S 06Sep2000                   </c></rc>
   </set>
  </array>
 </atominfo>
 <structure name="initialpos" >
  <crystal>
   <varray name="basis" >
    <v>       9.57094646       0.00000000       0.00000000 </v>
    <v>      -6.38062803      11.05157872       0.00000000 </v>
    <v>       0.00000000       0.00000000      34.88026251 </v>
   </varray>
   <i name="volume">   3689.42726549 </i>
   <varray name="rec_basis" >
    <v>       0.10448287       0.06032318       0.00000000 </v>
    <v>       0.00000000       0.09048481       0.00000000 </v>
    <v>       0.00000000       0.00000000       0.02866951 </v>
   </varray>
  </crystal>
  <varray name="positions" >
   <v>       0.26807373       0.24576543       0.52793820 </v>
   <v>       0.27936248       0.13902082       0.53062521 </v>
   <v>       0.35666141       0.32400567       0.55890911 </v>
   <v>       0.42473227       0.26535390       0.58118470 </v>
   <v>       0.37583858       0.14978223       0.56344511 </v>
   <v>       0.92741283       0.02419316       0.58881914 </v>
   <v>       0.09921372       0.09469810       0.64149073 </v>
   <v>       0.02527380       0.99765772       0.61411724 </v>
   <v>       0.04722050       0.17930065       0.63328789 </v>
   <v>       0.94232938       0.13683525       0.60099123 </v>
   <v>       0.17323018       0.15728980       0.58371818 </v>
   <v>       0.40835087       0.08355977       0.57288260 </v>
   <v>       0.03728968       0.91735588       0.61334184 </v>
   <v>       0.08798953       0.26511922       0.64791550 </v>
   <v>       0.18231697       0.10321982       0.66414394 </v>
   <v>       0.85284292       0.96789324       0.56535561 </v>
   <v>       0.21997692       0.06082840       0.51179456 </v>
   <v>       0.19716128       0.26216275       0.50691801 </v>
   <v>       0.36923220       0.41206034       0.56471808 </v>
   <v>       0.50288220       0.30299240       0.60603541 </v>
   <v>       0.88683773       0.18368134       0.58732873 </v>
   <v>       0.55555566       0.08333325       0.25000928 </v>
   <v>       0.55555566       0.33333325       0.25000928 </v>
   <v>       0.44444432       0.41666674       0.74999076 </v>
   <v>       0.55555566       0.58333325       0.25000928 </v>
   <v>       0.44444432       0.66666674       0.74999076 </v>
   <v>       0.55555566       0.83333325       0.25000928 </v>
   <v>       0.44444432       0.91666674       0.74999076 </v>
   <v>       0.88888899       0.33333325       0.25000928 </v>
   <v>       0.77777765       0.16666674       0.74999076 </v>
   <v>       0.77777765       0.41666674       0.74999076 </v>
   <v>       0.88888899       0.58333325       0.25000928 </v>
   <v>       0.77777765       0.66666674       0.74999076 </v>
   <v>       0.88888899       0.83333325       0.25000928 </v>
   <v>       0.77777765       0.91666674       0.74999076 </v>
   <v>       0.11111099       0.91666674       0.74999076 </v>
   <v>       0.88888899       0.08333325       0.25000928 </v>
   <v>       0.22222233       0.83333325       0.25000928 </v>
   <v>       0.44444432       0.16666674       0.74999076 </v>
   <v>       0.22222233       0.58333325       0.25000928 </v>
   <v>       0.11111099       0.41666674       0.74999076 </v>
   <v>       0.22222233       0.33333325       0.25000928 </v>
   <v>       0.22222233       0.08333325       0.25000928 </v>
   <v>       0.11111099       0.16666674       0.74999076 </v>
   <v>       0.11111099       0.66666674       0.74999076 </v>
   <v>       0.77777765       0.16666674       0.29487388 </v>
   <v>       0.88888899       0.08333325       0.79485533 </v>
   <v>       0.77777765       0.16666674       0.20514467 </v>
   <v>       0.88888899       0.08333325       0.70512613 </v>
   <v>       0.22222233       0.08333325       0.70512613 </v>
   <v>       0.11111099       0.16666674       0.20514467 </v>
   <v>       0.77777765       0.41666674       0.29487388 </v>
   <v>       0.88888899       0.33333325       0.79485533 </v>
   <v>       0.11111099       0.66666674       0.20514467 </v>
   <v>       0.55555566       0.83333325       0.70512613 </v>
   <v>       0.88888899       0.33333325       0.70512613 </v>
   <v>       0.22222233       0.08333325       0.79485533 </v>
   <v>       0.11111099       0.16666674       0.29487388 </v>
   <v>       0.77777765       0.66666674       0.29487388 </v>
   <v>       0.88888899       0.58333325       0.79485533 </v>
   <v>       0.77777765       0.66666674       0.20514467 </v>
   <v>       0.88888899       0.58333325       0.70512613 </v>
   <v>       0.77777765       0.91666674       0.29487388 </v>
   <v>       0.88888899       0.83333325       0.79485533 </v>
   <v>       0.77777765       0.41666674       0.20514467 </v>
   <v>       0.44444432       0.91666674       0.20514467 </v>
   <v>       0.44444432       0.91666674       0.29487388 </v>
   <v>       0.22222233       0.58333325       0.70512613 </v>
   <v>       0.22222233       0.58333325       0.79485533 </v>
   <v>       0.11111099       0.91666674       0.29487388 </v>
   <v>       0.22222233       0.83333325       0.79485533 </v>
   <v>       0.11111099       0.91666674       0.20514467 </v>
   <v>       0.22222233       0.83333325       0.70512613 </v>
   <v>       0.11111099       0.66666674       0.29487388 </v>
   <v>       0.77777765       0.91666674       0.20514467 </v>
   <v>       0.44444432       0.16666674       0.29487388 </v>
   <v>       0.55555566       0.08333325       0.79485533 </v>
   <v>       0.44444432       0.16666674       0.20514467 </v>
   <v>       0.55555566       0.08333325       0.70512613 </v>
   <v>       0.44444432       0.41666674       0.29487388 </v>
   <v>       0.55555566       0.33333325       0.79485533 </v>
   <v>       0.44444432       0.41666674       0.20514467 </v>
   <v>       0.55555566       0.33333325       0.70512613 </v>
   <v>       0.22222233       0.33333325       0.70512613 </v>
   <v>       0.11111099       0.41666674       0.20514467 </v>
   <v>       0.44444432       0.66666674       0.29487388 </v>
   <v>       0.55555566       0.58333325       0.79485533 </v>
   <v>       0.44444432       0.66666674       0.20514467 </v>
   <v>       0.55555566       0.58333325       0.70512613 </v>
   <v>       0.22222233       0.33333325       0.79485533 </v>
   <v>       0.11111099       0.41666674       0.29487388 </v>
   <v>       0.55555566       0.83333325       0.79485533 </v>
   <v>       0.88888899       0.83333325       0.70512613 </v>
  </varray>
 </structure>
 <calculation>
  <scstep>
   <time name="dav">    5.43    5.45</time>
   <time name="total">    5.84    5.89</time>
   <energy>
    <i name="alphaZ">    562.39184220 </i>
    <i name="ewald">  42337.64483218 </i>
    <i name="hartreedc"> -61250.85909235 </i>
    <i name="XCdc">   -735.87699930 </i>
    <i name="pawpsdc">  18197.44745459 </i>
    <i name="pawaedc"> -16322.33343364 </i>
    <i name="eentropy">     -0.13081466 </i>
    <i name="bandstr">   1189.93799278 </i>
    <i name="atom">  20380.58938199 </i>
    <i name="e_fr_energy">   4358.81116380 </i>
    <i name="e_wo_entrp">   4358.94197846 </i>
    <i name="e_0_energy">   4358.87657113 </i>
   </energy>
  </scstep>
  <scstep>
   <time name="dav">    7.60    7.62</time>
   <time name="total">    7.60    7.62</time>
   <energy>
    <i name="e_fr_energy">    -13.37399164 </i>
    <i name="e_wo_entrp">    -13.32944837 </i>
    <i name="e_0_energy">    -13.35172001 </i>
   </energy>
  </scstep>
  <scstep>
   <time name="dav">    6.07    6.08</time>
   <time name="total">    6.07    6.09</time>
   <energy>
    <i name="e_fr_energy">   -675.90951612 </i>
    <i name="e_wo_entrp">   -675.90951598 </i>
    <i name="e_0_energy">   -675.90951605 </i>
   </energy>
  </scstep>
  <scstep>
   <time name="dav">    6.77    6.79</time>
   <time name="total">    6.77    6.80</time>
   <energy>
    <i name="e_fr_energy">   -711.70882500 </i>
    <i name="e_wo_entrp">   -711.70882500 </i>
    <i name="e_0_energy">   -711.70882500 </i>
   </energy>
  </scstep>
  <scstep>
   <time name="dav">    7.11    7.18</time>
   <time name="total">    7.67    7.78</time>
   <energy>
    <i name="e_fr_energy">   -713.21004456 </i>
    <i name="e_wo_entrp">   -713.21004456 </i>
    <i name="e_0_energy">   -713.21004456 </i>
   </energy>
  </scstep>
  <scstep>
   <time name="dav">    6.85    6.90</time>
   <time name="total">    7.80    7.85</time>
   <energy>
    <i name="e_fr_energy">   -696.61183252 </i>
    <i name="e_wo_entrp">   -696.50069644 </i>
    <i name="e_0_energy">   -696.55626448 </i>
   </energy>
  </scstep>
  <scstep>
   <time name="dav">    7.13    7.19</time>
   <time name="total">    8.08    8.26</time>
   <energy>
    <i name="e_fr_energy">   -706.03586474 </i>
    <i name="e_wo_entrp">   -705.87843202 </i>
    <i name="e_0_energy">   -705.95714838 </i>
   </energy>
  </scstep>
  <scstep>
   <time name="dav">    6.57    6.60</time>
   <time name="total">    7.53    7.56</time>
   <energy>
    <i name="e_fr_energy">   -676.52825405 </i>
    <i name="e_wo_entrp">   -675.94077109 </i>
    <i name="e_0_energy">   -676.23451257 </i>
   </energy>
  </scstep>
  <scstep>
   <time name="dav">    7.29    7.34</time>
   <time name="total">    8.25    8.39</time>
   <energy>
    <i name="e_fr_energy">   -688.20689563 </i>
    <i name="e_wo_entrp">   -687.89008077 </i>
    <i name="e_0_energy">   -688.04848820 </i>
   </energy>
  </scstep>
  <scstep>
   <time name="dav">    6.88    6.93</time>
   <time name="total">    7.81    7.90</time>
   <energy>
    <i name="e_fr_energy">   -661.20953837 </i>
    <i name="e_wo_entrp">   -661.06509627 </i>
    <i name="e_0_energy">   -661.13731732 </i>
   </energy>
  </scstep>
  <scstep>
   <time name="dav">    7.38    7.41</time>
   <time name="total">    8.32    8.35</time>
   <energy>
    <i name="e_fr_energy">   -657.52644371 </i>
    <i name="e_wo_entrp">   -657.50421246 </i>
    <i name="e_0_energy">   -657.51532809 </i>
   </energy>
  </scstep>
  <scstep>
   <time name="dav">    7.48    7.50</time>
   <time name="total">    8.41    8.44</time>
   <energy>
    <i name="e_fr_energy">   -656.85014513 </i>
    <i name="e_wo_entrp">   -656.79079237 </i>
    <i name="e_0_energy">   -656.82046875 </i>
   </energy>
  </scstep>
  <scstep>
   <time name="dav">    7.52    7.56</time>
   <time name="total">    8.45    8.50</time>
   <energy>
    <i name="e_fr_energy">   -658.56798637 </i>
    <i name="e_wo_entrp">   -658.46838051 </i>
    <i name="e_0_energy">   -658.51818344 </i>
   </energy>
  </scstep>
  <scstep>
   <time name="dav">    7.83    7.87</time>
   <time name="total">    8.76    8.85</time>
   <energy>
    <i name="e_fr_energy">   -656.81751056 </i>
    <i name="e_wo_entrp">   -656.73371183 </i>
    <i name="e_0_energy">   -656.77561119 </i>
   </energy>
  </scstep>
  <scstep>
   <time name="dav">    7.21    7.23</time>
   <time name="total">    8.14    8.17</time>
   <energy>
    <i name="e_fr_energy">   -658.32725632 </i>
    <i name="e_wo_entrp">   -658.24916590 </i>
    <i name="e_0_energy">   -658.28821111 </i>
   </energy>
  </scstep>
  <scstep>
   <time name="dav">    7.45    7.48</time>
   <time name="total">    8.39    8.43</time>
   <energy>
    <i name="e_fr_energy">   -656.75431137 </i>
    <i name="e_wo_entrp">   -656.73822763 </i>
    <i name="e_0_energy">   -656.74626950 </i>
   </energy>
  </scstep>
  <scstep>
   <time name="dav">    7.50    7.53</time>
   <time name="total">    8.43    8.48</time>
   <energy>
    <i name="e_fr_energy">   -656.38695738 </i>
    <i name="e_wo_entrp">   -656.25918865 </i>
    <i name="e_0_energy">   -656.32307302 </i>
   </energy>
  </scstep>
  <scstep>
   <time name="dav">    7.29    7.31</time>
   <time name="total">    8.22    8.26</time>
   <energy>
    <i name="e_fr_energy">   -656.58669994 </i>
    <i name="e_wo_entrp">   -656.52767437 </i>
    <i name="e_0_energy">   -656.55718716 </i>
   </energy>
  </scstep>
  <scstep>
   <time name="dav">    7.36    7.39</time>
   <time name="total">    8.29    8.41</time>
   <energy>
    <i name="e_fr_energy">   -656.40695266 </i>
    <i name="e_wo_entrp">   -656.26953424 </i>
    <i name="e_0_energy">   -656.33824345 </i>
   </energy>
  </scstep>
  <scstep>
   <time name="dav">    7.21    7.44</time>
   <time name="total">    8.11    8.39</time>
   <energy>
    <i name="e_fr_energy">   -656.42857057 </i>
    <i name="e_wo_entrp">   -656.34523899 </i>
    <i name="e_0_energy">   -656.38690478 </i>
   </energy>
  </scstep>
  <scstep>
   <time name="dav">    7.24    7.33</time>
   <time name="total">    8.16    8.28</time>
   <energy>
    <i name="e_fr_energy">   -656.17759321 </i>
    <i name="e_wo_entrp">   -656.06427599 </i>
    <i name="e_0_energy">   -656.12093460 </i>
   </energy>
  </scstep>
  <scstep>
   <time name="dav">    7.22    7.29</time>
   <time name="total">    8.15    8.24</time>
   <energy>
    <i name="e_fr_energy">   -656.17753367 </i>
    <i name="e_wo_entrp">   -656.07570675 </i>
    <i name="e_0_energy">   -656.12662021 </i>
   </energy>
  </scstep>
  <scstep>
   <time name="dav">    6.55    6.61</time>
   <time name="total">    7.48    7.56</time>
   <energy>
    <i name="e_fr_energy">   -656.15800005 </i>
    <i name="e_wo_entrp">   -656.04346624 </i>
    <i name="e_0_energy">   -656.10073314 </i>
   </energy>
  </scstep>
  <scstep>
   <time name="dav">    6.67    6.69</time>
   <time name="total">    7.59    7.64</time>
   <energy>
    <i name="e_fr_energy">   -656.15454409 </i>
    <i name="e_wo_entrp">   -656.04491701 </i>
    <i name="e_0_energy">   -656.09973055 </i>
   </energy>
  </scstep>
  <scstep>
   <time name="dav">    6.05    6.07</time>
   <time name="total">    6.99    7.02</time>
   <energy>
    <i name="e_fr_energy">   -656.14948679 </i>
    <i name="e_wo_entrp">   -656.03517722 </i>
    <i name="e_0_energy">   -656.09233201 </i>
   </energy>
  </scstep>
  <scstep>
   <time name="dav">    6.92    7.33</time>
   <time name="total">    7.86    8.27</time>
   <energy>
    <i name="e_fr_energy">   -656.14493833 </i>
    <i name="e_wo_entrp">   -656.03263117 </i>
    <i name="e_0_energy">   -656.08878475 </i>
   </energy>
  </scstep>
  <scstep>
   <time name="dav">    7.26    7.30</time>
   <time name="total">    8.21    8.27</time>
   <energy>
    <i name="e_fr_energy">   -656.12091428 </i>
    <i name="e_wo_entrp">   -656.02217280 </i>
    <i name="e_0_energy">   -656.07154354 </i>
   </energy>
  </scstep>
  <scstep>
   <time name="dav">    7.46    7.51</time>
   <time name="total">    8.39    8.45</time>
   <energy>
    <i name="e_fr_energy">   -656.12898729 </i>
    <i name="e_wo_entrp">   -656.02855628 </i>
    <i name="e_0_energy">   -656.07877178 </i>
   </energy>
  </scstep>
  <scstep>
   <time name="dav">    6.59    6.62</time>
   <time name="total">    7.53    7.57</time>
   <energy>
    <i name="e_fr_energy">   -656.12871362 </i>
    <i name="e_wo_entrp">   -656.02992484 </i>
    <i name="e_0_energy">   -656.07931923 </i>
   </energy>
  </scstep>
  <scstep>
   <time name="dav">    5.71    5.77</time>
   <time name="total">    6.64    6.72</time>
   <energy>
    <i name="e_fr_energy">   -656.12777185 </i>
    <i name="e_wo_entrp">   -656.02787609 </i>
    <i name="e_0_energy">   -656.07782397 </i>
   </energy>
  </scstep>
  <scstep>
   <time name="dav">    7.23    7.29</time>
   <time name="total">    8.18    8.25</time>
   <energy>
    <i name="e_fr_energy">   -656.12326523 </i>
    <i name="e_wo_entrp">   -656.03297543 </i>
    <i name="e_0_energy">   -656.07812033 </i>
   </energy>
  </scstep>
  <scstep>
   <time name="dav">    7.17    7.24</time>
   <time name="total">    8.11    8.19</time>
   <energy>
    <i name="e_fr_energy">   -656.09170700 </i>
    <i name="e_wo_entrp">   -655.98984726 </i>
    <i name="e_0_energy">   -656.04077713 </i>
   </energy>
  </scstep>
  <scstep>
   <time name="dav">    7.29    7.32</time>
   <time name="total">    8.24    8.29</time>
   <energy>
    <i name="e_fr_energy">   -656.08162928 </i>
    <i name="e_wo_entrp">   -655.98880474 </i>
    <i name="e_0_energy">   -656.03521701 </i>
   </energy>
  </scstep>
  <scstep>
   <time name="dav">    7.22    7.29</time>
   <time name="total">    8.17    8.26</time>
   <energy>
    <i name="e_fr_energy">   -656.09473455 </i>
    <i name="e_wo_entrp">   -656.01327487 </i>
    <i name="e_0_energy">   -656.05400471 </i>
   </energy>
  </scstep>
  <scstep>
   <time name="dav">    7.24    7.28</time>
   <time name="total">    8.21    8.27</time>
   <energy>
    <i name="e_fr_energy">   -656.13394074 </i>
    <i name="e_wo_entrp">   -656.06858730 </i>
    <i name="e_0_energy">   -656.10126402 </i>
   </energy>
  </scstep>
  <scstep>
   <time name="dav">    6.92    6.96</time>
   <time name="total">    7.89    7.94</time>
   <energy>
    <i name="e_fr_energy">   -656.14677854 </i>
    <i name="e_wo_entrp">   -656.08248277 </i>
    <i name="e_0_energy">   -656.11463065 </i>
   </energy>
  </scstep>
  <scstep>
   <time name="dav">    5.85    5.91</time>
   <time name="total">    6.82    6.89</time>
   <energy>
    <i name="e_fr_energy">   -656.15806642 </i>
    <i name="e_wo_entrp">   -656.09802889 </i>
    <i name="e_0_energy">   -656.12804766 </i>
   </energy>
  </scstep>
  <scstep>
   <time name="dav">    6.93    7.00</time>
   <time name="total">    7.91    8.08</time>
   <energy>
    <i name="e_fr_energy">   -656.22465797 </i>
    <i name="e_wo_entrp">   -656.17451569 </i>
    <i name="e_0_energy">   -656.19958683 </i>
   </energy>
  </scstep>
  <scstep>
   <time name="dav">    7.04    7.07</time>
   <time name="total">    8.04    8.07</time>
   <energy>
    <i name="e_fr_energy">   -656.25361049 </i>
    <i name="e_wo_entrp">   -656.20444841 </i>
    <i name="e_0_energy">   -656.22902945 </i>
   </energy>
  </scstep>
  <scstep>
   <time name="dav">    5.52    5.56</time>
   <time name="total">    6.52    6.82</time>
   <energy>
    <i name="e_fr_energy">   -656.25982223 </i>
    <i name="e_wo_entrp">   -656.21150534 </i>
    <i name="e_0_energy">   -656.23566379 </i>
   </energy>
  </scstep>
  <scstep>
   <time name="dav">    5.79    5.85</time>
   <time name="total">    6.78    6.90</time>
   <energy>
    <i name="e_fr_energy">   -656.29152464 </i>
    <i name="e_wo_entrp">   -656.25461593 </i>
    <i name="e_0_energy">   -656.27307029 </i>
   </energy>
  </scstep>
  <scstep>
   <time name="dav">    6.66    6.69</time>
   <time name="total">    7.66    7.70</time>
   <energy>
    <i name="e_fr_energy">   -656.36178106 </i>
    <i name="e_wo_entrp">   -656.32360900 </i>
    <i name="e_0_energy">   -656.34269503 </i>
   </energy>
  </scstep>
  <scstep>
   <time name="dav">    6.43    6.51</time>
   <time name="total">    7.43    7.53</time>
   <energy>
    <i name="e_fr_energy">   -656.39039704 </i>
    <i name="e_wo_entrp">   -656.35512908 </i>
    <i name="e_0_energy">   -656.37276306 </i>
   </energy>
  </scstep>
  <scstep>
   <time name="dav">    5.86    5.92</time>
   <time name="total">    6.85    6.93</time>
   <energy>
    <i name="e_fr_energy">   -656.40129632 </i>
    <i name="e_wo_entrp">   -656.37499287 </i>
    <i name="e_0_energy">   -656.38814459 </i>
   </energy>
  </scstep>
  <scstep>
   <time name="dav">    5.84    5.90</time>
   <time name="total">    6.83    6.90</time>
   <energy>
    <i name="e_fr_energy">   -656.42969510 </i>
    <i name="e_wo_entrp">   -656.39987187 </i>
    <i name="e_0_energy">   -656.41478348 </i>
   </energy>
  </scstep>
  <scstep>
   <time name="dav">    6.71    6.78</time>
   <time name="total">    7.70    7.87</time>
   <energy>
    <i name="e_fr_energy">   -656.47527316 </i>
    <i name="e_wo_entrp">   -656.44435607 </i>
    <i name="e_0_energy">   -656.45981462 </i>
   </energy>
  </scstep>
  <scstep>
   <time name="dav">    5.19    5.21</time>
   <time name="total">    6.19    6.22</time>
   <energy>
    <i name="e_fr_energy">   -656.47924020 </i>
    <i name="e_wo_entrp">   -656.44993469 </i>
    <i name="e_0_energy">   -656.46458745 </i>
   </energy>
  </scstep>
  <scstep>
   <time name="dav">    4.33    4.37</time>
   <time name="total">    5.32    5.39</time>
   <energy>
    <i name="e_fr_energy">   -656.45767104 </i>
    <i name="e_wo_entrp">   -656.42652686 </i>
    <i name="e_0_energy">   -656.44209895 </i>
   </energy>
  </scstep>
  <scstep>
   <time name="dav">    5.68    5.74</time>
   <time name="total">    6.68    6.75</time>
   <energy>
    <i name="e_fr_energy">   -656.42648642 </i>
    <i name="e_wo_entrp">   -656.39767271 </i>
    <i name="e_0_energy">   -656.41207956 </i>
   </energy>
  </scstep>
  <scstep>
   <time name="dav">    6.02    6.06</time>
   <time name="total">    7.02    7.11</time>
   <energy>
    <i name="e_fr_energy">   -656.40545342 </i>
    <i name="e_wo_entrp">   -656.37892232 </i>
    <i name="e_0_energy">   -656.39218787 </i>
   </energy>
  </scstep>
  <scstep>
   <time name="dav">    6.41    6.45</time>
   <time name="total">    7.40    7.50</time>
   <energy>
    <i name="e_fr_energy">   -656.36111209 </i>
    <i name="e_wo_entrp">   -656.33414399 </i>
    <i name="e_0_energy">   -656.34762804 </i>
   </energy>
  </scstep>
  <scstep>
   <time name="dav">    6.10    6.15</time>
   <time name="total">    7.08    7.20</time>
   <energy>
    <i name="e_fr_energy">   -656.31873943 </i>
    <i name="e_wo_entrp">   -656.29293851 </i>
    <i name="e_0_energy">   -656.30583897 </i>
   </energy>
  </scstep>
  <scstep>
   <time name="dav">    5.53    5.55</time>
   <time name="total">    6.52    6.57</time>
   <energy>
    <i name="e_fr_energy">   -656.32375177 </i>
    <i name="e_wo_entrp">   -656.29777878 </i>
    <i name="e_0_energy">   -656.31076528 </i>
   </energy>
  </scstep>
  <scstep>
   <time name="dav">    5.12    5.14</time>
   <time name="total">    6.11    6.14</time>
   <energy>
    <i name="e_fr_energy">   -656.30456442 </i>
    <i name="e_wo_entrp">   -656.27791442 </i>
    <i name="e_0_energy">   -656.29123942 </i>
   </energy>
  </scstep>
  <scstep>
   <time name="dav">    5.57    5.61</time>
   <time name="total">    6.56    6.62</time>
   <energy>
    <i name="e_fr_energy">   -656.29094166 </i>
    <i name="e_wo_entrp">   -656.26219320 </i>
    <i name="e_0_energy">   -656.27656743 </i>
   </energy>
  </scstep>
  <scstep>
   <time name="dav">    6.42    6.45</time>
   <time name="total">    7.42    7.45</time>
   <energy>
    <i name="e_fr_energy">   -656.32177028 </i>
    <i name="e_wo_entrp">   -656.28898974 </i>
    <i name="e_0_energy">   -656.30538001 </i>
   </energy>
  </scstep>
  <scstep>
   <time name="dav">    5.24    5.29</time>
   <time name="total">    6.22    6.33</time>
   <energy>
    <i name="e_fr_energy">   -656.29777632 </i>
    <i name="e_wo_entrp">   -656.26509856 </i>
    <i name="e_0_energy">   -656.28143744 </i>
   </energy>
  </scstep>
  <scstep>
   <time name="dav">    5.17    5.22</time>
   <time name="total">    6.16    6.22</time>
   <energy>
    <i name="e_fr_energy">   -656.27321952 </i>
    <i name="e_wo_entrp">   -656.23799711 </i>
    <i name="e_0_energy">   -656.25560832 </i>
   </energy>
  </scstep>
  <scstep>
   <time name="dav">    5.24    5.30</time>
   <time name="total">    6.23    6.30</time>
   <energy>
    <i name="e_fr_energy">   -656.25202150 </i>
    <i name="e_wo_entrp">   -656.21412182 </i>
    <i name="e_0_energy">   -656.23307166 </i>
   </energy>
  </scstep>
  <scstep>
   <time name="dav">    4.41    4.45</time>
   <time name="total">    5.40    5.48</time>
   <energy>
    <i name="e_fr_energy">   -656.24360749 </i>
    <i name="e_wo_entrp">   -656.20502668 </i>
    <i name="e_0_energy">   -656.22431708 </i>
   </energy>
  </scstep>
  <scstep>
   <time name="dav">    4.74    4.78</time>
   <time name="total">    5.73    5.78</time>
   <energy>
    <i name="e_fr_energy">   -656.24575940 </i>
    <i name="e_wo_entrp">   -656.20612213 </i>
    <i name="e_0_energy">   -656.22594077 </i>
   </energy>
  </scstep>
  <scstep>
   <time name="dav">    4.14    4.17</time>
   <time name="total">    5.13    5.18</time>
   <energy>
    <i name="e_fr_energy">   -656.24656604 </i>
    <i name="e_wo_entrp">   -656.20517163 </i>
    <i name="e_0_energy">   -656.22586883 </i>
   </energy>
  </scstep>
  <scstep>
   <time name="dav">    5.44    5.47</time>
   <time name="total">    6.44    6.47</time>
   <energy>
    <i name="e_fr_energy">   -656.23580982 </i>
    <i name="e_wo_entrp">   -656.19062184 </i>
    <i name="e_0_energy">   -656.21321583 </i>
   </energy>
  </scstep>
  <scstep>
   <time name="dav">    3.89    3.90</time>
   <time name="total">    4.88    4.90</time>
   <energy>
    <i name="e_fr_energy">   -656.22404973 </i>
    <i name="e_wo_entrp">   -656.17601689 </i>
    <i name="e_0_energy">   -656.20003331 </i>
   </energy>
  </scstep>
  <scstep>
   <time name="dav">    3.73    3.77</time>
   <time name="total">    4.73    5.01</time>
   <energy>
    <i name="e_fr_energy">   -656.22127644 </i>
    <i name="e_wo_entrp">   -656.17275625 </i>
    <i name="e_0_energy">   -656.19701634 </i>
   </energy>
  </scstep>
  <scstep>
   <time name="dav">    7.02    7.06</time>
   <time name="total">    7.98    8.16</time>
   <energy>
    <i name="e_fr_energy">   -656.09279796 </i>
    <i name="e_wo_entrp">   -656.04248953 </i>
    <i name="e_0_energy">   -656.06764375 </i>
   </energy>
  </scstep>
  <scstep>
   <time name="dav">    6.49    6.52</time>
   <time name="total">    7.47    7.53</time>
   <energy>
    <i name="e_fr_energy">   -656.09560558 </i>
    <i name="e_wo_entrp">   -656.01911740 </i>
    <i name="e_0_energy">   -656.05736149 </i>
   </energy>
  </scstep>
  <scstep>
   <time name="dav">    6.83    6.86</time>
   <time name="total">    7.82    8.03</time>
   <energy>
    <i name="e_fr_energy">   -656.03523305 </i>
    <i name="e_wo_entrp">   -655.93813316 </i>
    <i name="e_0_energy">   -655.98668311 </i>
   </energy>
  </scstep>
  <scstep>
   <time name="dav">    6.45    6.52</time>
   <time name="total">    7.43    7.51</time>
   <energy>
    <i name="e_fr_energy">   -656.04206537 </i>
    <i name="e_wo_entrp">   -655.94598717 </i>
    <i name="e_0_energy">   -655.99402627 </i>
   </energy>
  </scstep>
  <scstep>
   <time name="dav">    6.37    6.41</time>
   <time name="total">    7.35    7.41</time>
   <energy>
    <i name="e_fr_energy">   -656.01556753 </i>
    <i name="e_wo_entrp">   -655.90583971 </i>
    <i name="e_0_energy">   -655.96070362 </i>
   </energy>
  </scstep>
  <scstep>
   <time name="dav">    7.14    7.17</time>
   <time name="total">    8.12    8.16</time>
   <energy>
    <i name="e_fr_energy">   -656.01192841 </i>
    <i name="e_wo_entrp">   -655.90357146 </i>
    <i name="e_0_energy">   -655.95774993 </i>
   </energy>
  </scstep>
  <scstep>
   <time name="dav">    7.08    7.15</time>
   <time name="total">    8.05    8.14</time>
   <energy>
    <i name="e_fr_energy">   -656.00899886 </i>
    <i name="e_wo_entrp">   -655.89639713 </i>
    <i name="e_0_energy">   -655.95269799 </i>
   </energy>
  </scstep>
  <scstep>
   <time name="dav">    5.88    5.92</time>
   <time name="total">    6.86    6.90</time>
   <energy>
    <i name="e_fr_energy">   -656.00659822 </i>
    <i name="e_wo_entrp">   -655.89585105 </i>
    <i name="e_0_energy">   -655.95122463 </i>
   </energy>
  </scstep>
  <scstep>
   <time name="dav">    6.11    6.14</time>
   <time name="total">    7.11    7.14</time>
   <energy>
    <i name="e_fr_energy">   -656.00183227 </i>
    <i name="e_wo_entrp">   -655.88845401 </i>
    <i name="e_0_energy">   -655.94514314 </i>
   </energy>
  </scstep>
  <scstep>
   <time name="dav">    6.35    6.37</time>
   <time name="total">    7.34    7.37</time>
   <energy>
    <i name="e_fr_energy">   -655.99811575 </i>
    <i name="e_wo_entrp">   -655.88518344 </i>
    <i name="e_0_energy">   -655.94164960 </i>
   </energy>
  </scstep>
  <scstep>
   <time name="dav">    5.05    5.07</time>
   <time name="total">    6.04    6.07</time>
   <energy>
    <i name="e_fr_energy">   -655.99844550 </i>
    <i name="e_wo_entrp">   -655.88404749 </i>
    <i name="e_0_energy">   -655.94124649 </i>
   </energy>
  </scstep>
  <scstep>
   <time name="dav">    4.95    4.98</time>
   <time name="total">    5.94    6.01</time>
   <energy>
    <i name="e_fr_energy">   -655.99686934 </i>
    <i name="e_wo_entrp">   -655.88161237 </i>
    <i name="e_0_energy">   -655.93924085 </i>
   </energy>
  </scstep>
  <scstep>
   <time name="dav">    5.16    5.22</time>
   <time name="total">    6.14    6.28</time>
   <energy>
    <i name="e_fr_energy">   -655.99565813 </i>
    <i name="e_wo_entrp">   -655.87766159 </i>
    <i name="e_0_energy">   -655.93665986 </i>
   </energy>
  </scstep>
  <scstep>
   <time name="dav">    4.15    4.23</time>
   <time name="total">    5.14    5.23</time>
   <energy>
    <i name="e_fr_energy">   -655.99515062 </i>
    <i name="e_wo_entrp">   -655.87756343 </i>
    <i name="e_0_energy">   -655.93635702 </i>
   </energy>
  </scstep>
  <scstep>
   <time name="dav">    4.12    4.16</time>
   <time name="total">    4.51    4.55</time>
   <energy>
    <i name="alphaZ">    562.39184220 </i>
    <i name="ewald">  42337.64483218 </i>
    <i name="hartreedc"> -61737.52903765 </i>
    <i name="XCdc">   -699.14068488 </i>
    <i name="pawpsdc">  43007.73325759 </i>
    <i name="pawaedc"> -41175.45522527 </i>
    <i name="eentropy">     -0.11763479 </i>
    <i name="bandstr">  -3332.11189100 </i>
    <i name="atom">  20380.58938199 </i>
    <i name="e_fr_energy">   -655.99515963 </i>
    <i name="e_wo_entrp">   -655.87752484 </i>
    <i name="e_0_energy">   -655.93634224 </i>
   </energy>
  </scstep>
  <structure>
   <crystal>
    <varray name="basis" >
     <v>       9.57094646       0.00000000       0.00000000 </v>
     <v>      -6.38062803      11.05157872       0.00000000 </v>
     <v>       0.00000000       0.00000000      34.88026251 </v>
    </varray>
    <i name="volume">   3689.42726549 </i>
    <varray name="rec_basis" >
     <v>       0.10448287       0.06032318       0.00000000 </v>
     <v>       0.00000000       0.09048481       0.00000000 </v>
     <v>       0.00000000       0.00000000       0.02866951 </v>
    </varray>
   </crystal>
   <varray name="positions" >
    <v>       0.26807373       0.24576543       0.52793820 </v>
    <v>       0.27936248       0.13902082       0.53062521 </v>
    <v>       0.35666141       0.32400567       0.55890911 </v>
    <v>       0.42473227       0.26535390       0.58118470 </v>
    <v>       0.37583858       0.14978223       0.56344511 </v>
    <v>       0.92741283       0.02419316       0.58881914 </v>
    <v>       0.09921372       0.09469810       0.64149073 </v>
    <v>       0.02527380       0.99765772       0.61411724 </v>
    <v>       0.04722050       0.17930065       0.63328789 </v>
    <v>       0.94232938       0.13683525       0.60099123 </v>
    <v>       0.17323018       0.15728980       0.58371818 </v>
    <v>       0.40835087       0.08355977       0.57288260 </v>
    <v>       0.03728968       0.91735588       0.61334184 </v>
    <v>       0.08798953       0.26511922       0.64791550 </v>
    <v>       0.18231697       0.10321982       0.66414394 </v>
    <v>       0.85284292       0.96789324       0.56535561 </v>
    <v>       0.21997692       0.06082840       0.51179456 </v>
    <v>       0.19716128       0.26216275       0.50691801 </v>
    <v>       0.36923220       0.41206034       0.56471808 </v>
    <v>       0.50288220       0.30299240       0.60603541 </v>
    <v>       0.88683773       0.18368134       0.58732873 </v>
    <v>       0.55555566       0.08333325       0.25000928 </v>
    <v>       0.55555566       0.33333325       0.25000928 </v>
    <v>       0.44444432       0.41666674       0.74999076 </v>
    <v>       0.55555566       0.58333325       0.25000928 </v>
    <v>       0.44444432       0.66666674       0.74999076 </v>
    <v>       0.55555566       0.83333325       0.25000928 </v>
    <v>       0.44444432       0.91666674       0.74999076 </v>
    <v>       0.88888899       0.33333325       0.25000928 </v>
    <v>       0.77777765       0.16666674       0.74999076 </v>
    <v>       0.77777765       0.41666674       0.74999076 </v>
    <v>       0.88888899       0.58333325       0.25000928 </v>
    <v>       0.77777765       0.66666674       0.74999076 </v>
    <v>       0.88888899       0.83333325       0.25000928 </v>
    <v>       0.77777765       0.91666674       0.74999076 </v>
    <v>       0.11111099       0.91666674       0.74999076 </v>
    <v>       0.88888899       0.08333325       0.25000928 </v>
    <v>       0.22222233       0.83333325       0.25000928 </v>
    <v>       0.44444432       0.16666674       0.74999076 </v>
    <v>       0.22222233       0.58333325       0.25000928 </v>
    <v>       0.11111099       0.41666674       0.74999076 </v>
    <v>       0.22222233       0.33333325       0.25000928 </v>
    <v>       0.22222233       0.08333325       0.25000928 </v>
    <v>       0.11111099       0.16666674       0.74999076 </v>
    <v>       0.11111099       0.66666674       0.74999076 </v>
    <v>       0.77777765       0.16666674       0.29487388 </v>
    <v>       0.88888899       0.08333325       0.79485533 </v>
    <v>       0.77777765       0.16666674       0.20514467 </v>
    <v>       0.88888899       0.08333325       0.70512613 </v>
    <v>       0.22222233       0.08333325       0.70512613 </v>
    <v>       0.11111099       0.16666674       0.20514467 </v>
    <v>       0.77777765       0.41666674       0.29487388 </v>
    <v>       0.88888899       0.33333325       0.79485533 </v>
    <v>       0.11111099       0.66666674       0.20514467 </v>
    <v>       0.55555566       0.83333325       0.70512613 </v>
    <v>       0.88888899       0.33333325       0.70512613 </v>
    <v>       0.22222233       0.08333325       0.79485533 </v>
    <v>       0.11111099       0.16666674       0.29487388 </v>
    <v>       0.77777765       0.66666674       0.29487388 </v>
    <v>       0.88888899       0.58333325       0.79485533 </v>
    <v>       0.77777765       0.66666674       0.20514467 </v>
    <v>       0.88888899       0.58333325       0.70512613 </v>
    <v>       0.77777765       0.91666674       0.29487388 </v>
    <v>       0.88888899       0.83333325       0.79485533 </v>
    <v>       0.77777765       0.41666674       0.20514467 </v>
    <v>       0.44444432       0.91666674       0.20514467 </v>
    <v>       0.44444432       0.91666674       0.29487388 </v>
    <v>       0.22222233       0.58333325       0.70512613 </v>
    <v>       0.22222233       0.58333325       0.79485533 </v>
    <v>       0.11111099       0.91666674       0.29487388 </v>
    <v>       0.22222233       0.83333325       0.79485533 </v>
    <v>       0.11111099       0.91666674       0.20514467 </v>
    <v>       0.22222233       0.83333325       0.70512613 </v>
    <v>       0.11111099       0.66666674       0.29487388 </v>
    <v>       0.77777765       0.91666674       0.20514467 </v>
    <v>       0.44444432       0.16666674       0.29487388 </v>
    <v>       0.55555566       0.08333325       0.79485533 </v>
    <v>       0.44444432       0.16666674       0.20514467 </v>
    <v>       0.55555566       0.08333325       0.70512613 </v>
    <v>       0.44444432       0.41666674       0.29487388 </v>
    <v>       0.55555566       0.33333325       0.79485533 </v>
    <v>       0.44444432       0.41666674       0.20514467 </v>
    <v>       0.55555566       0.33333325       0.70512613 </v>
    <v>       0.22222233       0.33333325       0.70512613 </v>
    <v>       0.11111099       0.41666674       0.20514467 </v>
    <v>       0.44444432       0.66666674       0.29487388 </v>
    <v>       0.55555566       0.58333325       0.79485533 </v>
    <v>       0.44444432       0.66666674       0.20514467 </v>
    <v>       0.55555566       0.58333325       0.70512613 </v>
    <v>       0.22222233       0.33333325       0.79485533 </v>
    <v>       0.11111099       0.41666674       0.29487388 </v>
    <v>       0.55555566       0.83333325       0.79485533 </v>
    <v>       0.88888899       0.83333325       0.70512613 </v>
   </varray>
  </structure>
  <varray name="forces" >
   <v>      -0.06853517       0.00560732      -0.01851205 </v>
   <v>       0.01612624      -0.03105641       0.00126939 </v>
   <v>       0.05644412       0.01121936       0.02064075 </v>
   <v>       0.05750577       0.04549847      -0.06388459 </v>
   <v>       0.02912575       0.01707126      -0.01145337 </v>
   <v>      -0.06884499      -0.11115595      -0.00355500 </v>
   <v>      -1.11895071       0.28976603      -2.48945866 </v>
   <v>      -0.10355321      -0.01619182      -0.01674398 </v>
   <v>      -0.15136816       0.00406030      -0.76240546 </v>
   <v>      -0.05814516      -0.01544984      -0.01304886 </v>
   <v>      -0.04936773       0.01113760       0.36406898 </v>
   <v>      -0.00283474      -0.00410198       0.01407698 </v>
   <v>       0.02592914      -0.01020743       0.01129280 </v>
   <v>      -0.02079142      -0.11268974      -0.27770765 </v>
   <v>      -0.58410146       0.45736340      -2.44518836 </v>
   <v>      -0.00307777      -0.00390921      -0.01285815 </v>
   <v>      -0.00352228       0.00215903       0.00139886 </v>
   <v>       0.01228904       0.00525789       0.00905174 </v>
   <v>       0.00154952      -0.00874910       0.01760374 </v>
   <v>      -0.00830040      -0.01273681       0.02949269 </v>
   <v>      -0.02054550      -0.02455443      -0.00275575 </v>
   <v>       0.01602595       0.17617988       0.00257446 </v>
   <v>       0.01613331       0.17616051       0.00242918 </v>
   <v>       0.00375219      -0.14494626       0.02874597 </v>
   <v>       0.01612999       0.17613146       0.00253778 </v>
   <v>      -0.01058782      -0.18580898      -0.00474267 </v>
   <v>       0.01611830       0.17608330       0.00253972 </v>
   <v>      -0.03611289      -0.14742875       0.00090661 </v>
   <v>       0.01774867       0.17648127       0.00252201 </v>
   <v>       0.04114102      -0.15856507       0.05232076 </v>
   <v>       0.00737733      -0.12752035       0.02557918 </v>
   <v>       0.01799405       0.17630133       0.00260147 </v>
   <v>      -0.02152373      -0.22226292       0.02505940 </v>
   <v>       0.01792179       0.17616554       0.00264444 </v>
   <v>      -0.01357432      -0.15108353       0.04518371 </v>
   <v>       0.01991988      -0.13025439       0.05623105 </v>
   <v>       0.01786804       0.17635412       0.00250967 </v>
   <v>       0.01029667       0.17783271       0.00240778 </v>
   <v>       0.04741249      -0.18260679       0.32821265 </v>
   <v>       0.01021181       0.17800967       0.00238638 </v>
   <v>      -0.02611058      -0.17873541      -0.02739140 </v>
   <v>       0.01027892       0.17809378       0.00221898 </v>
   <v>       0.01040349       0.17802959       0.00225256 </v>
   <v>      -0.00208974      -0.25452701      -0.19656282 </v>
   <v>      -0.03033170      -0.21640812      -0.01284754 </v>
   <v>      -0.00847695      -0.08850844      -0.19283558 </v>
   <v>       0.02063233       0.09083284      -0.17439545 </v>
   <v>      -0.00832554      -0.08841252       0.19048769 </v>
   <v>      -0.29346084      -0.09133795       0.66270097 </v>
   <v>       2.03875370      -0.46364116       4.73891476 </v>
   <v>      -0.00756264      -0.08828636       0.19051386 </v>
   <v>      -0.00844338      -0.08866884      -0.19286415 </v>
   <v>       0.00450573       0.07745299      -0.19796930 </v>
   <v>      -0.00745301      -0.08832124       0.19050151 </v>
   <v>       0.01050810       0.09881726       0.17832768 </v>
   <v>      -0.01332631       0.07741898       0.17262273 </v>
   <v>       0.01053424       0.08676057      -0.14700388 </v>
   <v>      -0.00752906      -0.08842864      -0.19264257 </v>
   <v>      -0.00847242      -0.08872679      -0.19287952 </v>
   <v>       0.01080188       0.08993203      -0.19197762 </v>
   <v>      -0.00838585      -0.08843411       0.19043333 </v>
   <v>       0.00526952       0.09911459       0.17265332 </v>
   <v>      -0.00837491      -0.08867862      -0.19292114 </v>
   <v>       0.01629866       0.09594751      -0.19209330 </v>
   <v>      -0.00834586      -0.08848461       0.19047437 </v>
   <v>      -0.00756714      -0.08842669       0.19041314 </v>
   <v>      -0.00764079      -0.08860581      -0.19290381 </v>
   <v>       0.01145714       0.10003465       0.19069020 </v>
   <v>       0.00723088       0.08551331      -0.18919443 </v>
   <v>      -0.00754263      -0.08857042      -0.19283993 </v>
   <v>      -0.01485176       0.09085226      -0.18574613 </v>
   <v>      -0.00758354      -0.08831756       0.19052823 </v>
   <v>       0.03764061       0.08183484       0.15775550 </v>
   <v>      -0.00747935      -0.08863348      -0.19291851 </v>
   <v>      -0.00828650      -0.08845388       0.19047025 </v>
   <v>      -0.00755596      -0.08845295      -0.19273711 </v>
   <v>      -0.00289054       0.09064467      -0.18606024 </v>
   <v>      -0.00753603      -0.08837333       0.19042819 </v>
   <v>       0.00584956       0.05028562       0.11163586 </v>
   <v>      -0.00751336      -0.08855794      -0.19273803 </v>
   <v>       0.00794944       0.07615522      -0.19945644 </v>
   <v>      -0.00751103      -0.08838944       0.19042655 </v>
   <v>       0.00981200       0.10531926       0.13255780 </v>
   <v>       0.21241954       0.37494143       0.71064301 </v>
   <v>      -0.00759858      -0.08818448       0.19055909 </v>
   <v>      -0.00763231      -0.08876215      -0.19292404 </v>
   <v>       0.00176236       0.08418438      -0.19506222 </v>
   <v>      -0.00759422      -0.08849798       0.19043114 </v>
   <v>       0.00797780       0.09491003       0.17864666 </v>
   <v>       0.01014029       0.08332587      -0.17854059 </v>
   <v>      -0.00760332      -0.08839569      -0.19281839 </v>
   <v>       0.01293860       0.08577639      -0.19551773 </v>
   <v>      -0.02337252       0.03848285       0.15258089 </v>
  </varray>
  <varray name="stress" >
   <v>       2.56395144       0.09218625       2.05084429 </v>
   <v>       0.09218619      -6.02646370      -0.15134473 </v>
   <v>       2.05084421      -0.15134471      -2.96168380 </v>
  </varray>
  <energy>
   <i name="e_fr_energy">   -671.32565689 </i>
   <i name="e_wo_entrp">   -671.26683949 </i>
   <i name="e_0_energy">     -0.11763479 </i>
  </energy>
  <time name="totalsc">  585.61  592.34</time>
 </calculation>
 <calculation>
  <scstep>
   <time name="dav">    5.22    5.23</time>
   <time name="total">    6.19    6.21</time>
   <energy>
    <i name="alphaZ">    562.39184220 </i>
    <i name="ewald">  42575.14711011 </i>
    <i name="hartreedc"> -61955.74300898 </i>
    <i name="XCdc">   -697.47389443 </i>
    <i name="pawpsdc">  43005.34180822 </i>
    <i name="pawaedc"> -41173.06219716 </i>
    <i name="eentropy">     -0.11490297 </i>
    <i name="bandstr">  -3352.94017761 </i>
    <i name="atom">  20380.58938199 </i>
    <i name="e_fr_energy">   -655.86403864 </i>
    <i name="e_wo_entrp">   -655.74913567 </i>
    <i name="e_0_energy">   -655.80658715 </i>
   </energy>
  </scstep>
  <scstep>
   <time name="dav">    6.46    6.49</time>
   <time name="total">    7.44    7.47</time>
   <energy>
    <i name="e_fr_energy">   -656.72519592 </i>
    <i name="e_wo_entrp">   -656.49140946 </i>
    <i name="e_0_energy">   -656.60830269 </i>
   </energy>
  </scstep>
  <scstep>
   <time name="dav">    7.06    7.11</time>
   <time name="total">    7.98    8.04</time>
   <energy>
    <i name="e_fr_energy">   -663.80554872 </i>
    <i name="e_wo_entrp">   -663.72150146 </i>
    <i name="e_0_energy">   -663.76352509 </i>
   </energy>
  </scstep>
  <scstep>
   <time name="dav">    7.31    7.37</time>
   <time name="total">    8.23    8.32</time>
   <energy>
    <i name="e_fr_energy">   -656.70140438 </i>
    <i name="e_wo_entrp">   -656.62615682 </i>
    <i name="e_0_energy">   -656.66378060 </i>
   </energy>
  </scstep>
  <scstep>
   <time name="dav">    7.15    7.18</time>
   <time name="total">    8.08    8.11</time>
   <energy>
    <i name="e_fr_energy">   -656.59803549 </i>
    <i name="e_wo_entrp">   -656.52444592 </i>
    <i name="e_0_energy">   -656.56124070 </i>
   </energy>
  </scstep>
  <scstep>
   <time name="dav">    7.46    7.52</time>
   <time name="total">    8.42    8.49</time>
   <energy>
    <i name="e_fr_energy">   -656.64481164 </i>
    <i name="e_wo_entrp">   -656.49216743 </i>
    <i name="e_0_energy">   -656.56848954 </i>
   </energy>
  </scstep>
  <scstep>
   <time name="dav">    6.46    6.52</time>
   <time name="total">    7.41    7.48</time>
   <energy>
    <i name="e_fr_energy">   -656.84104894 </i>
    <i name="e_wo_entrp">   -656.64931219 </i>
    <i name="e_0_energy">   -656.74518056 </i>
   </energy>
  </scstep>
  <scstep>
   <time name="dav">    6.62    6.94</time>
   <time name="total">    7.54    7.87</time>
   <energy>
    <i name="e_fr_energy">   -656.58612555 </i>
    <i name="e_wo_entrp">   -656.48307564 </i>
    <i name="e_0_energy">   -656.53460060 </i>
   </energy>
  </scstep>
  <scstep>
   <time name="dav">    6.64    6.66</time>
   <time name="total">    7.58    7.61</time>
   <energy>
    <i name="e_fr_energy">   -656.53171955 </i>
    <i name="e_wo_entrp">   -656.41885399 </i>
    <i name="e_0_energy">   -656.47528677 </i>
   </energy>
  </scstep>
  <scstep>
   <time name="dav">    7.27    7.31</time>
   <time name="total">    8.21    8.26</time>
   <energy>
    <i name="e_fr_energy">   -656.52445776 </i>
    <i name="e_wo_entrp">   -656.42473241 </i>
    <i name="e_0_energy">   -656.47459508 </i>
   </energy>
  </scstep>
  <scstep>
   <time name="dav">    7.31    7.35</time>
   <time name="total">    8.25    8.30</time>
   <energy>
    <i name="e_fr_energy">   -656.51584735 </i>
    <i name="e_wo_entrp">   -656.40309440 </i>
    <i name="e_0_energy">   -656.45947087 </i>
   </energy>
  </scstep>
  <scstep>
   <time name="dav">    7.27    7.30</time>
   <time name="total">    8.23    8.26</time>
   <energy>
    <i name="e_fr_energy">   -656.50977508 </i>
    <i name="e_wo_entrp">   -656.39911916 </i>
    <i name="e_0_energy">   -656.45444712 </i>
   </energy>
  </scstep>
  <scstep>
   <time name="dav">    6.95    6.98</time>
   <time name="total">    7.91    7.95</time>
   <energy>
    <i name="e_fr_energy">   -656.50679413 </i>
    <i name="e_wo_entrp">   -656.39100327 </i>
    <i name="e_0_energy">   -656.44889870 </i>
   </energy>
  </scstep>
  <scstep>
   <time name="dav">    6.83    6.87</time>
   <time name="total">    7.79    7.83</time>
   <energy>
    <i name="e_fr_energy">   -656.50357588 </i>
    <i name="e_wo_entrp">   -656.38233601 </i>
    <i name="e_0_energy">   -656.44295594 </i>
   </energy>
  </scstep>
  <scstep>
   <time name="dav">    6.36    6.38</time>
   <time name="total">    7.31    7.34</time>
   <energy>
    <i name="e_fr_energy">   -656.50226956 </i>
    <i name="e_wo_entrp">   -656.38364162 </i>
    <i name="e_0_energy">   -656.44295559 </i>
   </energy>
  </scstep>
  <scstep>
   <time name="dav">    6.13    6.15</time>
   <time name="total">    7.09    7.12</time>
   <energy>
    <i name="e_fr_energy">   -656.50046832 </i>
    <i name="e_wo_entrp">   -656.37604950 </i>
    <i name="e_0_energy">   -656.43825891 </i>
   </energy>
  </scstep>
  <scstep>
   <time name="dav">    4.55    4.59</time>
   <time name="total">    5.50    5.62</time>
   <energy>
    <i name="e_fr_energy">   -656.49975153 </i>
    <i name="e_wo_entrp">   -656.37733342 </i>
    <i name="e_0_energy">   -656.43854247 </i>
   </energy>
  </scstep>
  <scstep>
   <time name="dav">    4.33    4.37</time>
   <time name="total">    5.29    5.34</time>
   <energy>
    <i name="e_fr_energy">   -656.49919700 </i>
    <i name="e_wo_entrp">   -656.37650852 </i>
    <i name="e_0_energy">   -656.43785276 </i>
   </energy>
  </scstep>
  <scstep>
   <time name="dav">    4.58    4.60</time>
   <time name="total">    5.54    5.57</time>
   <energy>
    <i name="e_fr_energy">   -656.49790569 </i>
    <i name="e_wo_entrp">   -656.37572230 </i>
    <i name="e_0_energy">   -656.43681399 </i>
   </energy>
  </scstep>
  <scstep>
   <time name="dav">    4.33    4.35</time>
   <time name="total">    5.30    5.32</time>
   <energy>
    <i name="e_fr_energy">   -656.49694388 </i>
    <i name="e_wo_entrp">   -656.37412220 </i>
    <i name="e_0_energy">   -656.43553304 </i>
   </energy>
  </scstep>
  <scstep>
   <time name="dav">    3.96    3.98</time>
   <time name="total">    4.92    4.95</time>
   <energy>
    <i name="e_fr_energy">   -656.49627855 </i>
    <i name="e_wo_entrp">   -656.37352411 </i>
    <i name="e_0_energy">   -656.43490133 </i>
   </energy>
  </scstep>
  <scstep>
   <time name="dav">    4.42    4.44</time>
   <time name="total">    5.39    5.41</time>
   <energy>
    <i name="e_fr_energy">   -656.49540431 </i>
    <i name="e_wo_entrp">   -656.37261400 </i>
    <i name="e_0_energy">   -656.43400916 </i>
   </energy>
  </scstep>
  <scstep>
   <time name="dav">    5.09    5.15</time>
   <time name="total">    6.06    6.13</time>
   <energy>
    <i name="e_fr_energy">   -656.49399218 </i>
    <i name="e_wo_entrp">   -656.37009447 </i>
    <i name="e_0_energy">   -656.43204333 </i>
   </energy>
  </scstep>
  <scstep>
   <time name="dav">    4.02    4.06</time>
   <time name="total">    5.02    5.08</time>
   <energy>
    <i name="e_fr_energy">   -656.49353489 </i>
    <i name="e_wo_entrp">   -656.36874964 </i>
    <i name="e_0_energy">   -656.43114226 </i>
   </energy>
  </scstep>
  <scstep>
   <time name="dav">    4.73    4.78</time>
   <time name="total">    5.68    5.78</time>
   <energy>
    <i name="e_fr_energy">   -656.49307508 </i>
    <i name="e_wo_entrp">   -656.36322817 </i>
    <i name="e_0_energy">   -656.42815163 </i>
   </energy>
  </scstep>
  <scstep>
   <time name="dav">    3.66    3.67</time>
   <time name="total">    4.04    4.06</time>
   <energy>
    <i name="alphaZ">    562.39184220 </i>
    <i name="ewald">  42575.14711011 </i>
    <i name="hartreedc"> -61960.85225793 </i>
    <i name="XCdc">   -697.36815021 </i>
    <i name="pawpsdc">  43569.42339966 </i>
    <i name="pawaedc"> -41738.26095820 </i>
    <i name="eentropy">     -0.12833059 </i>
    <i name="bandstr">  -3347.43506789 </i>
    <i name="atom">  20380.58938199 </i>
    <i name="e_fr_energy">   -656.49303086 </i>
    <i name="e_wo_entrp">   -656.36470027 </i>
    <i name="e_0_energy">   -656.42886557 </i>
   </energy>
  </scstep>
  <structure>
   <crystal>
    <varray name="basis" >
     <v>       9.57094646       0.00000000       0.00000000 </v>
     <v>      -6.38062803      11.05157872       0.00000000 </v>
     <v>       0.00000000       0.00000000      34.88026251 </v>
    </varray>
    <i name="volume">   3689.42726549 </i>
    <varray name="rec_basis" >
     <v>       0.10448287       0.06032318       0.00000000 </v>
     <v>       0.00000000       0.09048481       0.00000000 </v>
     <v>       0.00000000       0.00000000       0.02866951 </v>
    </varray>
   </crystal>
   <varray name="positions" >
    <v>       0.26774460       0.24578991       0.52791260 </v>
    <v>       0.27935339       0.13888525       0.53062696 </v>
    <v>       0.35697856       0.32405464       0.55893765 </v>
    <v>       0.42515453       0.26555251       0.58109634 </v>
    <v>       0.37603507       0.14985675       0.56342927 </v>
    <v>       0.92674233       0.02370794       0.58881422 </v>
    <v>       0.09441688       0.09596300       0.63804758 </v>
    <v>       0.02470472       0.99758704       0.61409408 </v>
    <v>       0.04646934       0.17931837       0.63223342 </v>
    <v>       0.94199133       0.13676780       0.60097318 </v>
    <v>       0.17301375       0.15733842       0.58422172 </v>
    <v>       0.40832465       0.08354186       0.57290207 </v>
    <v>       0.03739067       0.91731132       0.61335745 </v>
    <v>       0.08755679       0.26462730       0.64753140 </v>
    <v>       0.18070378       0.10521632       0.66076202 </v>
    <v>       0.85281603       0.96787618       0.56533782 </v>
    <v>       0.21996545       0.06083782       0.51179650 </v>
    <v>       0.19723852       0.26218570       0.50693053 </v>
    <v>       0.36921455       0.41202215       0.56474243 </v>
    <v>       0.50280330       0.30293681       0.60607620 </v>
    <v>       0.88666271       0.18357415       0.58732492 </v>
    <v>       0.55614915       0.08410231       0.25001284 </v>
    <v>       0.55614963       0.33410223       0.25001264 </v>
    <v>       0.44404142       0.41603402       0.75003052 </v>
    <v>       0.55614953       0.58410210       0.25001279 </v>
    <v>       0.44385022       0.66585564       0.74998420 </v>
    <v>       0.55614933       0.83410189       0.25001280 </v>
    <v>       0.44383325       0.91602318       0.74999201 </v>
    <v>       0.88949204       0.33410363       0.25001277 </v>
    <v>       0.77752358       0.16597457       0.75006312 </v>
    <v>       0.77744373       0.41611009       0.75002614 </v>
    <v>       0.88949276       0.58410284       0.25001288 </v>
    <v>       0.77702234       0.66569651       0.75002542 </v>
    <v>       0.88949200       0.83410225       0.25001294 </v>
    <v>       0.77726956       0.91600723       0.75005325 </v>
    <v>       0.11083233       0.91609815       0.75006853 </v>
    <v>       0.88949227       0.08410307       0.25001275 </v>
    <v>       0.22279175       0.83410953       0.25001261 </v>
    <v>       0.44415189       0.16586962       0.75044471 </v>
    <v>       0.22279183       0.58411030       0.25001258 </v>
    <v>       0.11045923       0.41588652       0.74995287 </v>
    <v>       0.22279242       0.33411067       0.25001235 </v>
    <v>       0.22279286       0.08411039       0.25001240 </v>
    <v>       0.11035974       0.16555567       0.74971889 </v>
    <v>       0.11032832       0.66572207       0.74997299 </v>
    <v>       0.77747735       0.16628038       0.29460717 </v>
    <v>       0.88925733       0.08372975       0.79461412 </v>
    <v>       0.77747839       0.16628080       0.20540813 </v>
    <v>       0.88714399       0.08293454       0.70604271 </v>
    <v>       0.23114946       0.08130935       0.71168049 </v>
    <v>       0.11081594       0.16628135       0.20540817 </v>
    <v>       0.77747705       0.41627968       0.29460713 </v>
    <v>       0.88913710       0.33367135       0.79458152 </v>
    <v>       0.11081639       0.66628120       0.20540815 </v>
    <v>       0.55589620       0.83376461       0.70537278 </v>
    <v>       0.88904712       0.33367120       0.70536489 </v>
    <v>       0.22252791       0.08371198       0.79465201 </v>
    <v>       0.11081569       0.16628073       0.29460744 </v>
    <v>       0.77747674       0.66627943       0.29460711 </v>
    <v>       0.88920516       0.58372582       0.79458981 </v>
    <v>       0.77747803       0.66628071       0.20540806 </v>
    <v>       0.88920399       0.58376590       0.70536493 </v>
    <v>       0.77747737       0.91627964       0.29460705 </v>
    <v>       0.88925037       0.83375208       0.79458965 </v>
    <v>       0.77747808       0.41628049       0.20540812 </v>
    <v>       0.44414884       0.91628074       0.20540803 </v>
    <v>       0.44414795       0.91627996       0.29460708 </v>
    <v>       0.22257119       0.58376992       0.70538987 </v>
    <v>       0.22250763       0.58370653       0.79459365 </v>
    <v>       0.11081521       0.91628011       0.29460717 </v>
    <v>       0.22241186       0.83372984       0.79459842 </v>
    <v>       0.11081574       0.91628122       0.20540819 </v>
    <v>       0.22265021       0.83369047       0.70534432 </v>
    <v>       0.11081535       0.66627984       0.29460706 </v>
    <v>       0.77747847       0.91628062       0.20540811 </v>
    <v>       0.44414882       0.16628063       0.29460731 </v>
    <v>       0.55580488       0.08372893       0.79459799 </v>
    <v>       0.44414915       0.16628097       0.20540805 </v>
    <v>       0.55573148       0.08355276       0.70528053 </v>
    <v>       0.44414873       0.41628017       0.29460731 </v>
    <v>       0.55581735       0.33366568       0.79457946 </v>
    <v>       0.44414923       0.41628090       0.20540805 </v>
    <v>       0.55591161       0.33379299       0.70530947 </v>
    <v>       0.22438417       0.33496995       0.70610902 </v>
    <v>       0.11081606       0.41628180       0.20540823 </v>
    <v>       0.44414754       0.66627928       0.29460705 </v>
    <v>       0.55580953       0.58370073       0.79458554 </v>
    <v>       0.44414850       0.66628043       0.20540806 </v>
    <v>       0.55587207       0.58374755       0.70537322 </v>
    <v>       0.22251593       0.33369698       0.79460839 </v>
    <v>       0.11081542       0.41628088       0.29460720 </v>
    <v>       0.55587050       0.83370768       0.79458491 </v>
    <v>       0.88888317       0.83350123       0.70533717 </v>
   </varray>
  </structure>
  <varray name="forces" >
   <v>       0.26324915      -0.10472270       0.23491096 </v>
   <v>      -0.07568992       0.17588752       0.06955408 </v>
   <v>      -0.16094111      -0.03582976      -0.08877801 </v>
   <v>       0.08710794      -0.07128398       0.07710666 </v>
   <v>      -0.04273006       0.02651777      -0.04895586 </v>
   <v>      -0.36861545      -0.13000919      -0.43296236 </v>
   <v>       3.15904577       0.35307290       3.74069960 </v>
   <v>      -0.58190611      -1.48228441      -1.83214332 </v>
   <v>      -1.38347973       1.55730367      -0.32447799 </v>
   <v>      -0.97660008      -0.30657660      -1.05480370 </v>
   <v>       0.21078886       0.24660349      -1.11714893 </v>
   <v>       0.00439678      -0.00534462       0.00407167 </v>
   <v>      -0.03733274       0.16965120       0.14166554 </v>
   <v>       0.06197807      -0.27737686      -0.31613293 </v>
   <v>      -0.54778791       0.11241657      -0.98381724 </v>
   <v>      -0.07157527      -0.04406156      -0.12873545 </v>
   <v>       0.00038183      -0.04204706      -0.01639655 </v>
   <v>      -0.09211570       0.02301430      -0.06897947 </v>
   <v>       0.02527582      -0.00114401       0.01294519 </v>
   <v>      -0.00274721      -0.00958316      -0.00971296 </v>
   <v>      -0.08977667      -0.04191037      -0.09218365 </v>
   <v>      -0.00904274      -0.08086791      -0.00265875 </v>
   <v>      -0.00909217      -0.08081247      -0.00257740 </v>
   <v>       0.10365726       0.14266610       0.19423506 </v>
   <v>      -0.00903460      -0.08093142      -0.00267115 </v>
   <v>      -0.00468311       0.08351703       0.00124858 </v>
   <v>      -0.00907082      -0.08085045      -0.00271877 </v>
   <v>       0.02269589       0.03104691       0.04047449 </v>
   <v>      -0.01172693      -0.08145503      -0.00311316 </v>
   <v>      -0.11952230       0.14070866       0.16955846 </v>
   <v>      -0.01334790       0.05201594      -0.00916761 </v>
   <v>      -0.01185743      -0.08147250      -0.00320499 </v>
   <v>       0.01458106       0.11488502       0.01209478 </v>
   <v>      -0.01175970      -0.08146088      -0.00316593 </v>
   <v>      -0.04222807      -0.00707818       0.13068074 </v>
   <v>       0.13746229      -1.15615249       1.18976564 </v>
   <v>      -0.01172110      -0.08141689      -0.00306093 </v>
   <v>      -0.00567636      -0.08157727      -0.00249872 </v>
   <v>       1.54295669       0.88411362       1.39405795 </v>
   <v>      -0.00564177      -0.08158185      -0.00249074 </v>
   <v>      -0.02671413       0.14751815       0.13626752 </v>
[...]
       <r>   -17.3525     0.0000     4.0000 </r>
       <r>   -17.2804     0.0000     4.0000 </r>
       <r>   -17.2084     0.0000     4.0000 </r>
       <r>   -17.1363     0.0000     4.0000 </r>
       <r>   -17.0642     0.0000     4.0000 </r>
       <r>   -16.9922     0.0000     4.0000 </r>
       <r>   -16.9201     0.0000     4.0000 </r>
       <r>   -16.8481     0.0000     4.0000 </r>
       <r>   -16.7760     0.0000     4.0000 </r>
       <r>   -16.7040     0.0000     4.0000 </r>
       <r>   -16.6319     0.0000     4.0000 </r>
       <r>   -16.5598     0.0000     4.0000 </r>
       <r>   -16.4878     0.0000     4.0000 </r>
       <r>   -16.4157     0.0000     4.0000 </r>
       <r>   -16.3437     0.0000     4.0000 </r>
       <r>   -16.2716     0.0000     4.0000 </r>
       <r>   -16.1996     0.0000     4.0000 </r>
       <r>   -16.1275     0.0000     4.0000 </r>
       <r>   -16.0555     0.0045     4.0003 </r>
       <r>   -15.9834     0.1585     4.0117 </r>
       <r>   -15.9113     2.0984     4.1629 </r>
       <r>   -15.8393    10.6588     4.9310 </r>
       <r>   -15.7672    21.0090     6.4448 </r>
       <r>   -15.6952    16.1596     7.6092 </r>
       <r>   -15.6231     4.8395     7.9579 </r>
       <r>   -15.5511     0.5591     7.9982 </r>
       <r>   -15.4790     0.0246     8.0000 </r>
       <r>   -15.4070     0.0004     8.0000 </r>
       <r>   -15.3349     0.0002     8.0000 </r>
       <r>   -15.2628     0.0167     8.0012 </r>
       <r>   -15.1908     0.5035     8.0375 </r>
       <r>   -15.1187     5.7426     8.4513 </r>
       <r>   -15.0467    25.1791    10.2656 </r>
       <r>   -14.9746    42.9193    13.3582 </r>
       <r>   -14.9026    29.0567    15.4519 </r>
       <r>   -14.8305    13.2708    16.4081 </r>
       <r>   -14.7584    26.4540    18.3143 </r>
       <r>   -14.6864    46.6608    21.6765 </r>
       <r>   -14.6143    51.5809    25.3932 </r>
       <r>   -14.5423    65.0070    30.0774 </r>
       <r>   -14.4702    57.0954    34.1914 </r>
       <r>   -14.3982    21.8260    35.7641 </r>
       <r>   -14.3261     5.7802    36.1806 </r>
       <r>   -14.2541    16.5450    37.3728 </r>
       <r>   -14.1820    45.3448    40.6402 </r>
       <r>   -14.1099    77.4741    46.2227 </r>
       <r>   -14.0379   124.5953    55.2005 </r>
       <r>   -13.9658   140.6858    65.3378 </r>
       <r>   -13.8938    95.5638    72.2237 </r>
       <r>   -13.8217    87.2090    78.5077 </r>
       <r>   -13.7497   126.7937    87.6439 </r>
       <r>   -13.6776   133.5877    97.2697 </r>
       <r>   -13.6055    92.6707   103.9472 </r>
       <r>   -13.5335    43.5623   107.0861 </r>
       <r>   -13.4614    11.3264   107.9023 </r>
       <r>   -13.3894     1.2968   107.9957 </r>
       <r>   -13.3173     0.0587   107.9999 </r>
       <r>   -13.2453     0.0010   108.0000 </r>
       <r>   -13.1732     0.0000   108.0000 </r>
       <r>   -13.1012     0.0000   108.0000 </r>
       <r>   -13.0291     0.0000   108.0000 </r>
       <r>   -12.9570     0.0000   108.0000 </r>
       <r>   -12.8850     0.0000   108.0000 </r>
       <r>   -12.8129     0.0000   108.0000 </r>
       <r>   -12.7409     0.0000   108.0000 </r>
       <r>   -12.6688     0.0000   108.0000 </r>
       <r>   -12.5968     0.0000   108.0000 </r>
       <r>   -12.5247     0.0000   108.0000 </r>
       <r>   -12.4527     0.0000   108.0000 </r>
       <r>   -12.3806     0.0000   108.0000 </r>
       <r>   -12.3085     0.0000   108.0000 </r>
       <r>   -12.2365     0.0000   108.0000 </r>
       <r>   -12.1644     0.0000   108.0000 </r>
       <r>   -12.0924     0.0000   108.0000 </r>
       <r>   -12.0203     0.0000   108.0000 </r>
       <r>   -11.9483     0.0000   108.0000 </r>
       <r>   -11.8762     0.0000   108.0000 </r>
       <r>   -11.8041     0.0000   108.0000 </r>
       <r>   -11.7321     0.0000   108.0000 </r>
       <r>   -11.6600     0.0000   108.0000 </r>
       <r>   -11.5880     0.0000   108.0000 </r>
       <r>   -11.5159     0.0000   108.0000 </r>
       <r>   -11.4439     0.0000   108.0000 </r>
       <r>   -11.3718     0.0000   108.0000 </r>
       <r>   -11.2998     0.0000   108.0000 </r>
       <r>   -11.2277     0.0000   108.0000 </r>
       <r>   -11.1556     0.0000   108.0000 </r>
       <r>   -11.0836     0.0000   108.0000 </r>
       <r>   -11.0115     0.0000   108.0000 </r>
       <r>   -10.9395     0.0000   108.0000 </r>
       <r>   -10.8674     0.0000   108.0000 </r>
       <r>   -10.7954     0.0000   108.0000 </r>
       <r>   -10.7233     0.0000   108.0000 </r>
       <r>   -10.6513     0.0000   108.0000 </r>
       <r>   -10.5792     0.0000   108.0000 </r>
       <r>   -10.5071     0.0000   108.0000 </r>
       <r>   -10.4351     0.0000   108.0000 </r>
       <r>   -10.3630     0.0000   108.0000 </r>
       <r>   -10.2910     0.0000   108.0000 </r>
       <r>   -10.2189     0.0000   108.0000 </r>
       <r>   -10.1469     0.0000   108.0000 </r>
       <r>   -10.0748     0.0000   108.0000 </r>
       <r>   -10.0027     0.0000   108.0000 </r>
       <r>    -9.9307     0.0002   108.0000 </r>
       <r>    -9.8586     0.0133   108.0010 </r>
       <r>    -9.7866     0.3189   108.0240 </r>
       <r>    -9.7145     3.0218   108.2417 </r>
       <r>    -9.6425    11.8687   109.0969 </r>
       <r>    -9.5704    21.0110   110.6109 </r>
       <r>    -9.4984    22.3206   112.2192 </r>
       <r>    -9.4263    25.6136   114.0648 </r>
       <r>    -9.3542    26.8931   116.0026 </r>
       <r>    -9.2822    18.4073   117.3290 </r>
       <r>    -9.2101     7.9012   117.8983 </r>
       <r>    -9.1381     3.9897   118.1858 </r>
       <r>    -9.0660     8.2884   118.7830 </r>
       <r>    -8.9940    10.5491   119.5432 </r>
       <r>    -8.9219     5.2592   119.9221 </r>
       <r>    -8.8498     1.0060   119.9946 </r>
       <r>    -8.7778     0.0730   119.9999 </r>
       <r>    -8.7057     0.0020   120.0000 </r>
       <r>    -8.6337     0.0000   120.0000 </r>
       <r>    -8.5616     0.0000   120.0000 </r>
       <r>    -8.4896     0.0000   120.0000 </r>
       <r>    -8.4175     0.0000   120.0000 </r>
       <r>    -8.3455     0.0000   120.0000 </r>
       <r>    -8.2734     0.0000   120.0000 </r>
       <r>    -8.2013     0.0000   120.0000 </r>
       <r>    -8.1293     0.0000   120.0000 </r>
       <r>    -8.0572     0.0000   120.0000 </r>
       <r>    -7.9852     0.0000   120.0000 </r>
       <r>    -7.9131     0.0000   120.0000 </r>
       <r>    -7.8411     0.0000   120.0000 </r>
       <r>    -7.7690     0.0001   120.0000 </r>
       <r>    -7.6970     0.0108   120.0008 </r>
       <r>    -7.6249     0.3043   120.0227 </r>
       <r>    -7.5528     3.2657   120.2580 </r>
       <r>    -7.4808    13.6712   121.2431 </r>
       <r>    -7.4087    24.3367   122.9967 </r>
       <r>    -7.3367    25.8900   124.8623 </r>
       <r>    -7.2646    24.6378   126.6376 </r>
       <r>    -7.1926    15.2234   127.7345 </r>
       <r>    -7.1205    10.5553   128.4951 </r>
       <r>    -7.0484    38.2162   131.2488 </r>
       <r>    -6.9764    96.9331   138.2334 </r>
       <r>    -6.9043   116.3396   146.6164 </r>
       <r>    -6.8323    75.1182   152.0291 </r>
       <r>    -6.7602    74.7951   157.4185 </r>
       <r>    -6.6882   124.3384   166.3779 </r>
       <r>    -6.6161   128.6831   175.6503 </r>
       <r>    -6.5441    90.1170   182.1437 </r>
       <r>    -6.4720    53.0744   185.9681 </r>
       <r>    -6.3999    25.1797   187.7824 </r>
       <r>    -6.3279    13.7864   188.7758 </r>
       <r>    -6.2558    11.3754   189.5955 </r>
       <r>    -6.1838     8.4634   190.2053 </r>
       <r>    -6.1117    14.1262   191.2232 </r>
       <r>    -6.0397    22.3960   192.8370 </r>
       <r>    -5.9676    26.3106   194.7328 </r>
       <r>    -5.8956    47.9452   198.1876 </r>
       <r>    -5.8235    73.4001   203.4765 </r>
       <r>    -5.7514    63.7779   208.0721 </r>
       <r>    -5.6794    60.1569   212.4067 </r>
       <r>    -5.6073   139.9329   222.4897 </r>
       <r>    -5.5353   237.7672   239.6223 </r>
       <r>    -5.4632   195.5920   253.7159 </r>
       <r>    -5.3912    91.2263   260.2893 </r>
       <r>    -5.3191    54.8841   264.2440 </r>
       <r>    -5.2470    62.8496   268.7727 </r>
       <r>    -5.1750    59.5072   273.0606 </r>
       <r>    -5.1029    32.3663   275.3928 </r>
       <r>    -5.0309    21.8275   276.9656 </r>
       <r>    -4.9588    59.8507   281.2782 </r>
       <r>    -4.8868   106.4651   288.9496 </r>
       <r>    -4.8147    90.9264   295.5014 </r>
       <r>    -4.7427    71.2734   300.6371 </r>
       <r>    -4.6706    82.0122   306.5466 </r>
       <r>    -4.5985    82.9976   312.5271 </r>
       <r>    -4.5265    65.0306   317.2129 </r>
       <r>    -4.4544    36.6478   319.8536 </r>
       <r>    -4.3824    32.6999   322.2099 </r>
       <r>    -4.3103    54.4507   326.1334 </r>
       <r>    -4.2383    64.9626   330.8143 </r>
       <r>    -4.1662    60.2410   335.1550 </r>
       <r>    -4.0941    54.4775   339.0805 </r>
       <r>    -4.0221    44.8326   342.3109 </r>
       <r>    -3.9500    19.6523   343.7270 </r>
       <r>    -3.8780     3.6848   343.9925 </r>
       <r>    -3.8059     2.6743   344.1852 </r>
       <r>    -3.7339    15.8321   345.3260 </r>
       <r>    -3.6618    43.7338   348.4773 </r>
       <r>    -3.5898    70.2918   353.5422 </r>
       <r>    -3.5177   108.9004   361.3892 </r>
       <r>    -3.4456   146.0885   371.9157 </r>
       <r>    -3.3736   136.3816   381.7428 </r>
       <r>    -3.3015   105.3821   389.3363 </r>
       <r>    -3.2295    84.1734   395.4015 </r>
       <r>    -3.1574    70.2200   400.4612 </r>
       <r>    -3.0854    82.8532   406.4313 </r>
       <r>    -3.0133   108.8470   414.2744 </r>
       <r>    -2.9413    95.6425   421.1660 </r>
       <r>    -2.8692    52.6558   424.9602 </r>
       <r>    -2.7971    36.1499   427.5650 </r>
       <r>    -2.7251    49.7585   431.1504 </r>
       <r>    -2.6530    74.3280   436.5062 </r>
       <r>    -2.5810    78.0782   442.1322 </r>
       <r>    -2.5089    60.8961   446.5201 </r>
       <r>    -2.4369    52.3376   450.2914 </r>
       <r>    -2.3648    73.5501   455.5911 </r>
       <r>    -2.2927    79.8186   461.3425 </r>
       <r>    -2.2207    64.4223   465.9845 </r>
       <r>    -2.1486    51.2994   469.6810 </r>
       <r>    -2.0766    26.5195   471.5919 </r>
       <r>    -2.0045    11.7958   472.4418 </r>
       <r>    -1.9325    26.5238   474.3530 </r>
       <r>    -1.8604    43.3699   477.4781 </r>
       <r>    -1.7884    30.7366   479.6928 </r>
       <r>    -1.7163    19.9515   481.1305 </r>
       <r>    -1.6442    22.2714   482.7353 </r>
       <r>    -1.5722    13.8319   483.7319 </r>
       <r>    -1.5001     3.3921   483.9763 </r>
       <r>    -1.4281     0.3171   483.9992 </r>
       <r>    -1.3560     0.0111   484.0000 </r>
       <r>    -1.2840     0.0001   484.0000 </r>
       <r>    -1.2119     0.0000   484.0000 </r>
       <r>    -1.1399     0.0000   484.0000 </r>
       <r>    -1.0678     0.0000   484.0000 </r>
       <r>    -0.9957     0.0000   484.0000 </r>
       <r>    -0.9237     0.0000   484.0000 </r>
       <r>    -0.8516     0.0000   484.0000 </r>
       <r>    -0.7796     0.0000   484.0000 </r>
       <r>    -0.7075     0.0000   484.0000 </r>
       <r>    -0.6355     0.0000   484.0000 </r>
       <r>    -0.5634     0.0001   484.0000 </r>
       <r>    -0.4913     0.0087   484.0006 </r>
       <r>    -0.4193     0.2214   484.0166 </r>
       <r>    -0.3472     2.1102   484.1686 </r>
       <r>    -0.2752     7.6629   484.7208 </r>
       <r>    -0.2031    10.7701   485.4969 </r>
       <r>    -0.1311     6.8831   485.9928 </r>
       <r>    -0.0590     8.3223   486.5925 </r>
       <r>     0.0130    19.6203   488.0063 </r>
       <r>     0.0851    30.3391   490.1924 </r>
       <r>     0.1572    42.9937   493.2903 </r>
       <r>     0.2292    45.7381   496.5860 </r>
       <r>     0.3013    38.3676   499.3507 </r>
       <r>     0.3733    60.5996   503.7172 </r>
       <r>     0.4454   115.9287   512.0706 </r>
       <r>     0.5174   167.6204   524.1487 </r>
       <r>     0.5895   153.1364   535.1831 </r>
       <r>     0.6615   134.5101   544.8753 </r>
       <r>     0.7336   113.1309   553.0271 </r>
       <r>     0.8057    55.1581   557.0016 </r>
       <r>     0.8777    17.3136   558.2491 </r>
       <r>     0.9498    28.6857   560.3161 </r>
       <r>     1.0218    75.8405   565.7809 </r>
       <r>     1.0939   111.3191   573.8021 </r>
       <r>     1.1659   112.3000   581.8940 </r>
       <r>     1.2380   104.1921   589.4017 </r>
       <r>     1.3101    86.8931   595.6628 </r>
       <r>     1.3821    46.3237   599.0007 </r>
       <r>     1.4542    12.3242   599.8888 </r>
       <r>     1.5262     1.4685   599.9946 </r>
       <r>     1.5983     0.0737   599.9999 </r>
       <r>     1.6703     0.0015   600.0000 </r>
       <r>     1.7424     0.0000   600.0000 </r>
       <r>     1.8144     0.0000   600.0000 </r>
       <r>     1.8865     0.0000   600.0000 </r>
       <r>     1.9586     0.0000   600.0000 </r>
       <r>     2.0306     0.0000   600.0000 </r>
       <r>     2.1027     0.0000   600.0000 </r>
       <r>     2.1747     0.0000   600.0000 </r>
       <r>     2.2468     0.0000   600.0000 </r>
       <r>     2.3188     0.0000   600.0000 </r>
      </set>
     </set>
    </array>
   </total>
  </dos>
 </calculation>
 <structure name="finalpos" >
  <crystal>
   <varray name="basis" >
    <v>       9.57094646       0.00000000       0.00000000 </v>
    <v>      -6.38062803      11.05157872       0.00000000 </v>
    <v>       0.00000000       0.00000000      34.88026251 </v>
   </varray>
   <i name="volume">   3689.42726549 </i>
   <varray name="rec_basis" >
    <v>       0.10448287       0.06032318       0.00000000 </v>
    <v>       0.00000000       0.09048481       0.00000000 </v>
    <v>       0.00000000       0.00000000       0.02866951 </v>
   </varray>
  </crystal>
  <varray name="positions" >
   <v>       0.28761970       0.26436950       0.51822506 </v>
   <v>       0.29007518       0.15402082       0.51946839 </v>
   <v>       0.35682990       0.32931650       0.55307718 </v>
   <v>       0.40325774       0.25752419       0.57606046 </v>
   <v>       0.36030948       0.14835412       0.55497621 </v>
   <v>       0.90076565       0.02011520       0.57780121 </v>
   <v>       0.07999813       0.13339310       0.62600345 </v>
   <v>       0.00628667       0.01816105       0.60654026 </v>
   <v>       0.01887980       0.20511368       0.60877043 </v>
   <v>       0.90830454       0.13409459       0.57925660 </v>
   <v>       0.15388276       0.16336288       0.56939061 </v>
   <v>       0.37844205       0.07474921       0.56438116 </v>
   <v>       0.02511127       0.94274396       0.61301310 </v>
   <v>       0.05011725       0.29638282       0.61711468 </v>
   <v>       0.16408072       0.16042770       0.64981439 </v>
   <v>       0.83124467       0.94841078       0.55726883 </v>
   <v>       0.23978720       0.08317609       0.49781132 </v>
   <v>       0.23634496       0.29242451       0.49530914 </v>
   <v>       0.37379690       0.41766827       0.56054083 </v>
   <v>       0.46311551       0.28247758       0.60379792 </v>
   <v>       0.84581473       0.16413691       0.56001099 </v>
   <v>       0.55551979       0.08395601       0.25021698 </v>
   <v>       0.55552056       0.33395646       0.25021676 </v>
   <v>       0.45252114       0.41000677       0.75685399 </v>
   <v>       0.55551976       0.58395575       0.25021644 </v>
   <v>       0.45244555       0.66001725       0.75683373 </v>
   <v>       0.55551995       0.83395569       0.25021654 </v>
   <v>       0.45255856       0.91005957       0.75692636 </v>
   <v>       0.88885899       0.33395182       0.25019830 </v>
   <v>       0.78598056       0.16006837       0.75697790 </v>
   <v>       0.78593564       0.41011072       0.75685013 </v>
   <v>       0.88885908       0.58395015       0.25019811 </v>
   <v>       0.78579718       0.66002969       0.75688547 </v>
   <v>       0.88885852       0.83394963       0.25019799 </v>
   <v>       0.78585369       0.91004399       0.75697519 </v>
   <v>       0.11910028       0.90974079       0.75705498 </v>
   <v>       0.88885900       0.08395141       0.25019824 </v>
   <v>       0.22217253       0.83395945       0.25020267 </v>
   <v>       0.45293043       0.16012602       0.75706424 </v>
   <v>       0.22217291       0.58396098       0.25020257 </v>
   <v>       0.11911670       0.41001473       0.75681198 </v>
   <v>       0.22217496       0.33396235       0.25020220 </v>
   <v>       0.22217415       0.08396110       0.25020277 </v>
   <v>       0.11906691       0.15984871       0.75685374 </v>
   <v>       0.11918926       0.65999310       0.75685509 </v>
   <v>       0.77716200       0.16649931       0.29477030 </v>
   <v>       0.89778762       0.07755280       0.80153051 </v>
   <v>       0.77711041       0.16648185       0.20563281 </v>
   <v>       0.89702012       0.07722272       0.71241825 </v>
   <v>       0.23154747       0.07693319       0.71265786 </v>
   <v>       0.11048231       0.16651059       0.20562870 </v>
   <v>       0.77716161       0.41649885       0.29477050 </v>
   <v>       0.89775799       0.32769292       0.80144189 </v>
   <v>       0.11048181       0.66651002       0.20562831 </v>
   <v>       0.56439872       0.82768294       0.71233551 </v>
   <v>       0.89743090       0.32732901       0.71227589 </v>
   <v>       0.23088495       0.07751110       0.80155911 </v>
   <v>       0.11046012       0.16650251       0.29476765 </v>
   <v>       0.77716081       0.66649694       0.29477004 </v>
   <v>       0.89759305       0.57750165       0.80143263 </v>
   <v>       0.77711004       0.66648067       0.20563238 </v>
   <v>       0.89755381       0.57758258       0.71228822 </v>
   <v>       0.77716183       0.91649780       0.29476990 </v>
   <v>       0.89731835       0.82729380       0.80154603 </v>
   <v>       0.77710989       0.41648088       0.20563251 </v>
   <v>       0.44382252       0.91650644       0.20564150 </v>
   <v>       0.44377876       0.91648871       0.29477827 </v>
   <v>       0.23088680       0.57754562       0.71224524 </v>
   <v>       0.23084189       0.57738347       0.80140263 </v>
   <v>       0.11045807       0.91649987       0.29476740 </v>
   <v>       0.23097254       0.82722716       0.80153292 </v>
   <v>       0.11048210       0.91651014       0.20562874 </v>
   <v>       0.23093881       0.82756521       0.71236701 </v>
   <v>       0.11045732       0.66649922       0.29476751 </v>
   <v>       0.77711064       0.91648166       0.20563266 </v>
   <v>       0.44377989       0.16649045       0.29477883 </v>
   <v>       0.56444261       0.07739366       0.80158061 </v>
   <v>       0.44382311       0.16650666       0.20564150 </v>
   <v>       0.56440053       0.07757091       0.71238845 </v>
   <v>       0.44377977       0.41649020       0.29477862 </v>
   <v>       0.56448508       0.32778776       0.80148725 </v>
   <v>       0.44382365       0.41650685       0.20564108 </v>
   <v>       0.56412728       0.32726954       0.71232168 </v>
   <v>       0.23090231       0.32743985       0.71229840 </v>
   <v>       0.11048160       0.41651078       0.20562839 </v>
   <v>       0.44377895       0.66648883       0.29477827 </v>
   <v>       0.56404715       0.57744346       0.80141685 </v>
   <v>       0.44382261       0.66650652       0.20564117 </v>
   <v>       0.56427941       0.57753211       0.71228384 </v>
   <v>       0.23079124       0.32742831       0.80138251 </v>
   <v>       0.11045948       0.41650124       0.29476760 </v>
   <v>       0.56405213       0.82733019       0.80147845 </v>
   <v>       0.89773744       0.82765456       0.71237067 </v>
  </varray>
 </structure>
</modeling>
