basalPlane                              
           1
     9.570946    0.000000    0.000000
    -6.380628   11.051579    0.000000
     0.000000    0.000000   34.880263
   C    Cr   H    Mo   S 
  10   1  10  24  48
Direct configuration=     1
   0.26807373  0.24576543  0.52793820
   0.27936248  0.13902082  0.53062521
   0.35666141  0.32400567  0.55890911
   0.42473227  0.26535390  0.58118470
   0.37583858  0.14978223  0.56344511
   0.92741283  0.02419316  0.58881914
   0.09921372  0.09469810  0.64149073
   0.02527380  0.99765772  0.61411724
   0.04722050  0.17930065  0.63328789
   0.94232938  0.13683525  0.60099123
   0.17323018  0.15728980  0.58371818
   0.40835087  0.08355977  0.57288260
   0.03728968  0.91735588  0.61334184
   0.08798953  0.26511922  0.64791550
   0.18231697  0.10321982  0.66414394
   0.85284292  0.96789324  0.56535561
   0.21997692  0.06082840  0.51179456
   0.19716128  0.26216275  0.50691801
   0.36923220  0.41206034  0.56471808
   0.50288220  0.30299240  0.60603541
   0.88683773  0.18368134  0.58732873
   0.55555566  0.08333325  0.25000928
   0.55555566  0.33333325  0.25000928
   0.44444432  0.41666674  0.74999076
   0.55555566  0.58333325  0.25000928
   0.44444432  0.66666674  0.74999076
   0.55555566  0.83333325  0.25000928
   0.44444432  0.91666674  0.74999076
   0.88888899  0.33333325  0.25000928
   0.77777765  0.16666674  0.74999076
   0.77777765  0.41666674  0.74999076
   0.88888899  0.58333325  0.25000928
   0.77777765  0.66666674  0.74999076
   0.88888899  0.83333325  0.25000928
   0.77777765  0.91666674  0.74999076
   0.11111099  0.91666674  0.74999076
   0.88888899  0.08333325  0.25000928
   0.22222233  0.83333325  0.25000928
   0.44444432  0.16666674  0.74999076
   0.22222233  0.58333325  0.25000928
   0.11111099  0.41666674  0.74999076
   0.22222233  0.33333325  0.25000928
   0.22222233  0.08333325  0.25000928
   0.11111099  0.16666674  0.74999076
   0.11111099  0.66666674  0.74999076
   0.77777765  0.16666674  0.29487388
   0.88888899  0.08333325  0.79485533
   0.77777765  0.16666674  0.20514467
   0.88888899  0.08333325  0.70512613
   0.22222233  0.08333325  0.70512613
   0.11111099  0.16666674  0.20514467
   0.77777765  0.41666674  0.29487388
   0.88888899  0.33333325  0.79485533
   0.11111099  0.66666674  0.20514467
   0.55555566  0.83333325  0.70512613
   0.88888899  0.33333325  0.70512613
   0.22222233  0.08333325  0.79485533
   0.11111099  0.16666674  0.29487388
   0.77777765  0.66666674  0.29487388
   0.88888899  0.58333325  0.79485533
   0.77777765  0.66666674  0.20514467
   0.88888899  0.58333325  0.70512613
   0.77777765  0.91666674  0.29487388
   0.88888899  0.83333325  0.79485533
   0.77777765  0.41666674  0.20514467
   0.44444432  0.91666674  0.20514467
   0.44444432  0.91666674  0.29487388
   0.22222233  0.58333325  0.70512613
   0.22222233  0.58333325  0.79485533
   0.11111099  0.91666674  0.29487388
   0.22222233  0.83333325  0.79485533
   0.11111099  0.91666674  0.20514467
   0.22222233  0.83333325  0.70512613
   0.11111099  0.66666674  0.29487388
   0.77777765  0.91666674  0.20514467
   0.44444432  0.16666674  0.29487388
   0.55555566  0.08333325  0.79485533
   0.44444432  0.16666674  0.20514467
   0.55555566  0.08333325  0.70512613
   0.44444432  0.41666674  0.29487388
   0.55555566  0.33333325  0.79485533
   0.44444432  0.41666674  0.20514467
   0.55555566  0.33333325  0.70512613
   0.22222233  0.33333325  0.70512613
   0.11111099  0.41666674  0.20514467
   0.44444432  0.66666674  0.29487388
   0.55555566  0.58333325  0.79485533
   0.44444432  0.66666674  0.20514467
   0.55555566  0.58333325  0.70512613
   0.22222233  0.33333325  0.79485533
   0.11111099  0.41666674  0.29487388
   0.55555566  0.83333325  0.79485533
   0.88888899  0.83333325  0.70512613
Direct configuration=     2
   0.26774460  0.24578991  0.52791260
   0.27935339  0.13888525  0.53062696
   0.35697856  0.32405464  0.55893765
   0.42515453  0.26555251  0.58109634
   0.37603507  0.14985675  0.56342927
   0.92674233  0.02370794  0.58881422
   0.09441688  0.09596300  0.63804758
   0.02470472  0.99758704  0.61409408
   0.04646934  0.17931837  0.63223342
   0.94199133  0.13676780  0.60097318
   0.17301375  0.15733842  0.58422172
   0.40832465  0.08354186  0.57290207
   0.03739067  0.91731132  0.61335745
   0.08755679  0.26462730  0.64753140
   0.18070378  0.10521632  0.66076202
   0.85281603  0.96787618  0.56533782
   0.21996545  0.06083782  0.51179650
   0.19723852  0.26218570  0.50693053
   0.36921455  0.41202215  0.56474243
   0.50280330  0.30293681  0.60607620
   0.88666271  0.18357415  0.58732492
   0.55614915  0.08410231  0.25001284
   0.55614963  0.33410223  0.25001264
   0.44404142  0.41603402  0.75003052
   0.55614953  0.58410210  0.25001279
   0.44385022  0.66585564  0.74998420
   0.55614933  0.83410189  0.25001280
   0.44383325  0.91602318  0.74999201
   0.88949204  0.33410363  0.25001277
   0.77752358  0.16597457  0.75006312
   0.77744373  0.41611009  0.75002614
   0.88949276  0.58410284  0.25001288
   0.77702234  0.66569651  0.75002542
   0.88949200  0.83410225  0.25001294
   0.77726956  0.91600723  0.75005325
   0.11083233  0.91609815  0.75006853
   0.88949227  0.08410307  0.25001275
   0.22279175  0.83410953  0.25001261
   0.44415189  0.16586962  0.75044471
   0.22279183  0.58411030  0.25001258
   0.11045923  0.41588652  0.74995287
   0.22279242  0.33411067  0.25001235
   0.22279286  0.08411039  0.25001240
   0.11035974  0.16555567  0.74971889
   0.11032832  0.66572207  0.74997299
   0.77747735  0.16628038  0.29460717
   0.88925733  0.08372975  0.79461412
   0.77747839  0.16628080  0.20540813
   0.88714399  0.08293454  0.70604271
   0.23114946  0.08130935  0.71168049
   0.11081594  0.16628135  0.20540817
   0.77747705  0.41627968  0.29460713
   0.88913710  0.33367135  0.79458152
   0.11081639  0.66628120  0.20540815
   0.55589620  0.83376461  0.70537278
   0.88904712  0.33367120  0.70536489
   0.22252791  0.08371198  0.79465201
   0.11081569  0.16628073  0.29460744
   0.77747674  0.66627943  0.29460711
   0.88920516  0.58372582  0.79458981
   0.77747803  0.66628071  0.20540806
   0.88920399  0.58376590  0.70536493
   0.77747737  0.91627964  0.29460705
   0.88925037  0.83375208  0.79458965
   0.77747808  0.41628049  0.20540812
   0.44414884  0.91628074  0.20540803
   0.44414795  0.91627996  0.29460708
   0.22257119  0.58376992  0.70538987
   0.22250763  0.58370653  0.79459365
   0.11081521  0.91628011  0.29460717
   0.22241186  0.83372984  0.79459842
   0.11081574  0.91628122  0.20540819
   0.22265021  0.83369047  0.70534432
   0.11081535  0.66627984  0.29460706
   0.77747847  0.91628062  0.20540811
   0.44414882  0.16628063  0.29460731
   0.55580488  0.08372893  0.79459799
   0.44414915  0.16628097  0.20540805
   0.55573148  0.08355276  0.70528053
   0.44414873  0.41628017  0.29460731
   0.55581735  0.33366568  0.79457946
   0.44414923  0.41628090  0.20540805
   0.55591161  0.33379299  0.70530947
   0.22438417  0.33496995  0.70610902
   0.11081606  0.41628180  0.20540823
   0.44414754  0.66627928  0.29460705
   0.55580953  0.58370073  0.79458554
   0.44414850  0.66628043  0.20540806
   0.55587207  0.58374755  0.70537322
   0.22251593  0.33369698  0.79460839
   0.11081542  0.41628088  0.29460720
   0.55587050  0.83370768  0.79458491
   0.88888317  0.83350123  0.70533717
Direct configuration=     3
   0.26785960  0.24578136  0.52792155
   0.27935657  0.13893262  0.53062635
   0.35686775  0.32403753  0.55892768
   0.42500699  0.26548311  0.58112722
   0.37596642  0.14983071  0.56343481
   0.92697660  0.02387747  0.58881594
   0.09609290  0.09552104  0.63925062
   0.02490356  0.99761173  0.61410218
   0.04673179  0.17931218  0.63260185
   0.94210945  0.13679137  0.60097948
   0.17308937  0.15732143  0.58404578
   0.40833381  0.08354812  0.57289527
   0.03735538  0.91732689  0.61335200
   0.08770799  0.26479918  0.64766561
   0.18126743  0.10451874  0.66194367
   0.85282543  0.96788214  0.56534404
   0.21996946  0.06083453  0.51179582
   0.19721153  0.26217768  0.50692616
   0.36922071  0.41203549  0.56473392
   0.50283087  0.30295623  0.60606195
   0.88672386  0.18361160  0.58732625
   0.55594178  0.08383360  0.25001160
   0.55594210  0.33383354  0.25001147
   0.44418219  0.41625509  0.75001662
   0.55594203  0.58383346  0.25001157
   0.44405780  0.66613904  0.74998649
   0.55594190  0.83383333  0.25001157
   0.44404676  0.91624804  0.74999157
   0.88928134  0.33383446  0.25001155
   0.77761235  0.16621642  0.75003784
   0.77756041  0.41630458  0.75001377
   0.88928180  0.58383394  0.25001162
   0.77728625  0.66603551  0.75001331
   0.88928131  0.83383356  0.25001166
   0.77744709  0.91623766  0.75003142
   0.11092969  0.91629682  0.75004136
   0.88928149  0.08383409  0.25001154
   0.22259279  0.83383829  0.25001145
   0.44425407  0.16614814  0.75028610
   0.22259285  0.58383880  0.25001143
   0.11068695  0.41615913  0.74996611
   0.22259323  0.33383904  0.25001128
   0.22259351  0.08383885  0.25001131
   0.11062223  0.16594388  0.74981388
   0.11060178  0.66605214  0.74997920
   0.77758228  0.16641538  0.29470036
   0.88912863  0.08359121  0.79469840
   0.77758296  0.16641565  0.20531608
   0.88775369  0.08307385  0.70572246
   0.22803031  0.08201650  0.70939039
   0.11091903  0.16641601  0.20531610
   0.77758208  0.41641492  0.29470034
   0.88905041  0.33355321  0.79467719
   0.11091932  0.66641591  0.20531609
   0.55577721  0.83361389  0.70528660
   0.88899187  0.33355312  0.70528146
   0.22242114  0.08357965  0.79472305
   0.11091887  0.16641560  0.29470053
   0.77758188  0.66641476  0.29470032
   0.88909469  0.58358866  0.79468258
   0.77758272  0.66641559  0.20531603
   0.88909393  0.58361473  0.70528149
   0.77758229  0.91641489  0.29470028
   0.88912410  0.83360574  0.79468248
   0.77758275  0.41641545  0.20531607
   0.44425208  0.91641561  0.20531601
   0.44425150  0.91641510  0.29470030
   0.22244930  0.58361735  0.70529772
   0.22240794  0.58357611  0.79468508
   0.11091856  0.91641520  0.29470036
   0.22234564  0.83359127  0.79468819
   0.11091890  0.91641592  0.20531612
   0.22250070  0.83356566  0.70526809
   0.11091865  0.66641502  0.29470029
   0.77758301  0.91641553  0.20531606
   0.44425207  0.16641554  0.29470045
   0.55571780  0.08359068  0.79468790
   0.44425229  0.16641576  0.20531603
   0.55567005  0.08347606  0.70522659
   0.44425201  0.41641524  0.29470045
   0.55572592  0.33354953  0.79467585
   0.44425234  0.41641572  0.20531602
   0.55578724  0.33363235  0.70524541
   0.22362882  0.33439808  0.70576560
   0.11091910  0.41641630  0.20531614
   0.44425123  0.66641466  0.29470028
   0.55572083  0.58357233  0.79467980
   0.44425186  0.66641541  0.20531603
   0.55576152  0.58360279  0.70528689
   0.22241334  0.33356989  0.79469467
   0.11091869  0.41641570  0.29470038
   0.55576049  0.83357685  0.79467939
   0.88888521  0.83344254  0.70526343
Direct configuration=     4
   0.26841308  0.24553200  0.52809605
   0.27945495  0.13936653  0.53067324
   0.35647560  0.32396246  0.55885275
   0.42538110  0.26541414  0.58115074
   0.37596464  0.14992600  0.56337638
   0.92528161  0.02330280  0.58844729
   0.10335116  0.09724632  0.64017872
   0.02042216  0.99404834  0.61262387
   0.04469996  0.18307318  0.63161235
   0.93851470  0.13594961  0.60014285
   0.17394480  0.15788122  0.58348996
   0.40831953  0.08351875  0.57290969
   0.03760548  0.91774241  0.61347938
   0.08712712  0.26375529  0.64714862
   0.17865826  0.10591150  0.65911370
   0.85252118  0.96775941  0.56522924
   0.21988737  0.06072927  0.51178151
   0.19700526  0.26225043  0.50687516
   0.36928491  0.41200932  0.56475930
   0.50276409  0.30290203  0.60607794
   0.88627536  0.18344204  0.58724738
   0.55617133  0.08413342  0.25001196
   0.55617192  0.33413352  0.25001178
   0.44447192  0.41620904  0.75020140
   0.55617178  0.58413300  0.25001190
   0.44378579  0.66582044  0.74998435
   0.55617156  0.83413297  0.25001185
   0.44379005  0.91589257  0.75002300
   0.88951329  0.33414303  0.25001119
   0.77731631  0.16610734  0.75022280
   0.77736654  0.41604543  0.75002812
   0.88951377  0.58414196  0.25001126
   0.77705684  0.66570615  0.75004356
   0.88951308  0.83414113  0.25001136
   0.77694572  0.91577009  0.75018397
   0.10939889  0.91328465  0.75099739
   0.88951369  0.08414240  0.25001120
   0.22282016  0.83414543  0.25001174
   0.44923298  0.16753638  0.75155399
   0.22282041  0.58414646  0.25001172
   0.11042413  0.41600589  0.75005254
   0.22282125  0.33414701  0.25001157
   0.22282164  0.08414678  0.25001161
   0.11004633  0.16584222  0.75035076
   0.11029444  0.66563241  0.74997474
   0.77746321  0.16626052  0.29450404
   0.88937922  0.08380604  0.79452618
   0.77746428  0.16626107  0.20551420
   0.88629157  0.08250138  0.70628056
   0.23166022  0.08118864  0.71172930
   0.11079992  0.16626526  0.20551315
   0.77746271  0.41625967  0.29450412
   0.88919887  0.33371471  0.79448277
   0.11080018  0.66626505  0.20551304
   0.55590713  0.83380674  0.70546974
   0.88898768  0.33364227  0.70543645
   0.22228445  0.08374722  0.79496970
   0.11080058  0.16626488  0.29450502
   0.77746234  0.66625890  0.29450402
   0.88925867  0.58375830  0.79450248
   0.77746397  0.66626092  0.20551413
   0.88920296  0.58381441  0.70544565
   0.77746306  0.91625949  0.29450389
   0.88910134  0.83370806  0.79451142
   0.77746398  0.41626095  0.20551406
   0.44413353  0.91626229  0.20551395
   0.44413231  0.91626114  0.29450391
   0.22262081  0.58383896  0.70545764
   0.22248899  0.58370162  0.79450016
   0.11079984  0.91626396  0.29450477
   0.22248762  0.83364334  0.79452268
   0.11079957  0.91626499  0.20551319
   0.22268220  0.83361406  0.70537769
   0.11079951  0.66626345  0.29450476
   0.77746437  0.91626092  0.20551422
   0.44413325  0.16626207  0.29450423
   0.55605584  0.08355565  0.79458598
   0.44413377  0.16626251  0.20551386
   0.55583508  0.08358622  0.70532844
   0.44413310  0.41626136  0.29450426
   0.55604763  0.33398623  0.79456153
   0.44413380  0.41626247  0.20551383
   0.55588128  0.33372342  0.70536264
   0.22525197  0.33537190  0.70639168
   0.11079993  0.41626550  0.20551308
   0.44413201  0.66626042  0.29450395
   0.55582360  0.58376028  0.79449607
   0.44413338  0.66626215  0.20551390
   0.55592215  0.58379871  0.70545086
   0.22242373  0.33363490  0.79448663
   0.11079989  0.41626457  0.29450490
   0.55583875  0.83372163  0.79447679
   0.88891801  0.83359358  0.70537028
Direct configuration=     5
   0.26804786  0.24569654  0.52798090
   0.27939003  0.13908021  0.53064230
   0.35673436  0.32401200  0.55890219
   0.42513424  0.26545965  0.58113522
   0.37596581  0.14986312  0.56341493
   0.92640007  0.02368200  0.58869054
   0.09856173  0.09610788  0.63956630
   0.02337925  0.99639968  0.61359934
   0.04604068  0.18059145  0.63226528
   0.94088673  0.13650505  0.60069491
   0.17338033  0.15751184  0.58385673
   0.40832895  0.08353813  0.57290017
   0.03744045  0.91746823  0.61339532
   0.08751041  0.26444411  0.64748976
   0.18037995  0.10499247  0.66098108
   0.85272194  0.96784039  0.56530499
   0.21994154  0.06079872  0.51179095
   0.19714137  0.26220242  0.50690881
   0.36924255  0.41202659  0.56474255
   0.50280815  0.30293780  0.60606739
   0.88657131  0.18355393  0.58729942
   0.55601986  0.08393558  0.25001172
   0.55602027  0.33393558  0.25001158
   0.44428074  0.41623943  0.75007947
   0.55602018  0.58393535  0.25001168
   0.44396528  0.66603068  0.74998576
   0.55602002  0.83393525  0.25001166
   0.44395944  0.91612713  0.75000226
   0.88936023  0.33393941  0.25001143
   0.77751166  0.16617932  0.75010075
   0.77749446  0.41621644  0.75001865
   0.88936070  0.58393871  0.25001150
   0.77720822  0.66592348  0.75002360
   0.88936014  0.83393818  0.25001156
   0.77727655  0.91607862  0.75008331
   0.11040901  0.91527226  0.75036654
   0.88936047  0.08393896  0.25001143
   0.22267013  0.83394276  0.25001155
   0.44594760  0.16662034  0.75071736
   0.22267025  0.58394344  0.25001153
   0.11059756  0.41610701  0.74999551
   0.22267079  0.33394379  0.25001138
   0.22267111  0.08394359  0.25001141
   0.11042634  0.16590930  0.74999650
   0.11049724  0.66590937  0.74997768
   0.77754178  0.16636271  0.29463358
   0.88921387  0.08366429  0.79463982
   0.77754259  0.16636307  0.20538347
   0.88725637  0.08287913  0.70591229
   0.22926499  0.08173491  0.71018595
   0.11087852  0.16636473  0.20538313
   0.77754148  0.41636211  0.29463359
   0.88910091  0.33360814  0.79461106
   0.11087880  0.66636459  0.20538308
   0.55582140  0.83367949  0.70534889
   0.88899045  0.33358344  0.70533418
   0.22237465  0.08363664  0.79480695
   0.11087864  0.16636434  0.29463403
   0.77754122  0.66636174  0.29463355
   0.88915046  0.58364636  0.79462132
   0.77754233  0.66636298  0.20538341
   0.88913102  0.58368265  0.70533733
   0.77754174  0.91636204  0.29463348
   0.88911636  0.83364054  0.79462429
   0.77754235  0.41636289  0.20538341
   0.44421176  0.91636346  0.20538334
   0.44421096  0.91636273  0.29463350
   0.22250764  0.58369273  0.70535212
   0.22243551  0.58361880  0.79462218
   0.11087818  0.91636376  0.29463383
   0.22239393  0.83360898  0.79463189
   0.11087831  0.91636458  0.20538315
   0.22256244  0.83358212  0.70530537
   0.11087812  0.66636347  0.29463378
   0.77754265  0.91636294  0.20538346
   0.44421165  0.16636334  0.29463371
   0.55583278  0.08357877  0.79465324
   0.44421197  0.16636363  0.20538332
   0.55572618  0.08351353  0.70526123
   0.44421156  0.41636290  0.29463372
   0.55583535  0.33369807  0.79463696
   0.44421202  0.41636359  0.20538331
   0.55581923  0.33366333  0.70528528
   0.22418092  0.33472932  0.70597855
   0.11087857  0.41636501  0.20538313
   0.44421068  0.66636219  0.29463350
   0.55575579  0.58363626  0.79461731
   0.44421156  0.66636328  0.20538333
   0.55581616  0.58366943  0.70534266
   0.22241688  0.33359200  0.79462391
   0.11087828  0.41636429  0.29463389
   0.55578711  0.83362610  0.79461048
   0.88889637  0.83349391  0.70529977
Direct configuration=     6
   0.26794984  0.24564104  0.52792649
   0.27960641  0.13905420  0.53061533
   0.35649692  0.32400263  0.55898394
   0.42527200  0.26523781  0.58114357
   0.37628867  0.14995848  0.56334830
   0.92459653  0.02337988  0.58835079
   0.09828995  0.09689749  0.63875640
   0.02190881  0.99668282  0.61296972
   0.04529143  0.18045242  0.63142885
   0.93840790  0.13529350  0.60015184
   0.17370971  0.15802347  0.58335034
   0.40824550  0.08353846  0.57289932
   0.03744504  0.91697942  0.61340445
   0.08738754  0.26502413  0.64717267
   0.18321100  0.10656411  0.66019061
   0.85191723  0.96743864  0.56502800
   0.21996798  0.06086141  0.51181754
   0.19722790  0.26217933  0.50694467
   0.36930343  0.41201405  0.56475718
   0.50280743  0.30288885  0.60609715
   0.88527779  0.18372515  0.58698633
   0.55602235  0.08394638  0.25001106
   0.55602288  0.33394654  0.25001092
   0.44483367  0.41641030  0.75025864
   0.55602269  0.58394586  0.25001099
   0.44388534  0.66599406  0.74998414
   0.55602258  0.83394596  0.25001094
   0.44391389  0.91604568  0.75001159
   0.88936061  0.33395445  0.25001043
   0.77727733  0.16626850  0.75026136
   0.77747951  0.41625983  0.75000385
   0.88936086  0.58395342  0.25001045
   0.77721513  0.66596640  0.75002931
   0.88936034  0.83395267  0.25001058
   0.77700400  0.91583693  0.75020784
   0.10903137  0.91241818  0.75130474
   0.88936106  0.08395395  0.25001047
   0.22267500  0.83395434  0.25001103
   0.45107477  0.16831424  0.75185341
   0.22267524  0.58395523  0.25001101
   0.11060380  0.41628898  0.75009274
   0.22267610  0.33395586  0.25001094
   0.22267633  0.08395566  0.25001097
   0.11018170  0.16616440  0.75062740
   0.11057543  0.66584502  0.74997051
   0.77753749  0.16635427  0.29452768
   0.88924954  0.08371902  0.79460994
   0.77753831  0.16635494  0.20549102
   0.88639655  0.08243071  0.70621983
   0.23029341  0.08146299  0.71057414
   0.11087442  0.16636122  0.20548956
   0.77753693  0.41635341  0.29452783
   0.88918080  0.33370103  0.79453295
   0.11087448  0.66636096  0.20548937
   0.55583051  0.83371627  0.70546260
   0.88892228  0.33354041  0.70542320
   0.22221629  0.08364191  0.79525775
   0.11087453  0.16636038  0.29452903
   0.77753661  0.66635243  0.29452770
   0.88920215  0.58365419  0.79453804
   0.77753811  0.66635471  0.20549095
   0.88911519  0.58371597  0.70542813
   0.77753728  0.91635312  0.29452752
   0.88862785  0.83340457  0.79463035
   0.77753810  0.41635488  0.20549080
   0.44420598  0.91635493  0.20549090
   0.44420448  0.91635354  0.29452737
   0.22253814  0.58374501  0.70542346
   0.22239950  0.58360736  0.79453688
   0.11087385  0.91635948  0.29452886
   0.22257331  0.83330792  0.79464072
   0.11087408  0.91636093  0.20548959
   0.22250672  0.83346814  0.70537513
   0.11087318  0.66635886  0.29452892
   0.77753844  0.91635471  0.20549107
   0.44420544  0.16635452  0.29452775
   0.55639069  0.08323794  0.79477197
   0.44420628  0.16635511  0.20549072
   0.55588306  0.08362445  0.70536247
   0.44420519  0.41635376  0.29452773
   0.55641880  0.33435438  0.79473431
   0.44420621  0.41635515  0.20549072
   0.55579419  0.33350678  0.70539926
   0.22511152  0.33508514  0.70632836
   0.11087443  0.41636143  0.20548941
   0.44420436  0.66635290  0.29452748
   0.55579272  0.58373593  0.79454296
   0.44420601  0.66635488  0.20549079
   0.55588662  0.58371578  0.70543577
   0.22232456  0.33358332  0.79454777
   0.11087384  0.41635998  0.29452903
   0.55567853  0.83358454  0.79452087
   0.88903646  0.83361115  0.70538425
Direct configuration=     7
   0.26794612  0.24563893  0.52792442
   0.27961463  0.13905321  0.53061431
   0.35648790  0.32400228  0.55898704
   0.42527724  0.26522938  0.58114389
   0.37630094  0.14996210  0.56334576
   0.92452799  0.02336840  0.58833788
   0.09827962  0.09692749  0.63872562
   0.02185292  0.99669359  0.61294580
   0.04526295  0.18044714  0.63139706
   0.93831369  0.13524746  0.60013120
   0.17372222  0.15804292  0.58333109
   0.40824233  0.08353847  0.57289929
   0.03744521  0.91696085  0.61340480
   0.08738287  0.26504617  0.64716062
   0.18331859  0.10662384  0.66016057
   0.85188665  0.96742337  0.56501748
   0.21996898  0.06086379  0.51181855
   0.19723119  0.26217846  0.50694603
   0.36930574  0.41201358  0.56475774
   0.50280740  0.30288699  0.60609828
   0.88522863  0.18373166  0.58697443
   0.55602245  0.08394679  0.25001104
   0.55602298  0.33394695  0.25001089
   0.44485468  0.41641679  0.75026545
   0.55602279  0.58394626  0.25001097
   0.44388230  0.66599267  0.74998408
   0.55602268  0.83394637  0.25001091
   0.44391216  0.91604259  0.75001195
   0.88936062  0.33395502  0.25001039
   0.77726842  0.16627189  0.75026746
   0.77747894  0.41626148  0.75000329
   0.88936087  0.58395398  0.25001041
   0.77721540  0.66596803  0.75002953
   0.88936034  0.83395322  0.25001054
   0.77699365  0.91582775  0.75021258
   0.10897901  0.91230972  0.75134039
   0.88936109  0.08395452  0.25001043
   0.22267518  0.83395477  0.25001101
   0.45126962  0.16837861  0.75189659
   0.22267543  0.58395568  0.25001099
   0.11060404  0.41629589  0.75009643
   0.22267630  0.33395632  0.25001092
   0.22267653  0.08395612  0.25001095
   0.11017240  0.16617410  0.75065137
   0.11057840  0.66584257  0.74997023
   0.77753733  0.16635395  0.29452366
   0.88925090  0.08372110  0.79460880
   0.77753815  0.16635463  0.20549510
   0.88636387  0.08241366  0.70623152
   0.23033249  0.08145266  0.71058889
   0.11087427  0.16636109  0.20549360
   0.77753676  0.41635308  0.29452381
   0.88918384  0.33370456  0.79452998
   0.11087431  0.66636082  0.20549341
   0.55583085  0.83371767  0.70546692
   0.88891969  0.33353877  0.70542658
   0.22221027  0.08364211  0.79527488
   0.11087438  0.16636023  0.29452504
   0.77753644  0.66635208  0.29452368
   0.88920411  0.58365448  0.79453488
   0.77753794  0.66635439  0.20549503
   0.88911459  0.58371723  0.70543158
   0.77753711  0.91635279  0.29452349
   0.88860928  0.83339560  0.79463058
   0.77753794  0.41635458  0.20549488
   0.44420576  0.91635460  0.20549499
   0.44420423  0.91635319  0.29452334
   0.22253930  0.58374700  0.70542617
   0.22239814  0.58360692  0.79453363
   0.11087369  0.91635931  0.29452487
   0.22258013  0.83329647  0.79464105
   0.11087392  0.91636079  0.20549363
   0.22250461  0.83346381  0.70537778
   0.11087299  0.66635868  0.29452494
   0.77753828  0.91635440  0.20549515
   0.44420520  0.16635418  0.29452372
   0.55641190  0.08322498  0.79477648
   0.44420606  0.16635479  0.20549481
   0.55588902  0.08362867  0.70536632
   0.44420495  0.41635341  0.29452370
   0.55644097  0.33437932  0.79473801
   0.44420599  0.41635483  0.20549480
   0.55579324  0.33350083  0.70540359
   0.22514689  0.33509867  0.70634165
   0.11087427  0.41636130  0.20549345
   0.44420412  0.66635254  0.29452345
   0.55579412  0.58373972  0.79454013
   0.44420580  0.66635456  0.20549487
   0.55588930  0.58371754  0.70543931
   0.22232105  0.33358299  0.79454488
   0.11087368  0.41635982  0.29452505
   0.55567441  0.83358296  0.79451747
   0.88904178  0.83361561  0.70538746
Direct configuration=     8
   0.26819032  0.24565071  0.52790427
   0.28035010  0.13924558  0.53049505
   0.35616767  0.32361454  0.55907929
   0.42523042  0.26511608  0.58112096
   0.37697030  0.15010563  0.56317932
   0.92174303  0.02247901  0.58773903
   0.09827693  0.09724497  0.63786711
   0.02239114  0.99644485  0.61264240
   0.04548810  0.18148571  0.63076074
   0.93604386  0.13499345  0.59961481
   0.17289483  0.15845796  0.58286107
   0.40809512  0.08344786  0.57290017
   0.03676658  0.91766875  0.61326924
   0.08642501  0.26482159  0.64646767
   0.18662183  0.10840223  0.65939701
   0.85015298  0.96650235  0.56446049
   0.21994613  0.06081025  0.51182993
   0.19716013  0.26214488  0.50693034
   0.36942119  0.41217108  0.56479420
   0.50277569  0.30272972  0.60614401
   0.88313035  0.18369141  0.58646181
   0.55593819  0.08384220  0.25001188
   0.55593874  0.33384228  0.25001171
   0.44550106  0.41652525  0.75038716
   0.55593839  0.58384126  0.25001177
   0.44381586  0.66600667  0.74998809
   0.55593843  0.83384152  0.25001174
   0.44394156  0.91619696  0.74998018
   0.88927581  0.33385195  0.25001119
   0.77722815  0.16620798  0.75034464
   0.77775755  0.41669437  0.74997582
   0.88927578  0.58385045  0.25001118
   0.77714778  0.66612442  0.75000514
   0.88927540  0.83384970  0.25001138
   0.77704572  0.91569979  0.75027365
   0.10892715  0.91161482  0.75166054
   0.88927636  0.08385140  0.25001128
   0.22259183  0.83385084  0.25001194
   0.45235626  0.16878670  0.75225328
   0.22259225  0.58385188  0.25001190
   0.11079769  0.41656709  0.75013616
   0.22259336  0.33385282  0.25001187
   0.22259362  0.08385260  0.25001191
   0.11052936  0.16614852  0.75092485
   0.11100307  0.66590196  0.74996123
   0.77757515  0.16640461  0.29449559
   0.88886543  0.08359984  0.79483585
   0.77757542  0.16640533  0.20552313
   0.88631285  0.08227820  0.70652217
   0.23132337  0.08129941  0.71098519
   0.11091355  0.16641602  0.20552125
   0.77757462  0.41640366  0.29449583
   0.88928406  0.33393367  0.79458413
   0.11091324  0.66641550  0.20552091
   0.55582226  0.83369206  0.70554327
   0.88887195  0.33344210  0.70549977
   0.22251691  0.08348149  0.79591478
   0.11091289  0.16641457  0.29449747
   0.77757425  0.66640192  0.29449566
   0.88923373  0.58358807  0.79452367
   0.77757522  0.66640486  0.20552302
   0.88905705  0.58368556  0.70546853
   0.77757503  0.91640312  0.29449538
   0.88706151  0.83252454  0.79497862
   0.77757520  0.41640541  0.20552277
   0.44424203  0.91640288  0.20552340
   0.44424021  0.91640087  0.29449538
   0.22247872  0.58367620  0.70543354
   0.22233300  0.58357330  0.79454924
   0.11091192  0.91641326  0.29449727
   0.22314722  0.83229744  0.79500259
   0.11091299  0.91641545  0.20552130
   0.22213080  0.83324869  0.70551717
   0.11091059  0.66641234  0.29449743
   0.77757567  0.91640500  0.20552322
   0.44424141  0.16640232  0.29449590
   0.55782873  0.08238480  0.79535096
   0.44424246  0.16640314  0.20552311
   0.55616894  0.08397725  0.70559643
   0.44424100  0.41640119  0.29449591
   0.55810202  0.33597053  0.79525011
   0.44424228  0.41640323  0.20552308
   0.55583513  0.33310718  0.70565109
   0.22547400  0.33485002  0.70662705
   0.11091342  0.41641607  0.20552097
   0.44424024  0.66640025  0.29449556
   0.55588931  0.58392134  0.79458486
   0.44424232  0.66640297  0.20552321
   0.55595337  0.58367007  0.70550429
   0.22233816  0.33383880  0.79471353
   0.11091178  0.41641377  0.29449754
   0.55533000  0.83334020  0.79455859
   0.88951589  0.83374499  0.70559253
Direct configuration=     9
   0.26828711  0.24565538  0.52789628
   0.28064158  0.13932182  0.53044778
   0.35604076  0.32346087  0.55911586
   0.42521187  0.26507118  0.58111188
   0.37723557  0.15016251  0.56311335
   0.92063931  0.02212653  0.58750169
   0.09827586  0.09737079  0.63752687
   0.02260444  0.99634627  0.61252215
   0.04557733  0.18189731  0.63050856
   0.93514429  0.13489279  0.59941016
   0.17256692  0.15862244  0.58267479
   0.40803678  0.08341195  0.57290052
   0.03649762  0.91794930  0.61321552
   0.08604539  0.26473259  0.64619304
   0.18793096  0.10910703  0.65909440
   0.84946589  0.96613733  0.56423975
   0.21993707  0.06078903  0.51183444
   0.19713197  0.26213157  0.50692412
   0.36946695  0.41223349  0.56480866
   0.50276312  0.30266739  0.60616214
   0.88229877  0.18367546  0.58625866
   0.55590479  0.08380074  0.25001221
   0.55590535  0.33380079  0.25001203
   0.44575723  0.41656824  0.75043539
   0.55590494  0.58379965  0.25001209
   0.44378953  0.66601222  0.74998968
   0.55590504  0.83379996  0.25001206
   0.44395322  0.91625814  0.74996759
   0.88924220  0.33381110  0.25001151
   0.77721218  0.16618265  0.75037523
   0.77786796  0.41686593  0.74996494
   0.88924207  0.58380942  0.25001149
   0.77712098  0.66618641  0.74999548