  21  21   0   0
  0.3809524E+03  0.2000000E-08  0.2000000E-08  0.2000000E-08  0.5000000E-15
  1.000000000000000E-004
  CAR 
 basalPlane                              
      1.56655139    -22.98743762  301     -3.47944259      1.00000000
    -22.987  0.0000E+00  0.0000E+00
    -22.906  0.0000E+00  0.0000E+00
    -22.824  0.0000E+00  0.0000E+00
    -22.742  0.0000E+00  0.0000E+00
    -22.660  0.0000E+00  0.0000E+00
    -22.578  0.0000E+00  0.0000E+00
    -22.496  0.0000E+00  0.0000E+00
    -22.415  0.1926E-16  0.1577E-17
    -22.333  0.8361E-13  0.6845E-14
    -22.251  0.9799E-10  0.8027E-11
    -22.169  0.3124E-07  0.2565E-08
    -22.087  0.2750E-05  0.2277E-06
    -22.005  0.6835E-04  0.5822E-05
    -21.923  0.4926E-03  0.4614E-04
    -21.842  0.1057E-02  0.1326E-03
    -21.760  0.6838E-03  0.1886E-03
    -21.678  0.1510E-03  0.2009E-03
    -21.596  0.2423E-03  0.2208E-03
    -21.514  0.8686E-03  0.2919E-03
    -21.432  0.9653E-03  0.3709E-03
    -21.351  0.3230E-03  0.3973E-03
    -21.269  0.3196E-04  0.3999E-03
    -21.187  0.9100E-06  0.4000E-03
    -21.105  0.7266E-08  0.4000E-03
    -21.023  0.1594E-10  0.4000E-03
    -20.941  0.9488E-14  0.4000E-03
    -20.859  0.1628E-17  0.4000E-03
    -20.778  0.0000E+00  0.4000E-03
    -20.696  0.0000E+00  0.4000E-03
    -20.614  0.0000E+00  0.4000E-03
    -20.532  0.0000E+00  0.4000E-03
    -20.450  0.0000E+00  0.4000E-03
    -20.368  0.0000E+00  0.4000E-03
    -20.286  0.0000E+00  0.4000E-03
    -20.205  0.0000E+00  0.4000E-03
    -20.123  0.0000E+00  0.4000E-03
    -20.041  0.0000E+00  0.4000E-03
    -19.959  0.0000E+00  0.4000E-03
    -19.877  0.0000E+00  0.4000E-03
    -19.795  0.0000E+00  0.4000E-03
    -19.714  0.0000E+00  0.4000E-03
    -19.632  0.0000E+00  0.4000E-03
    -19.550  0.0000E+00  0.4000E-03
    -19.468  0.0000E+00  0.4000E-03
    -19.386  0.0000E+00  0.4000E-03
    -19.304  0.0000E+00  0.4000E-03
    -19.222  0.0000E+00  0.4000E-03
    -19.141  0.0000E+00  0.4000E-03
    -19.059  0.0000E+00  0.4000E-03
    -18.977  0.0000E+00  0.4000E-03
    -18.895  0.0000E+00  0.4000E-03
    -18.813  0.0000E+00  0.4000E-03
    -18.731  0.0000E+00  0.4000E-03
    -18.650  0.0000E+00  0.4000E-03
    -18.568  0.0000E+00  0.4000E-03
    -18.486  0.0000E+00  0.4000E-03
    -18.404  0.0000E+00  0.4000E-03
    -18.322  0.0000E+00  0.4000E-03
    -18.240  0.0000E+00  0.4000E-03
    -18.158  0.0000E+00  0.4000E-03
    -18.077  0.0000E+00  0.4000E-03
    -17.995  0.0000E+00  0.4000E-03
    -17.913  0.2442E-16  0.4000E-03
    -17.831  0.1135E-12  0.4000E-03
    -17.749  0.1421E-09  0.4000E-03
    -17.667  0.4863E-07  0.4000E-03
    -17.586  0.4649E-05  0.4004E-03
    -17.504  0.1293E-03  0.4110E-03
    -17.422  0.1117E-02  0.5024E-03
    -17.340  0.3287E-02  0.7714E-03
    -17.258  0.3575E-02  0.1064E-02
    -17.176  0.1449E-02  0.1183E-02
    -17.094  0.2035E-03  0.1199E-02
    -17.013  0.9015E-05  0.1200E-02
    -16.931  0.1173E-06  0.1200E-02
    -16.849  0.4288E-09  0.1200E-02
    -16.767  0.4299E-12  0.1200E-02
    -16.685  0.1167E-15  0.1200E-02
    -16.603  0.0000E+00  0.1200E-02
    -16.522  0.0000E+00  0.1200E-02
    -16.440  0.0000E+00  0.1200E-02
    -16.358  0.0000E+00  0.1200E-02
    -16.276  0.0000E+00  0.1200E-02
    -16.194  0.0000E+00  0.1200E-02
    -16.112  0.0000E+00  0.1200E-02
    -16.030  0.0000E+00  0.1200E-02
    -15.949  0.0000E+00  0.1200E-02
    -15.867  0.0000E+00  0.1200E-02
    -15.785  0.0000E+00  0.1200E-02
    -15.703  0.0000E+00  0.1200E-02
    -15.621  0.0000E+00  0.1200E-02
    -15.539  0.0000E+00  0.1200E-02
    -15.458  0.0000E+00  0.1200E-02
    -15.376  0.0000E+00  0.1200E-02
    -15.294  0.0000E+00  0.1200E-02
    -15.212  0.0000E+00  0.1200E-02
    -15.130  0.0000E+00  0.1200E-02
    -15.048  0.0000E+00  0.1200E-02
    -14.966  0.0000E+00  0.1200E-02
    -14.885  0.0000E+00  0.1200E-02
    -14.803  0.0000E+00  0.1200E-02
    -14.721  0.0000E+00  0.1200E-02
    -14.639  0.0000E+00  0.1200E-02
    -14.557  0.0000E+00  0.1200E-02
    -14.475  0.0000E+00  0.1200E-02
    -14.394  0.0000E+00  0.1200E-02
    -14.312  0.0000E+00  0.1200E-02
    -14.230  0.0000E+00  0.1200E-02
    -14.148  0.0000E+00  0.1200E-02
    -14.066  0.0000E+00  0.1200E-02
    -13.984  0.0000E+00  0.1200E-02
    -13.902  0.0000E+00  0.1200E-02
    -13.821  0.0000E+00  0.1200E-02
    -13.739  0.4788E-16  0.1200E-02
    -13.657  0.1844E-12  0.1200E-02
    -13.575  0.1926E-09  0.1200E-02
    -13.493  0.5557E-07  0.1200E-02
    -13.411  0.4552E-05  0.1200E-02
    -13.330  0.1100E-03  0.1209E-02
    -13.248  0.8283E-03  0.1277E-02
    -13.166  0.2158E-02  0.1454E-02
    -13.084  0.2725E-02  0.1677E-02
    -13.002  0.2762E-02  0.1903E-02
    -12.920  0.2123E-02  0.2077E-02
    -12.838  0.1176E-02  0.2173E-02
    -12.757  0.5263E-03  0.2216E-02
    -12.675  0.8613E-03  0.2286E-02
    -12.593  0.9921E-03  0.2368E-02
    -12.511  0.3557E-03  0.2397E-02
    -12.429  0.3779E-04  0.2400E-02
    -12.347  0.1158E-05  0.2400E-02
    -12.266  0.9955E-08  0.2400E-02
    -12.184  0.2355E-10  0.2400E-02
    -12.102  0.1512E-13  0.2400E-02
    -12.020  0.2713E-17  0.2400E-02
    -11.938  0.0000E+00  0.2400E-02
    -11.856  0.0000E+00  0.2400E-02
    -11.774  0.0000E+00  0.2400E-02
    -11.693  0.0000E+00  0.2400E-02
    -11.611  0.0000E+00  0.2400E-02
    -11.529  0.0000E+00  0.2400E-02
    -11.447  0.0000E+00  0.2400E-02
    -11.365  0.0000E+00  0.2400E-02
    -11.283  0.0000E+00  0.2400E-02
    -11.202  0.0000E+00  0.2400E-02
    -11.120  0.0000E+00  0.2400E-02
    -11.038  0.0000E+00  0.2400E-02
    -10.956  0.0000E+00  0.2400E-02
    -10.874  0.0000E+00  0.2400E-02
    -10.792  0.0000E+00  0.2400E-02
    -10.710  0.0000E+00  0.2400E-02
    -10.629  0.0000E+00  0.2400E-02
    -10.547  0.0000E+00  0.2400E-02
    -10.465  0.1628E-17  0.2400E-02
    -10.383  0.1005E-13  0.2400E-02
    -10.301  0.1673E-10  0.2400E-02
    -10.219  0.7552E-08  0.2400E-02
    -10.138  0.9374E-06  0.2400E-02
    -10.056  0.3263E-04  0.2403E-02
     -9.974  0.3269E-03  0.2430E-02
     -9.892  0.9703E-03  0.2509E-02
     -9.810  0.9195E-03  0.2584E-02
     -9.728  0.8043E-03  0.2650E-02
     -9.646  0.1850E-02  0.2801E-02
     -9.565  0.2031E-02  0.2968E-02
     -9.483  0.1801E-02  0.3115E-02
     -9.401  0.2181E-02  0.3294E-02
     -9.319  0.1117E-02  0.3385E-02
     -9.237  0.1784E-03  0.3400E-02
     -9.155  0.8711E-04  0.3407E-02
     -9.074  0.7913E-03  0.3471E-02
     -8.992  0.2674E-02  0.3690E-02
     -8.910  0.3619E-02  0.3986E-02
     -8.828  0.2439E-02  0.4186E-02
     -8.746  0.1467E-02  0.4306E-02
     -8.664  0.8991E-03  0.4380E-02
     -8.582  0.2292E-03  0.4399E-02
     -8.501  0.1785E-04  0.4400E-02
     -8.419  0.3991E-06  0.4400E-02
     -8.337  0.2493E-08  0.4400E-02
     -8.255  0.4266E-11  0.4400E-02
     -8.173  0.1976E-14  0.4400E-02
     -8.091  0.2713E-18  0.4400E-02
     -8.010  0.0000E+00  0.4400E-02
     -7.928  0.0000E+00  0.4400E-02
     -7.846  0.0000E+00  0.4400E-02
     -7.764  0.0000E+00  0.4400E-02
     -7.682  0.0000E+00  0.4400E-02
     -7.600  0.0000E+00  0.4400E-02
     -7.518  0.0000E+00  0.4400E-02
     -7.437  0.0000E+00  0.4400E-02
     -7.355  0.0000E+00  0.4400E-02
     -7.273  0.0000E+00  0.4400E-02
     -7.191  0.0000E+00  0.4400E-02
     -7.109  0.0000E+00  0.4400E-02
     -7.027  0.0000E+00  0.4400E-02
     -6.945  0.8095E-15  0.4400E-02
     -6.864  0.2227E-11  0.4400E-02
     -6.782  0.1656E-08  0.4400E-02
     -6.700  0.3372E-06  0.4400E-02
     -6.618  0.1912E-04  0.4402E-02
     -6.536  0.3090E-03  0.4427E-02
     -6.454  0.1465E-02  0.4547E-02
     -6.373  0.2082E-02  0.4717E-02
     -6.291  0.8934E-03  0.4790E-02
     -6.209  0.1142E-03  0.4800E-02
     -6.127  0.1382E-04  0.4801E-02
     -6.045  0.1960E-03  0.4817E-02
     -5.963  0.1177E-02  0.4913E-02
     -5.881  0.2129E-02  0.5087E-02
     -5.800  0.1172E-02  0.5183E-02
     -5.718  0.1945E-03  0.5199E-02
     -5.636  0.9486E-05  0.5200E-02
     -5.554  0.1324E-06  0.5200E-02
     -5.472  0.5164E-09  0.5200E-02
     -5.390  0.5541E-12  0.5200E-02
     -5.309  0.1617E-15  0.5200E-02
     -5.227  0.0000E+00  0.5200E-02
     -5.145  0.0000E+00  0.5200E-02
     -5.063  0.0000E+00  0.5200E-02
     -4.981  0.0000E+00  0.5200E-02
     -4.899  0.0000E+00  0.5200E-02
     -4.817  0.0000E+00  0.5200E-02
     -4.736  0.0000E+00  0.5200E-02
     -4.654  0.0000E+00  0.5200E-02
     -4.572  0.0000E+00  0.5200E-02
     -4.490  0.0000E+00  0.5200E-02
     -4.408  0.0000E+00  0.5200E-02
     -4.326  0.0000E+00  0.5200E-02
     -4.245  0.8953E-17  0.5200E-02
     -4.163  0.4371E-13  0.5200E-02
     -4.081  0.5713E-10  0.5200E-02
     -3.999  0.2029E-07  0.5200E-02
     -3.917  0.1987E-05  0.5200E-02
     -3.835  0.5483E-04  0.5205E-02
     -3.753  0.4381E-03  0.5241E-02
     -3.672  0.1057E-02  0.5327E-02
     -3.590  0.1036E-02  0.5412E-02
     -3.508  0.1545E-02  0.5538E-02
     -3.426  0.2072E-02  0.5708E-02
     -3.344  0.9753E-03  0.5788E-02
     -3.262  0.1445E-03  0.5799E-02
     -3.181  0.6505E-05  0.5800E-02
     -3.099  0.8592E-07  0.5800E-02
     -3.017  0.3226E-09  0.5800E-02
     -2.935  0.3361E-12  0.5800E-02
     -2.853  0.9550E-16  0.5800E-02
     -2.771  0.0000E+00  0.5800E-02
     -2.689  0.0000E+00  0.5800E-02
     -2.608  0.0000E+00  0.5800E-02
     -2.526  0.0000E+00  0.5800E-02
     -2.444  0.0000E+00  0.5800E-02
     -2.362  0.0000E+00  0.5800E-02
     -2.280  0.0000E+00  0.5800E-02
     -2.198  0.0000E+00  0.5800E-02
     -2.117  0.0000E+00  0.5800E-02
     -2.035  0.0000E+00  0.5800E-02
     -1.953  0.0000E+00  0.5800E-02
     -1.871  0.0000E+00  0.5800E-02
     -1.789  0.0000E+00  0.5800E-02
     -1.707  0.0000E+00  0.5800E-02
     -1.625  0.0000E+00  0.5800E-02
     -1.544  0.0000E+00  0.5800E-02
     -1.462  0.0000E+00  0.5800E-02
     -1.380  0.2713E-18  0.5800E-02
     -1.298  0.2038E-14  0.5800E-02
     -1.216  0.4608E-11  0.5800E-02
     -1.134  0.2857E-08  0.5800E-02
     -1.053  0.4938E-06  0.5800E-02
     -0.971  0.2431E-04  0.5802E-02
     -0.889  0.3502E-03  0.5831E-02
     -0.807  0.1521E-02  0.5955E-02
     -0.725  0.2036E-02  0.6122E-02
     -0.643  0.8490E-03  0.6191E-02
     -0.561  0.2037E-03  0.6208E-02
     -0.480  0.5927E-03  0.6256E-02
     -0.398  0.1068E-02  0.6344E-02
     -0.316  0.5848E-03  0.6392E-02
     -0.234  0.9700E-04  0.6400E-02
     -0.152  0.5940E-04  0.6405E-02
     -0.070  0.6043E-03  0.6454E-02
      0.011  0.2104E-02  0.6626E-02
      0.093  0.2844E-02  0.6859E-02
      0.175  0.2379E-02  0.7054E-02
      0.257  0.1923E-02  0.7211E-02
      0.339  0.2378E-02  0.7406E-02
      0.421  0.3362E-02  0.7681E-02
      0.503  0.2792E-02  0.7909E-02
      0.584  0.9837E-03  0.7990E-02
      0.666  0.1185E-03  0.8000E-02
      0.748  0.4356E-05  0.8000E-02
      0.830  0.4616E-07  0.8000E-02
      0.912  0.1366E-09  0.8000E-02
      0.994  0.1109E-12  0.8000E-02
      1.075  0.2442E-16  0.8000E-02
      1.157  0.0000E+00  0.8000E-02
      1.239  0.0000E+00  0.8000E-02
      1.321  0.0000E+00  0.8000E-02
      1.403  0.0000E+00  0.8000E-02
      1.485  0.0000E+00  0.8000E-02
      1.567  0.0000E+00  0.8000E-02
