   21   2110000    1
  0.3809524E+03  0.2000000E-08  0.2000000E-08  0.2000000E-08  0.5000000E-15
  1.000000000000000E-004
  CAR 
 basalPlane                              
     56      1     40
 
  0.0000000E+00  0.0000000E+00  0.0000000E+00  0.1000000E+01
    1      -21.871347   1.000000
    2      -21.506977   1.000000
    3      -17.367226   1.000000
    4      -17.363868   1.000000
    5      -17.302507   1.000000
    6      -17.298222   1.000000
    7      -13.203868   1.000000
    8      -13.162493   1.000000
    9      -13.053290   1.000000
   10      -13.029815   1.000000
   11      -12.915717   1.000000
   12      -12.662799   1.000000
   13       -9.899777   1.000000
   14       -9.660638   1.000000
   15       -9.632696   1.000000
   16       -9.451875   1.000000
   17       -9.438750   1.000000
   18       -9.005944   1.000000
   19       -9.001844   1.000000
   20       -8.932841   1.000000
   21       -8.905240   1.000000
   22       -8.754547   1.000000
   23       -6.432749   1.000000
   24       -6.427975   1.000000
   25       -5.929134   1.000000
   26       -5.915965   1.000000
   27       -3.694567   0.998826
   28       -3.495366   0.589086
   29       -3.463732   0.412088
   30       -0.798010   0.000000
   31       -0.775209   0.000000
   32       -0.438914   0.000000
   33        0.006208   0.000000
   34        0.011271   0.000000
   35        0.104382   0.000000
   36        0.188766   0.000000
   37        0.321710   0.000000
   38        0.373095   0.000000
   39        0.438706   0.000000
   40        0.450461   0.000000
