       N       E                     dE             d eps       ncg     rms          rms(c)
DAV:   1     0.407649459443E+03    0.40765E+03   -0.10420E+04    96   0.611E+02
DAV:   2     0.106779417785E+03   -0.30087E+03   -0.28365E+03   128   0.121E+02
DAV:   3    -0.706585595352E+02   -0.17744E+03   -0.17644E+03   112   0.973E+01
DAV:   4    -0.107979049284E+03   -0.37320E+02   -0.36969E+02   128   0.684E+01
DAV:   5    -0.109201184038E+03   -0.12221E+01   -0.11909E+01   104   0.994E+00    0.263E+01
DAV:   6    -0.153821429799E+03   -0.44620E+02   -0.28513E+02   128   0.939E+01    0.104E+02
DAV:   7    -0.133424126867E+03    0.20397E+02   -0.29372E+01   104   0.645E+01    0.670E+01
DAV:   8    -0.100823747200E+03    0.32600E+02   -0.52154E+01   128   0.141E+02    0.170E+01
DAV:   9    -0.980415043562E+02    0.27822E+01   -0.14824E+01   136   0.188E+01    0.687E+00
DAV:  10    -0.981128511667E+02   -0.71347E-01   -0.58669E+00   120   0.900E+00    0.528E+00
DAV:  11    -0.979767112448E+02    0.13614E+00   -0.61485E-01   136   0.311E+00    0.457E+00
DAV:  12    -0.978344772243E+02    0.14223E+00   -0.34633E-01   120   0.276E+00    0.359E+00
DAV:  13    -0.978171844354E+02    0.17293E-01   -0.13467E-01   120   0.216E+00    0.331E+00
DAV:  14    -0.978048486213E+02    0.12336E-01   -0.35668E-02   120   0.726E-01    0.281E+00
DAV:  15    -0.978008134587E+02    0.40352E-02   -0.13192E-02   112   0.459E-01    0.217E+00
DAV:  16    -0.977974620822E+02    0.33514E-02   -0.10935E-02   128   0.364E-01    0.162E+00
DAV:  17    -0.978009829165E+02   -0.35208E-02   -0.22730E-03   120   0.195E-01    0.131E+00
DAV:  18    -0.978071763691E+02   -0.61935E-02   -0.73975E-03   128   0.410E-01    0.583E-01
DAV:  19    -0.978124556693E+02   -0.52793E-02   -0.63754E-03   128   0.407E-01    0.816E-02
DAV:  20    -0.978163862123E+02   -0.39305E-02   -0.14026E-03   112   0.187E-01    0.141E-01
DAV:  21    -0.978197743604E+02   -0.33881E-02   -0.54320E-04    96   0.881E-02    0.193E-01
DAV:  22    -0.978209093843E+02   -0.11350E-02   -0.10847E-04    64   0.744E-02    0.158E-01
DAV:  23    -0.978225133448E+02   -0.16040E-02   -0.24706E-04    96   0.539E-02    0.122E-01
DAV:  24    -0.978242764630E+02   -0.17631E-02   -0.22206E-04    72   0.568E-02    0.614E-02
DAV:  25    -0.978250643471E+02   -0.78788E-03   -0.73202E-05    64   0.446E-02    0.442E-02
DAV:  26    -0.978253380242E+02   -0.27368E-03   -0.37521E-05    48   0.320E-02    0.285E-02
DAV:  27    -0.978257292282E+02   -0.39120E-03   -0.53958E-05    64   0.231E-02    0.105E-02
DAV:  28    -0.978258314737E+02   -0.10225E-03   -0.19667E-05    48   0.232E-02    0.295E-03
DAV:  29    -0.978258842555E+02   -0.52782E-04   -0.12342E-05    40   0.122E-02
   1 F= -.98554999E+02 E0= -.98552998E+02  d E =-.985550E+02
       N       E                     dE             d eps       ncg     rms          rms(c)
DAV:   1    -0.992100475537E+02   -0.13842E+01   -0.13094E+03    80   0.181E+02    0.309E+01
DAV:   2    -0.118880380411E+03   -0.19670E+02   -0.23621E+02   136   0.121E+02    0.251E+01
DAV:   3    -0.108907134715E+03    0.99732E+01   -0.69047E+01   120   0.409E+01    0.136E+01
DAV:   4    -0.110194265073E+03   -0.12871E+01   -0.45074E+01   128   0.585E+01    0.136E+01
DAV:   5    -0.108183554781E+03    0.20107E+01   -0.88992E+00   128   0.193E+01    0.390E+00
DAV:   6    -0.108232439342E+03   -0.48885E-01   -0.95259E-01   128   0.540E+00    0.262E+00
DAV:   7    -0.108232161882E+03    0.27746E-03   -0.14390E-01   128   0.306E+00    0.134E+00
DAV:   8    -0.108232842399E+03   -0.68052E-03   -0.23723E-02   112   0.588E-01    0.805E-01
DAV:   9    -0.108229239540E+03    0.36029E-02   -0.97221E-03   128   0.662E-01    0.462E-01
DAV:  10    -0.108227549880E+03    0.16897E-02   -0.40805E-03   128   0.451E-01    0.247E-01
DAV:  11    -0.108227428629E+03    0.12125E-03   -0.30195E-03   128   0.391E-01    0.560E-02
DAV:  12    -0.108227879161E+03   -0.45053E-03   -0.27757E-04    80   0.135E-01    0.781E-02
DAV:  13    -0.108228357363E+03   -0.47820E-03   -0.28213E-04    72   0.148E-01    0.235E-02
DAV:  14    -0.108228955478E+03   -0.59811E-03   -0.17921E-04    80   0.537E-02    0.174E-02
DAV:  15    -0.108229358271E+03   -0.40279E-03   -0.41747E-05    80   0.448E-02    0.191E-02
DAV:  16    -0.108229759126E+03   -0.40085E-03   -0.48707E-05    72   0.284E-02    0.159E-02
DAV:  17    -0.108229942986E+03   -0.18386E-03   -0.26090E-05    72   0.242E-02    0.747E-03
DAV:  18    -0.108230107629E+03   -0.16464E-03   -0.23947E-05    80   0.268E-02    0.934E-03
DAV:  19    -0.108230195576E+03   -0.87947E-04   -0.95003E-06    64   0.193E-02
   2 F= -.10905093E+03 E0= -.10904614E+03  d E =-.104959E+02
       N       E                     dE             d eps       ncg     rms          rms(c)
DAV:   1    -0.105956218773E+03    0.22739E+01   -0.84960E+02    80   0.144E+02    0.165E+01
DAV:   2    -0.113024421843E+03   -0.70682E+01   -0.92167E+01   136   0.793E+01    0.242E+01
DAV:   3    -0.110599009743E+03    0.24254E+01   -0.61945E+00   128   0.138E+01    0.170E+01
DAV:   4    -0.109831985359E+03    0.76702E+00   -0.58020E+00   120   0.973E+00    0.835E+00
DAV:   5    -0.109485162932E+03    0.34682E+00   -0.64454E+00   128   0.165E+01    0.282E+00
DAV:   6    -0.109403585017E+03    0.81578E-01   -0.12253E+00   128   0.971E+00    0.219E+00
DAV:   7    -0.109396143868E+03    0.74411E-02   -0.20486E-01   128   0.278E+00    0.832E-01
DAV:   8    -0.109396080032E+03    0.63836E-04   -0.48505E-02   136   0.806E-01    0.732E-01
DAV:   9    -0.109393659456E+03    0.24206E-02   -0.13753E-02   128   0.837E-01    0.430E-01
DAV:  10    -0.109394275647E+03   -0.61619E-03   -0.68630E-03   128   0.505E-01    0.175E-01
DAV:  11    -0.109395230592E+03   -0.95494E-03   -0.75893E-04   104   0.124E-01    0.966E-02
DAV:  12    -0.109396094213E+03   -0.86362E-03   -0.60421E-04    88   0.225E-01    0.402E-02
DAV:  13    -0.109397034438E+03   -0.94022E-03   -0.14537E-04    88   0.476E-02    0.323E-02
DAV:  14    -0.109397492291E+03   -0.45785E-03   -0.70658E-05    88   0.744E-02    0.112E-02
DAV:  15    -0.109398327418E+03   -0.83513E-03   -0.12479E-04    80   0.383E-02    0.313E-02
DAV:  16    -0.109398551346E+03   -0.22393E-03   -0.31519E-05    80   0.238E-02    0.137E-02
DAV:  17    -0.109398872068E+03   -0.32072E-03   -0.51100E-05    80   0.278E-02    0.588E-03
DAV:  18    -0.109398978706E+03   -0.10664E-03   -0.19636E-05    80   0.173E-02    0.763E-03
DAV:  19    -0.109399006666E+03   -0.27960E-04   -0.45002E-06    64   0.103E-02
   3 F= -.11018481E+03 E0= -.11013326E+03  d E =-.116298E+02
       N       E                     dE             d eps       ncg     rms          rms(c)
DAV:   1    -0.109403195100E+03   -0.42164E-02   -0.14694E+02    80   0.622E+01    0.607E+00
DAV:   2    -0.110086717179E+03   -0.68352E+00   -0.89765E+00   128   0.271E+01    0.996E+00
DAV:   3    -0.109817797181E+03    0.26892E+00   -0.16229E+00   128   0.126E+01    0.630E+00
DAV:   4    -0.110082127396E+03   -0.26433E+00   -0.99973E-01   120   0.999E+00    0.798E+00
DAV:   5    -0.109804808651E+03    0.27732E+00   -0.89019E-01   128   0.103E+01    0.241E+00
DAV:   6    -0.109792353530E+03    0.12455E-01   -0.12597E-01   128   0.201E+00    0.833E-01
DAV:   7    -0.109791674345E+03    0.67918E-03   -0.84251E-03   120   0.364E-01    0.578E-01
DAV:   8    -0.109791462984E+03    0.21136E-03   -0.48816E-03   120   0.222E-01    0.421E-01
DAV:   9    -0.109791356738E+03    0.10625E-03   -0.29860E-03   120   0.350E-01    0.163E-01
DAV:  10    -0.109791674859E+03   -0.31812E-03   -0.70579E-04   104   0.103E-01    0.955E-02
DAV:  11    -0.109792034362E+03   -0.35950E-03   -0.24688E-04    64   0.728E-02    0.440E-02
DAV:  12    -0.109792514011E+03   -0.47965E-03   -0.22388E-04    88   0.702E-02    0.147E-02
DAV:  13    -0.109792820368E+03   -0.30636E-03   -0.62194E-05    80   0.469E-02    0.134E-02
DAV:  14    -0.109793134252E+03   -0.31388E-03   -0.41442E-05    80   0.332E-02    0.160E-02
DAV:  15    -0.109793398524E+03   -0.26427E-03   -0.34942E-05    80   0.251E-02    0.112E-02
DAV:  16    -0.109793545249E+03   -0.14673E-03   -0.21604E-05    80   0.222E-02    0.431E-03
DAV:  17    -0.109793630170E+03   -0.84921E-04   -0.16008E-05    80   0.174E-02
   4 F= -.11059816E+03 E0= -.11056653E+03  d E =-.120432E+02
       N       E                     dE             d eps       ncg     rms          rms(c)
DAV:   1    -0.114185638267E+03   -0.43921E+01   -0.61836E+02    80   0.127E+02    0.122E+01
DAV:   2    -0.117219584090E+03   -0.30339E+01   -0.36761E+01   120   0.420E+01    0.148E+01
DAV:   3    -0.116514730263E+03    0.70485E+00   -0.19759E+00   120   0.105E+01    0.930E+00
DAV:   4    -0.116321144308E+03    0.19359E+00   -0.17880E+00   136   0.738E+00    0.719E+00
DAV:   5    -0.116144637920E+03    0.17651E+00   -0.23752E+00   128   0.114E+01    0.194E+00
DAV:   6    -0.116128103942E+03    0.16534E-01   -0.30422E-01   128   0.279E+00    0.132E+00
DAV:   7    -0.116128053545E+03    0.50397E-04   -0.96190E-02   128   0.921E-01    0.988E-01
DAV:   8    -0.116121895808E+03    0.61577E-02   -0.55154E-02   128   0.111E+00    0.330E-01
DAV:   9    -0.116122351972E+03   -0.45616E-03   -0.13335E-02   128   0.566E-01    0.166E-01
DAV:  10    -0.116122991955E+03   -0.63998E-03   -0.26501E-03   128   0.222E-01    0.717E-02
DAV:  11    -0.116123898202E+03   -0.90625E-03   -0.48112E-04    80   0.671E-02    0.734E-02
DAV:  12    -0.116124977486E+03   -0.10793E-02   -0.22924E-04    80   0.982E-02    0.429E-02
DAV:  13    -0.116125519947E+03   -0.54246E-03   -0.11256E-04    80   0.481E-02    0.313E-02
DAV:  14    -0.116126022792E+03   -0.50284E-03   -0.53034E-05    80   0.377E-02    0.202E-02
DAV:  15    -0.116126732901E+03   -0.71011E-03   -0.16276E-04    80   0.574E-02    0.219E-02
DAV:  16    -0.116126882203E+03   -0.14930E-03   -0.49738E-05    80   0.425E-02    0.176E-02
DAV:  17    -0.116126930630E+03   -0.48427E-04   -0.12472E-05    64   0.177E-02
   5 F= -.11696319E+03 E0= -.11690977E+03  d E =-.636503E+01
       N       E                     dE             d eps       ncg     rms          rms(c)
DAV:   1    -0.116247178460E+03   -0.12030E+00   -0.16789E+01    80   0.214E+01    0.203E+00
DAV:   2    -0.116284280226E+03   -0.37102E-01   -0.77232E-01   120   0.692E+00    0.291E+00
DAV:   3    -0.116294492409E+03   -0.10212E-01   -0.29492E-02   136   0.100E+00    0.329E+00
DAV:   4    -0.116285828715E+03    0.86637E-02   -0.37498E-02   128   0.113E+00    0.211E+00
DAV:   5    -0.116265515951E+03    0.20313E-01   -0.80624E-02   120   0.222E+00    0.966E-01
DAV:   6    -0.116265378174E+03    0.13778E-03   -0.46442E-03   120   0.380E-01    0.940E-01
DAV:   7    -0.116263997230E+03    0.13809E-02   -0.12250E-03   128   0.182E-01    0.766E-01
DAV:   8    -0.116262940813E+03    0.10564E-02   -0.32426E-03   128   0.383E-01    0.526E-01
DAV:   9    -0.116262373406E+03    0.56741E-03   -0.28678E-03   128   0.376E-01    0.291E-01
DAV:  10    -0.116262245306E+03    0.12810E-03   -0.59180E-04    72   0.923E-02    0.164E-01
DAV:  11    -0.116262237193E+03    0.81131E-05   -0.32675E-04    80   0.886E-02
   6 F= -.11710334E+03 E0= -.11704867E+03  d E =-.650518E+01
       N       E                     dE             d eps       ncg     rms          rms(c)
DAV:   1    -0.123944727678E+03   -0.76825E+01   -0.13797E+02    80   0.612E+01    0.457E+00
DAV:   2    -0.124125380403E+03   -0.18065E+00   -0.48548E+00   128   0.143E+01    0.457E+00
DAV:   3    -0.124053407608E+03    0.71973E-01   -0.19743E+00   128   0.940E+00    0.274E+00
DAV:   4    -0.123955703825E+03    0.97704E-01   -0.35513E-01   136   0.399E+00    0.169E+00
DAV:   5    -0.123948548319E+03    0.71555E-02   -0.56834E-02   128   0.102E+00    0.116E+00
DAV:   6    -0.123939128937E+03    0.94194E-02   -0.31951E-02   128   0.115E+00    0.409E-01
DAV:   7    -0.123938924069E+03    0.20487E-03   -0.13041E-02   128   0.456E-01    0.288E-01
DAV:   8    -0.123938606354E+03    0.31772E-03   -0.60004E-03    88   0.149E-01    0.127E-01
DAV:   9    -0.123938743582E+03   -0.13723E-03   -0.26026E-03   104   0.225E-01    0.778E-02
DAV:  10    -0.123939042118E+03   -0.29854E-03   -0.10606E-03    80   0.622E-02    0.639E-02
DAV:  11    -0.123939283981E+03   -0.24186E-03   -0.39919E-04    80   0.499E-02    0.281E-02
DAV:  12    -0.123939513564E+03   -0.22958E-03   -0.11744E-04    80   0.364E-02    0.201E-02
DAV:  13    -0.123939786075E+03   -0.27251E-03   -0.56701E-05    80   0.279E-02    0.861E-03
DAV:  14    -0.123939849726E+03   -0.63651E-04   -0.17154E-05    88   0.254E-02
   7 F= -.12478603E+03 E0= -.12474108E+03  d E =-.768270E+01
       N       E                     dE             d eps       ncg     rms          rms(c)
DAV:   1    -0.127616512979E+03   -0.36767E+01   -0.22962E+02    80   0.790E+01    0.645E+00
DAV:   2    -0.128170082462E+03   -0.55357E+00   -0.10421E+01   128   0.208E+01    0.729E+00
DAV:   3    -0.128003239697E+03    0.16684E+00   -0.57360E+00   136   0.149E+01    0.402E+00
DAV:   4    -0.127723106457E+03    0.28013E+00   -0.46279E-01   128   0.536E+00    0.204E+00
DAV:   5    -0.127695136322E+03    0.27970E-01   -0.26412E-01   128   0.207E+00    0.115E+00
DAV:   6    -0.127691797247E+03    0.33391E-02   -0.74140E-02   120   0.755E-01    0.577E-01
DAV:   7    -0.127691366752E+03    0.43050E-03   -0.63591E-02   136   0.643E-01    0.558E-01
DAV:   8    -0.127690468584E+03    0.89817E-03   -0.32859E-02   120   0.323E-01    0.208E-01
DAV:   9    -0.127690487785E+03   -0.19202E-04   -0.82327E-03   112   0.277E-01    0.163E-01
DAV:  10    -0.127690572749E+03   -0.84963E-04   -0.33332E-03    72   0.102E-01    0.628E-02
DAV:  11    -0.127690981095E+03   -0.40835E-03   -0.96686E-04    72   0.949E-02    0.559E-02
DAV:  12    -0.127691299897E+03   -0.31880E-03   -0.57422E-04    80   0.535E-02    0.454E-02
DAV:  13    -0.127691541378E+03   -0.24148E-03   -0.18312E-04    72   0.433E-02    0.114E-02
DAV:  14    -0.127691855083E+03   -0.31370E-03   -0.65907E-05    80   0.341E-02    0.109E-02
DAV:  15    -0.127691900769E+03   -0.45686E-04   -0.17486E-05    88   0.250E-02
   8 F= -.12846660E+03 E0= -.12843038E+03  d E =-.113633E+02
       N       E                     dE             d eps       ncg     rms          rms(c)
DAV:   1    -0.127815451933E+03   -0.12360E+00   -0.11575E+01    80   0.178E+01    0.168E+00
DAV:   2    -0.127844641956E+03   -0.29190E-01   -0.54097E-01   128   0.489E+00    0.207E+00
DAV:   3    -0.127804984853E+03    0.39657E-01   -0.18921E-01   120   0.361E+00    0.934E-01
DAV:   4    -0.127797270675E+03    0.77142E-02   -0.25410E-02   136   0.944E-01    0.555E-01
DAV:   5    -0.127796227625E+03    0.10430E-02   -0.35263E-03   128   0.271E-01    0.391E-01
DAV:   6    -0.127795597632E+03    0.62999E-03   -0.61346E-03   128   0.216E-01    0.181E-01
DAV:   7    -0.127795541806E+03    0.55826E-04   -0.45199E-03    88   0.189E-01    0.171E-01
DAV:   8    -0.127795511426E+03    0.30379E-04   -0.17090E-03    64   0.159E-01    0.625E-02
DAV:   9    -0.127795559983E+03   -0.48557E-04   -0.65310E-04    80   0.793E-02
   9 F= -.12858832E+03 E0= -.12855078E+03  d E =-.114850E+02
       N       E                     dE             d eps       ncg     rms          rms(c)
DAV:   1    -0.127833172008E+03   -0.37661E-01   -0.10087E+00    80   0.527E+00    0.464E-01
DAV:   2    -0.127835570489E+03   -0.23985E-02   -0.38463E-02   120   0.137E+00    0.672E-01
DAV:   3    -0.127832932208E+03    0.26383E-02   -0.14344E-02   120   0.991E-01    0.318E-01
DAV:   4    -0.127832085975E+03    0.84623E-03   -0.23645E-03   128   0.215E-01    0.177E-01
DAV:   5    -0.127831857560E+03    0.22842E-03   -0.53109E-04   104   0.191E-01    0.759E-02
DAV:   6    -0.127831885280E+03   -0.27720E-04   -0.15147E-04    72   0.983E-02
  10 F= -.12861930E+03 E0= -.12858186E+03  d E =-.115160E+02
       N       E                     dE             d eps       ncg     rms          rms(c)
DAV:   1    -0.127909527169E+03   -0.77670E-01   -0.25658E+02    80   0.819E+01    0.805E+00
DAV:   2    -0.128853701019E+03   -0.94417E+00   -0.13138E+01   128   0.258E+01    0.903E+00
DAV:   3    -0.128765488575E+03    0.88212E-01   -0.48473E+00   128   0.151E+01    0.518E+00
DAV:   4    -0.128636974639E+03    0.12851E+00   -0.13839E+00   120   0.101E+01    0.610E+00
DAV:   5    -0.128517624730E+03    0.11935E+00   -0.85583E-01   128   0.721E+00    0.148E+00
DAV:   6    -0.128517220215E+03    0.40451E-03   -0.42761E-01   128   0.141E+00    0.157E+00
DAV:   7    -0.128507531903E+03    0.96883E-02   -0.27074E-01   128   0.798E-01    0.777E-01
DAV:   8    -0.128503132991E+03    0.43989E-02   -0.11962E-01   136   0.585E-01    0.630E-01
DAV:   9    -0.128500384110E+03    0.27489E-02   -0.44646E-02   128   0.373E-01    0.242E-01
DAV:  10    -0.128499761893E+03    0.62222E-03   -0.90626E-03   112   0.217E-01    0.151E-01
DAV:  11    -0.128499697101E+03    0.64791E-04   -0.32953E-03    72   0.122E-01    0.879E-02
DAV:  12    -0.128499727182E+03   -0.30081E-04   -0.10293E-03    80   0.855E-02    0.486E-02
DAV:  13    -0.128499758309E+03   -0.31127E-04   -0.22008E-04    72   0.483E-02
  11 F= -.12925384E+03 E0= -.12922087E+03  d E =-.634543E+00
       N       E                     dE             d eps       ncg     rms          rms(c)
DAV:   1    -0.129072266116E+03   -0.57254E+00   -0.46056E+01    80   0.348E+01    0.207E+00
DAV:   2    -0.129270701216E+03   -0.19844E+00   -0.20811E+00   128   0.121E+01    0.440E+00
DAV:   3    -0.129167951129E+03    0.10275E+00   -0.17195E-01   128   0.311E+00    0.280E+00
DAV:   4    -0.129133616245E+03    0.34335E-01   -0.45544E-02   136   0.140E+00    0.153E+00
DAV:   5    -0.129125512148E+03    0.81041E-02   -0.77737E-02   120   0.203E+00    0.299E-01
DAV:   6    -0.129125684441E+03   -0.17229E-03   -0.14672E-02   120   0.506E-01    0.310E-01
DAV:   7    -0.129125008648E+03    0.67579E-03   -0.74106E-03   120   0.206E-01    0.141E-01
DAV:   8    -0.129125099653E+03   -0.91005E-04   -0.26213E-03    96   0.145E-01    0.121E-01
DAV:   9    -0.129125039532E+03    0.60120E-04   -0.12167E-03    88   0.104E-01    0.750E-02
DAV:  10    -0.129125045933E+03   -0.64005E-05   -0.28613E-04    88   0.902E-02
  12 F= -.12989369E+03 E0= -.12985836E+03  d E =-.127440E+01
       N       E                     dE             d eps       ncg     rms          rms(c)
DAV:   1    -0.130089389825E+03   -0.96435E+00   -0.14736E+02    80   0.608E+01    0.471E+00
DAV:   2    -0.130596329154E+03   -0.50694E+00   -0.61755E+00   120   0.172E+01    0.655E+00
DAV:   3    -0.130523135650E+03    0.73194E-01   -0.19102E+00   136   0.723E+00    0.415E+00
DAV:   4    -0.130489687613E+03    0.33448E-01   -0.29009E-01   120   0.381E+00    0.427E+00
DAV:   5    -0.130446642434E+03    0.43045E-01   -0.16604E-01   120   0.176E+00    0.199E+00
DAV:   6    -0.130425733363E+03    0.20909E-01   -0.10465E-01   128   0.251E+00    0.591E-01
DAV:   7    -0.130424263908E+03    0.14695E-02   -0.16337E-02   136   0.546E-01    0.377E-01
DAV:   8    -0.130423677184E+03    0.58672E-03   -0.98609E-03   136   0.284E-01    0.310E-01
DAV:   9    -0.130423430995E+03    0.24619E-03   -0.73737E-03   112   0.158E-01    0.183E-01
DAV:  10    -0.130423416246E+03    0.14749E-04   -0.37769E-03    96   0.140E-01    0.140E-01
DAV:  11    -0.130423383040E+03    0.33206E-04   -0.13184E-03    88   0.955E-02    0.611E-02
DAV:  12    -0.130423451027E+03   -0.67987E-04   -0.29649E-04    72   0.743E-02
  13 F= -.13116502E+03 E0= -.13112505E+03  d E =-.127133E+01
       N       E                     dE             d eps       ncg     rms          rms(c)
DAV:   1    -0.130507315879E+03   -0.83933E-01   -0.25057E+01    80   0.252E+01    0.129E+00
DAV:   2    -0.130574936316E+03   -0.67620E-01   -0.80369E-01   120   0.694E+00    0.227E+00
DAV:   3    -0.130561635498E+03    0.13301E-01   -0.52142E-02   136   0.168E+00    0.164E+00
DAV:   4    -0.130564927387E+03   -0.32919E-02   -0.89947E-03   128   0.650E-01    0.174E+00
DAV:   5    -0.130559714398E+03    0.52130E-02   -0.15735E-02   128   0.599E-01    0.125E+00
DAV:   6    -0.130552607183E+03    0.71072E-02   -0.42783E-02   128   0.159E+00    0.321E-01
DAV:   7    -0.130552709875E+03   -0.10269E-03   -0.70819E-03   120   0.238E-01    0.245E-01
DAV:   8    -0.130552740892E+03   -0.31018E-04   -0.24918E-03    88   0.993E-02    0.222E-01
DAV:   9    -0.130552600312E+03    0.14058E-03   -0.20134E-03    88   0.121E-01    0.125E-01
DAV:  10    -0.130552603380E+03   -0.30674E-05   -0.69802E-04    80   0.902E-02
  14 F= -.13128023E+03 E0= -.13123416E+03  d E =-.138654E+01
       N       E                     dE             d eps       ncg     rms          rms(c)
DAV:   1    -0.130932244181E+03   -0.37964E+00   -0.12762E+02    80   0.573E+01    0.457E+00
DAV:   2    -0.131417367232E+03   -0.48512E+00   -0.63146E+00   120   0.177E+01    0.671E+00
DAV:   3    -0.131323158177E+03    0.94209E-01   -0.25898E+00   120   0.766E+00    0.448E+00
DAV:   4    -0.131274546658E+03    0.48612E-01   -0.42408E-01   112   0.302E+00    0.406E+00
DAV:   5    -0.131283474741E+03   -0.89281E-02   -0.35126E-01   128   0.243E+00    0.345E+00
DAV:   6    -0.131230487587E+03    0.52987E-01   -0.47795E-01   128   0.411E+00    0.157E+00
DAV:   7    -0.131227107083E+03    0.33805E-02   -0.32690E-01   128   0.764E-01    0.113E+00
DAV:   8    -0.131220803303E+03    0.63038E-02   -0.14171E-01   128   0.571E-01    0.665E-01
DAV:   9    -0.131218719527E+03    0.20838E-02   -0.51550E-02   120   0.358E-01    0.563E-01
DAV:  10    -0.131217524684E+03    0.11948E-02   -0.18586E-02   120   0.258E-01    0.287E-01
DAV:  11    -0.131217415713E+03    0.10897E-03   -0.26275E-03   112   0.203E-01    0.203E-01
DAV:  12    -0.131217392303E+03    0.23410E-04   -0.54663E-04    80   0.995E-02
  15 F= -.13190639E+03 E0= -.13185646E+03  d E =-.626163E+00
       N       E                     dE             d eps       ncg     rms          rms(c)
DAV:   1    -0.131217126745E+03    0.28897E-03   -0.50670E-01    80   0.360E+00    0.225E-01
DAV:   2    -0.131218987222E+03   -0.18605E-02   -0.28940E-02   128   0.111E+00    0.470E-01
DAV:   3    -0.131218219676E+03    0.76755E-03   -0.97579E-03    96   0.291E-01    0.266E-01
DAV:   4    -0.131218152416E+03    0.67260E-04   -0.23550E-03    64   0.101E-01    0.263E-01
DAV:   5    -0.131218530591E+03   -0.37818E-03   -0.44094E-03    96   0.237E-01    0.340E-01
DAV:   6    -0.131218389755E+03    0.14084E-03   -0.38691E-04    80   0.152E-01    0.281E-01
DAV:   7    -0.131219303440E+03   -0.91368E-03   -0.50000E-03    88   0.216E-01    0.511E-01
DAV:   8    -0.131218899341E+03    0.40410E-03   -0.13706E-03    72   0.991E-02    0.388E-01
DAV:   9    -0.131219019037E+03   -0.11970E-03   -0.58875E-04    72   0.666E-02    0.468E-01
DAV:  10    -0.131218582308E+03    0.43673E-03   -0.97001E-04    72   0.497E-02    0.341E-01
DAV:  11    -0.131218521682E+03    0.60627E-04   -0.10743E-04    56   0.399E-02
  16 F= -.13190992E+03 E0= -.13185886E+03  d E =-.629687E+00
       N       E                     dE             d eps       ncg     rms          rms(c)
DAV:   1    -0.131554550741E+03   -0.33597E+00   -0.24618E+01    80   0.252E+01    0.188E+00
DAV:   2    -0.131671079734E+03   -0.11653E+00   -0.17669E+00   128   0.789E+00    0.378E+00
DAV:   3    -0.131622921608E+03    0.48158E-01   -0.11645E+00   112   0.329E+00    0.207E+00
DAV:   4    -0.131601108763E+03    0.21813E-01   -0.23512E-01   136   0.863E-01    0.156E+00
DAV:   5    -0.131614227537E+03   -0.13119E-01   -0.30588E-01   112   0.195E+00    0.215E+00
DAV:   6    -0.131597781660E+03    0.16446E-01   -0.13183E-01   120   0.112E+00    0.122E+00
DAV:   7    -0.131606309200E+03   -0.85275E-02   -0.18672E-01   136   0.124E+00    0.186E+00
DAV:   8    -0.131596338005E+03    0.99712E-02   -0.76414E-02   136   0.384E-01    0.939E-01
DAV:   9    -0.131593379221E+03    0.29588E-02   -0.13425E-02    88   0.270E-01    0.111E+00
DAV:  10    -0.131589981310E+03    0.33979E-02   -0.16174E-02    96   0.175E-01    0.648E-01
DAV:  11    -0.131588801521E+03    0.11798E-02   -0.21604E-03    64   0.142E-01    0.607E-01
DAV:  12    -0.131588318550E+03    0.48297E-03   -0.11035E-03    88   0.786E-02    0.481E-01
DAV:  13    -0.131587455607E+03    0.86294E-03   -0.29590E-03    64   0.113E-01    0.201E-01
DAV:  14    -0.131587516384E+03   -0.60777E-04   -0.25060E-04    72   0.634E-02
  17 F= -.13225679E+03 E0= -.13220447E+03  d E =-.346870E+00
       N       E                     dE             d eps       ncg     rms          rms(c)
DAV:   1    -0.131667380374E+03   -0.79925E-01   -0.36029E+01    80   0.304E+01    0.208E+00
DAV:   2    -0.131820047020E+03   -0.15267E+00   -0.21062E+00   128   0.923E+00    0.404E+00
DAV:   3    -0.131765037641E+03    0.55009E-01   -0.13025E+00   112   0.381E+00    0.232E+00
DAV:   4    -0.131739587519E+03    0.25450E-01   -0.26265E-01   120   0.936E-01    0.171E+00
DAV:   5    -0.131755022542E+03   -0.15435E-01   -0.35417E-01   112   0.219E+00    0.228E+00
DAV:   6    -0.131734491298E+03    0.20531E-01   -0.21791E-01   128   0.140E+00    0.128E+00
DAV:   7    -0.131736665789E+03   -0.21745E-02   -0.21858E-01   136   0.128E+00    0.162E+00
DAV:   8    -0.131727936146E+03    0.87296E-02   -0.91796E-02   136   0.421E-01    0.666E-01
DAV:   9    -0.131725602438E+03    0.23337E-02   -0.20079E-02    88   0.290E-01    0.898E-01
DAV:  10    -0.131723334749E+03    0.22677E-02   -0.17356E-02    80   0.184E-01    0.444E-01
DAV:  11    -0.131722379103E+03    0.95565E-03   -0.24035E-03    64   0.166E-01    0.388E-01
DAV:  12    -0.131722297141E+03    0.81962E-04   -0.65303E-04    80   0.747E-02
  18 F= -.13236660E+03 E0= -.13231203E+03  d E =-.456686E+00
       N       E                     dE             d eps       ncg     rms          rms(c)
DAV:   1    -0.131907301533E+03   -0.18492E+00   -0.92634E+00    80   0.154E+01    0.831E-01
DAV:   2    -0.131929534521E+03   -0.22233E-01   -0.25582E-01    88   0.323E+00    0.125E+00
DAV:   3    -0.131926514423E+03    0.30201E-02   -0.45936E-02   136   0.758E-01    0.909E-01
DAV:   4    -0.131922769343E+03    0.37451E-02   -0.23051E-02   120   0.591E-01    0.673E-01
DAV:   5    -0.131923501042E+03   -0.73170E-03   -0.30329E-02   112   0.494E-01    0.804E-01
DAV:   6    -0.131921441194E+03    0.20598E-02   -0.20812E-02   112   0.439E-01    0.286E-01
DAV:   7    -0.131920705587E+03    0.73561E-03   -0.12527E-02   112   0.285E-01    0.358E-01
DAV:   8    -0.131920073835E+03    0.63175E-03   -0.72166E-03    72   0.153E-01    0.157E-01
DAV:   9    -0.131920127726E+03   -0.53890E-04   -0.27717E-03    64   0.110E-01    0.179E-01
DAV:  10    -0.131920009487E+03    0.11824E-03   -0.16802E-03    72   0.810E-02    0.986E-02
DAV:  11    -0.131920075903E+03   -0.66417E-04   -0.42386E-04    64   0.698E-02
  19 F= -.13255312E+03 E0= -.13249262E+03  d E =-.186515E+00
       N       E                     dE             d eps       ncg     rms          rms(c)
DAV:   1    -0.132095113530E+03   -0.17510E+00   -0.63838E+01    80   0.405E+01    0.277E+00
DAV:   2    -0.132315094772E+03   -0.21998E+00   -0.20240E+00   104   0.860E+00    0.359E+00
DAV:   3    -0.132243290324E+03    0.71804E-01   -0.38439E-01   120   0.279E+00    0.242E+00
DAV:   4    -0.132214458278E+03    0.28832E-01   -0.23475E-01   120   0.199E+00    0.189E+00
DAV:   5    -0.132242586260E+03   -0.28128E-01   -0.72238E-01   128   0.123E+00    0.302E+00
DAV:   6    -0.132207257389E+03    0.35329E-01   -0.27094E-01   128   0.124E+00    0.835E-01
DAV:   7    -0.132191996609E+03    0.15261E-01   -0.29531E-02   112   0.651E-01    0.697E-01
DAV:   8    -0.132190657391E+03    0.13392E-02   -0.27313E-02   120   0.370E-01    0.530E-01
DAV:   9    -0.132190535965E+03    0.12143E-03   -0.14290E-02    96   0.191E-01    0.482E-01
DAV:  10    -0.132190016961E+03    0.51900E-03   -0.73431E-03    80   0.144E-01    0.385E-01
DAV:  11    -0.132190124518E+03   -0.10756E-03   -0.38448E-03    64   0.141E-01    0.333E-01
DAV:  12    -0.132190008247E+03    0.11627E-03   -0.11706E-03    80   0.105E-01    0.255E-01
DAV:  13    -0.132189804253E+03    0.20399E-03   -0.75868E-04    72   0.936E-02    0.146E-01
DAV:  14    -0.132189904322E+03   -0.10007E-03   -0.18571E-04    56   0.468E-02    0.132E-01
DAV:  15    -0.132190013822E+03   -0.10950E-03   -0.12585E-04    72   0.388E-02    0.843E-02
DAV:  16    -0.132190017980E+03   -0.41574E-05   -0.24470E-05    80   0.298E-02
  20 F= -.13279609E+03 E0= -.13272932E+03  d E =-.429486E+00
       N       E                     dE             d eps       ncg     rms          rms(c)
DAV:   1    -0.132428591654E+03   -0.23858E+00   -0.69622E+00    80   0.136E+01    0.102E+00
DAV:   2    -0.132457465031E+03   -0.28873E-01   -0.39463E-01   128   0.313E+00    0.182E+00
DAV:   3    -0.132449069033E+03    0.83960E-02   -0.28695E-01   120   0.676E-01    0.111E+00
DAV:   4    -0.132442843373E+03    0.62257E-02   -0.15342E-01   128   0.663E-01    0.832E-01
DAV:   5    -0.132442637852E+03    0.20552E-03   -0.12465E-01   120   0.682E-01    0.940E-01
DAV:   6    -0.132439427836E+03    0.32100E-02   -0.57497E-02   128   0.434E-01    0.413E-01
DAV:   7    -0.132438559129E+03    0.86871E-03   -0.28783E-02   120   0.378E-01    0.574E-01
DAV:   8    -0.132437682749E+03    0.87638E-03   -0.12848E-02    96   0.219E-01    0.294E-01
DAV:   9    -0.132437127630E+03    0.55512E-03   -0.30960E-03    72   0.132E-01    0.265E-01
DAV:  10    -0.132437019277E+03    0.10835E-03   -0.11140E-03    72   0.807E-02    0.183E-01
DAV:  11    -0.132436920401E+03    0.98876E-04   -0.48130E-04    64   0.591E-02
  21 F= -.13303684E+03 E0= -.13296955E+03  d E =-.240753E+00
       N       E                     dE             d eps       ncg     rms          rms(c)
DAV:   1    -0.132570737183E+03   -0.13372E+00   -0.19456E+01    80   0.228E+01    0.166E+00
DAV:   2    -0.132650822907E+03   -0.80086E-01   -0.11674E+00   128   0.529E+00    0.285E+00
DAV:   3    -0.132627979282E+03    0.22844E-01   -0.80766E-01   120   0.123E+00    0.173E+00
DAV:   4    -0.132612751588E+03    0.15228E-01   -0.41652E-01   128   0.102E+00    0.136E+00
DAV:   5    -0.132611239981E+03    0.15116E-02   -0.33782E-01   128   0.129E+00    0.141E+00
DAV:   6    -0.132602847688E+03    0.83923E-02   -0.16413E-01   128   0.935E-01    0.699E-01
DAV:   7    -0.132600902464E+03    0.19452E-02   -0.80295E-02   128   0.430E-01    0.862E-01
DAV:   8    -0.132598624837E+03    0.22776E-02   -0.41365E-02   104   0.343E-01    0.367E-01
DAV:   9    -0.132597321962E+03    0.13029E-02   -0.11245E-02   104   0.264E-01    0.365E-01
DAV:  10    -0.132596978449E+03    0.34351E-03   -0.44279E-03    80   0.129E-01    0.186E-01
DAV:  11    -0.132596804581E+03    0.17387E-03   -0.12756E-03    80   0.103E-01    0.192E-01
DAV:  12    -0.132596781186E+03    0.23395E-04   -0.10569E-03    64   0.757E-02    0.962E-02
DAV:  13    -0.132596856990E+03   -0.75803E-04   -0.27612E-04    56   0.640E-02
  22 F= -.13318649E+03 E0= -.13311788E+03  d E =-.390401E+00
       N       E                     dE             d eps       ncg     rms          rms(c)
DAV:   1    -0.132791913537E+03   -0.19513E+00   -0.68124E+00    80   0.133E+01    0.781E-01
DAV:   2    -0.132806368690E+03   -0.14455E-01   -0.20280E-01   136   0.309E+00    0.784E-01
DAV:   3    -0.132803494777E+03    0.28739E-02   -0.26601E-02   128   0.797E-01    0.560E-01
DAV:   4    -0.132803809552E+03   -0.31477E-03   -0.36036E-02   128   0.429E-01    0.641E-01
DAV:   5    -0.132803752325E+03    0.57227E-04   -0.43981E-02   128   0.392E-01    0.460E-01
DAV:   6    -0.132802981699E+03    0.77063E-03   -0.24386E-02   128   0.427E-01    0.300E-01
DAV:   7    -0.132802592576E+03    0.38912E-03   -0.13481E-02    96   0.184E-01    0.220E-01
DAV:   8    -0.132802456127E+03    0.13645E-03   -0.76263E-03    80   0.132E-01    0.159E-01
DAV:   9    -0.132802387839E+03    0.68288E-04   -0.44077E-03    72   0.114E-01    0.136E-01
DAV:  10    -0.132802305883E+03    0.81956E-04   -0.21779E-03    72   0.874E-02    0.664E-02
DAV:  11    -0.132802303261E+03    0.26219E-05   -0.94400E-04    64   0.616E-02
  23 F= -.13338627E+03 E0= -.13331621E+03  d E =-.199778E+00
       N       E                     dE             d eps       ncg     rms          rms(c)
DAV:   1    -0.132929982247E+03   -0.12768E+00   -0.25599E+01    80   0.258E+01    0.160E+00
DAV:   2    -0.132990425607E+03   -0.60443E-01   -0.81515E-01   136   0.573E+00    0.169E+00
DAV:   3    -0.132983396701E+03    0.70289E-02   -0.21391E-01   128   0.111E+00    0.141E+00
DAV:   4    -0.132980901600E+03    0.24951E-02   -0.19950E-01   120   0.827E-01    0.123E+00
DAV:   5    -0.132986955878E+03   -0.60543E-02   -0.22752E-01   120   0.168E+00    0.140E+00
DAV:   6    -0.132978060615E+03    0.88953E-02   -0.14951E-01   120   0.125E+00    0.825E-01
DAV:   7    -0.132975058870E+03    0.30017E-02   -0.37744E-02   128   0.468E-01    0.593E-01
DAV:   8    -0.132973367475E+03    0.16914E-02   -0.24400E-02   104   0.313E-01    0.312E-01
DAV:   9    -0.132972740392E+03    0.62708E-03   -0.13343E-02    80   0.212E-01    0.272E-01
DAV:  10    -0.132972426103E+03    0.31429E-03   -0.68379E-03    80   0.157E-01    0.157E-01
DAV:  11    -0.132972399848E+03    0.26256E-04   -0.37686E-03    80   0.136E-01    0.178E-01
DAV:  12    -0.132972324138E+03    0.75710E-04   -0.25629E-03    72   0.113E-01    0.139E-01
DAV:  13    -0.132972420886E+03   -0.96749E-04   -0.22654E-03    72   0.970E-02    0.148E-01
DAV:  14    -0.132972400018E+03    0.20868E-04   -0.18234E-03    80   0.800E-02    0.118E-01
DAV:  15    -0.132972488486E+03   -0.88468E-04   -0.16719E-03    72   0.722E-02    0.126E-01
DAV:  16    -0.132972433053E+03    0.55432E-04   -0.12481E-03    80   0.665E-02    0.803E-02
DAV:  17    -0.132972502000E+03   -0.68946E-04   -0.10910E-03    72   0.589E-02    0.104E-01
DAV:  18    -0.132972472951E+03    0.29049E-04   -0.84805E-04    72   0.493E-02
  24 F= -.13354414E+03 E0= -.13347292E+03  d E =-.357654E+00
       N       E                     dE             d eps       ncg     rms          rms(c)
DAV:   1    -0.133218300301E+03   -0.24580E+00   -0.10549E+01    80   0.164E+01    0.137E+00
DAV:   2    -0.133274781180E+03   -0.56481E-01   -0.41702E-01   128   0.334E+00    0.256E+00
DAV:   3    -0.133253847622E+03    0.20934E-01   -0.50847E-01   120   0.136E+00    0.160E+00
DAV:   4    -0.133246632907E+03    0.72147E-02   -0.38543E-01   128   0.127E+00    0.141E+00
DAV:   5    -0.133237483559E+03    0.91493E-02   -0.42808E-02   120   0.533E-01    0.672E-01
DAV:   6    -0.133234327851E+03    0.31557E-02   -0.28615E-02   120   0.544E-01    0.527E-01
DAV:   7    -0.133232651258E+03    0.16766E-02   -0.79062E-03   112   0.317E-01    0.323E-01
DAV:   8    -0.133232062294E+03    0.58896E-03   -0.45680E-03    80   0.197E-01    0.357E-01
DAV:   9    -0.133231527996E+03    0.53430E-03   -0.19001E-03    80   0.183E-01    0.244E-01
DAV:  10    -0.133231330008E+03    0.19799E-03   -0.13644E-03    80   0.152E-01    0.293E-01
DAV:  11    -0.133231045533E+03    0.28448E-03   -0.11115E-03    80   0.134E-01    0.199E-01
DAV:  12    -0.133230921162E+03    0.12437E-03   -0.95264E-04    80   0.119E-01    0.220E-01
DAV:  13    -0.133230775414E+03    0.14575E-03   -0.77660E-04    80   0.996E-02    0.162E-01
DAV:  14    -0.133230721843E+03    0.53570E-04   -0.60686E-04    80   0.906E-02
  25 F= -.13379425E+03 E0= -.13372259E+03  d E =-.250105E+00
       N       E                     dE             d eps       ncg     rms          rms(c)
DAV:   1    -0.133316924940E+03   -0.86150E-01   -0.88303E+00    80   0.150E+01    0.123E+00
DAV:   2    -0.133362569112E+03   -0.45644E-01   -0.44617E-01   120   0.291E+00    0.236E+00
DAV:   3    -0.133348528430E+03    0.14041E-01   -0.55641E-01   128   0.117E+00    0.151E+00
DAV:   4    -0.133341935914E+03    0.65925E-02   -0.40359E-01   128   0.112E+00    0.131E+00
DAV:   5    -0.133334392164E+03    0.75437E-02   -0.94226E-02   120   0.487E-01    0.645E-01
DAV:   6    -0.133331546951E+03    0.28452E-02   -0.58324E-02   120   0.516E-01    0.578E-01
DAV:   7    -0.133329653057E+03    0.18939E-02   -0.60133E-03   112   0.353E-01    0.326E-01
DAV:   8    -0.133328894161E+03    0.75890E-03   -0.25557E-03    80   0.193E-01    0.396E-01
DAV:   9    -0.133328220395E+03    0.67377E-03   -0.17137E-03    80   0.179E-01    0.250E-01
DAV:  10    -0.133328105143E+03    0.11525E-03   -0.14007E-03    80   0.159E-01    0.332E-01
DAV:  11    -0.133327680654E+03    0.42449E-03   -0.12332E-03    80   0.142E-01    0.194E-01
DAV:  12    -0.133327587753E+03    0.92902E-04   -0.10551E-03    80   0.128E-01    0.240E-01
DAV:  13    -0.133327342547E+03    0.24521E-03   -0.83017E-04    80   0.106E-01    0.152E-01
DAV:  14    -0.133327348558E+03   -0.60112E-05   -0.62674E-04    72   0.933E-02
  26 F= -.13388233E+03 E0= -.13381107E+03  d E =-.338189E+00
       N       E                     dE             d eps       ncg     rms          rms(c)
DAV:   1    -0.133546662188E+03   -0.21932E+00   -0.14355E+01    80   0.193E+01    0.108E+00
DAV:   2    -0.133582543692E+03   -0.35882E-01   -0.47808E-01   128   0.405E+00    0.134E+00
DAV:   3    -0.133578605451E+03    0.39382E-02   -0.18155E-01   128   0.969E-01    0.113E+00
DAV:   4    -0.133575414916E+03    0.31905E-02   -0.14865E-01   128   0.621E-01    0.941E-01
DAV:   5    -0.133577924485E+03   -0.25096E-02   -0.15052E-01   128   0.109E+00    0.101E+00
DAV:   6    -0.133573795546E+03    0.41289E-02   -0.11652E-01   120   0.797E-01    0.688E-01
DAV:   7    -0.133572635547E+03    0.11600E-02   -0.58624E-02   120   0.359E-01    0.541E-01
DAV:   8    -0.133571440271E+03    0.11953E-02   -0.37062E-02   104   0.284E-01    0.338E-01
DAV:   9    -0.133570933431E+03    0.50684E-03   -0.12828E-02    88   0.179E-01    0.218E-01
DAV:  10    -0.133570753742E+03    0.17969E-03   -0.65765E-03    72   0.130E-01    0.172E-01
DAV:  11    -0.133570638273E+03    0.11547E-03   -0.17622E-03    72   0.998E-02    0.814E-02
DAV:  12    -0.133570749038E+03   -0.11076E-03   -0.82038E-04    72   0.772E-02    0.118E-01
DAV:  13    -0.133570708595E+03    0.40442E-04   -0.39052E-04    72   0.594E-02
  27 F= -.13411632E+03 E0= -.13404550E+03  d E =-.233988E+00
       N       E                     dE             d eps       ncg     rms          rms(c)
DAV:   1    -0.133601957803E+03   -0.31209E-01   -0.45027E+00    80   0.108E+01    0.596E-01
DAV:   2    -0.133613456916E+03   -0.11499E-01   -0.15564E-01   120   0.226E+00    0.810E-01
DAV:   3    -0.133612374575E+03    0.10823E-02   -0.61717E-02   120   0.641E-01    0.691E-01
DAV:   4    -0.133610768734E+03    0.16058E-02   -0.33342E-02   120   0.362E-01    0.496E-01
DAV:   5    -0.133610978744E+03   -0.21001E-03   -0.29829E-02   128   0.572E-01    0.435E-01
DAV:   6    -0.133610101577E+03    0.87717E-03   -0.21699E-02   128   0.443E-01    0.330E-01
DAV:   7    -0.133609870625E+03    0.23095E-03   -0.15145E-02    88   0.175E-01    0.281E-01
DAV:   8    -0.133609613228E+03    0.25740E-03   -0.94340E-03    88   0.189E-01    0.182E-01
DAV:   9    -0.133609478043E+03    0.13519E-03   -0.46463E-03    72   0.119E-01    0.134E-01
DAV:  10    -0.133609434643E+03    0.43401E-04   -0.16244E-03    72   0.888E-02    0.753E-02
DAV:  11    -0.133609436743E+03   -0.21007E-05   -0.67114E-04    72   0.599E-02
  28 F= -.13414970E+03 E0= -.13407833E+03  d E =-.267372E+00
       N       E                     dE             d eps       ncg     rms          rms(c)
DAV:   1    -0.133667815408E+03   -0.58381E-01   -0.35476E+00    80   0.965E+00    0.602E-01
DAV:   2    -0.133678144078E+03   -0.10329E-01   -0.15227E-01   128   0.205E+00    0.927E-01
DAV:   3    -0.133676789697E+03    0.13544E-02   -0.10313E-01   120   0.612E-01    0.743E-01
DAV:   4    -0.133674977782E+03    0.18119E-02   -0.62111E-02   136   0.360E-01    0.542E-01
DAV:   5    -0.133675356358E+03   -0.37858E-03   -0.54811E-02   128   0.581E-01    0.597E-01
DAV:   6    -0.133673789726E+03    0.15666E-02   -0.36686E-02   128   0.364E-01    0.332E-01
DAV:   7    -0.133673716693E+03    0.73033E-04   -0.22626E-02   104   0.244E-01    0.365E-01
DAV:   8    -0.133673118189E+03    0.59850E-03   -0.14753E-02    88   0.155E-01    0.168E-01
DAV:   9    -0.133673129782E+03   -0.11593E-04   -0.68708E-03    72   0.121E-01    0.186E-01
DAV:  10    -0.133672904832E+03    0.22495E-03   -0.36377E-03    72   0.924E-02    0.560E-02
DAV:  11    -0.133672997408E+03   -0.92576E-04   -0.17904E-03    72   0.694E-02    0.898E-02
DAV:  12    -0.133672945042E+03    0.52367E-04   -0.12787E-03    72   0.526E-02    0.393E-02
DAV:  13    -0.133673016859E+03   -0.71817E-04   -0.10075E-03    80   0.433E-02    0.599E-02
DAV:  14    -0.133673000560E+03    0.16299E-04   -0.86897E-04    72   0.341E-02
  29 F= -.13420999E+03 E0= -.13413931E+03  d E =-.602833E-01
       N       E                     dE             d eps       ncg     rms          rms(c)
DAV:   1    -0.133676816935E+03   -0.38001E-02   -0.29535E-01    96   0.278E+00    0.195E-01
DAV:   2    -0.133677624914E+03   -0.80798E-03   -0.14086E-02   128   0.601E-01    0.277E-01
DAV:   3    -0.133677541436E+03    0.83478E-04   -0.95264E-03   104   0.204E-01    0.255E-01
DAV:   4    -0.133677341194E+03    0.20024E-03   -0.65309E-03    96   0.129E-01    0.175E-01
DAV:   5    -0.133677403173E+03   -0.61980E-04   -0.58426E-03    88   0.185E-01    0.183E-01
DAV:   6    -0.133677233154E+03    0.17002E-03   -0.37691E-03    80   0.138E-01    0.980E-02
DAV:   7    -0.133677282492E+03   -0.49338E-04   -0.24179E-03    72   0.832E-02    0.116E-01
DAV:   8    -0.133677198843E+03    0.83649E-04   -0.16261E-03    72   0.668E-02    0.505E-02
DAV:   9    -0.133677239588E+03   -0.40745E-04   -0.87263E-04    72   0.509E-02
  30 F= -.13421329E+03 E0= -.13414293E+03  d E =-.635875E-01
       N       E                     dE             d eps       ncg     rms          rms(c)
DAV:   1    -0.133716840768E+03   -0.39642E-01   -0.25952E+00    80   0.811E+00    0.604E-01
DAV:   2    -0.133728564898E+03   -0.11724E-01   -0.12141E-01   120   0.160E+00    0.125E+00
DAV:   3    -0.133725876137E+03    0.26888E-02   -0.16706E-01   120   0.576E-01    0.853E-01
DAV:   4    -0.133722994085E+03    0.28821E-02   -0.10710E-01   128   0.471E-01    0.603E-01
DAV:   5    -0.133721924585E+03    0.10695E-02   -0.49837E-02   128   0.266E-01    0.484E-01
DAV:   6    -0.133720865811E+03    0.10588E-02   -0.26562E-02   120   0.296E-01    0.278E-01
DAV:   7    -0.133720582746E+03    0.28307E-03   -0.15177E-02    80   0.171E-01    0.312E-01
DAV:   8    -0.133720002567E+03    0.58018E-03   -0.10933E-02    80   0.167E-01    0.144E-01
DAV:   9    -0.133719943200E+03    0.59367E-04   -0.41015E-03    80   0.124E-01    0.180E-01
DAV:  10    -0.133719680615E+03    0.26258E-03   -0.25241E-03    80   0.975E-02    0.800E-02
DAV:  11    -0.133719753297E+03   -0.72682E-04   -0.10107E-03    72   0.704E-02    0.129E-01
DAV:  12    -0.133719612635E+03    0.14066E-03   -0.63591E-04    72   0.585E-02    0.520E-02
DAV:  13    -0.133719704408E+03   -0.91773E-04   -0.37680E-04    72   0.445E-02
  31 F= -.13425265E+03 E0= -.13418355E+03  d E =-.393601E-01
       N       E                     dE             d eps       ncg     rms          rms(c)
DAV:   1    -0.133724154796E+03   -0.45422E-02   -0.52784E-01    80   0.366E+00    0.253E-01
DAV:   2    -0.133726134070E+03   -0.19793E-02   -0.21930E-02   120   0.736E-01    0.485E-01
DAV:   3    -0.133725679411E+03    0.45466E-03   -0.23191E-02   120   0.253E-01    0.350E-01
DAV:   4    -0.133725195355E+03    0.48406E-03   -0.13778E-02    96   0.167E-01    0.213E-01
DAV:   5    -0.133725313596E+03   -0.11824E-03   -0.97224E-03    80   0.170E-01    0.262E-01
DAV:   6    -0.133724983368E+03    0.33023E-03   -0.40605E-03    80   0.161E-01    0.113E-01
DAV:   7    -0.133725069033E+03   -0.85665E-04   -0.28344E-03    72   0.107E-01    0.177E-01
DAV:   8    -0.133724882621E+03    0.18641E-03   -0.16323E-03    72   0.943E-02    0.368E-02
DAV:   9    -0.133724957567E+03   -0.74946E-04   -0.69354E-04    72   0.551E-02
  32 F= -.13425652E+03 E0= -.13418767E+03  d E =-.432288E-01
       N       E                     dE             d eps       ncg     rms          rms(c)
DAV:   1    -0.133751425539E+03   -0.26543E-01   -0.19630E+00    80   0.724E+00    0.421E-01
DAV:   2    -0.133755657872E+03   -0.42323E-02   -0.57808E-02   112   0.139E+00    0.479E-01
DAV:   3    -0.133755510714E+03    0.14716E-03   -0.35029E-02   120   0.255E-01    0.502E-01
DAV:   4    -0.133755048781E+03    0.46193E-03   -0.33564E-02   128   0.352E-01    0.389E-01
DAV:   5    -0.133755161246E+03   -0.11247E-03   -0.29643E-02   128   0.386E-01    0.406E-01
DAV:   6    -0.133754540876E+03    0.62037E-03   -0.18929E-02   104   0.188E-01    0.203E-01
DAV:   7    -0.133754415987E+03    0.12489E-03   -0.70901E-03    80   0.141E-01    0.203E-01
DAV:   8    -0.133754189670E+03    0.22632E-03   -0.41726E-03    80   0.106E-01    0.836E-02
DAV:   9    -0.133754205158E+03   -0.15487E-04   -0.89336E-04    80   0.760E-02
  33 F= -.13428309E+03 E0= -.13421602E+03  d E =-.265708E-01
       N       E                     dE             d eps       ncg     rms          rms(c)
DAV:   1    -0.133755869916E+03   -0.16802E-02   -0.15586E-01    80   0.204E+00    0.109E-01
DAV:   2    -0.133756309376E+03   -0.43946E-03   -0.59891E-03   128   0.391E-01    0.178E-01
DAV:   3    -0.133756176374E+03    0.13300E-03   -0.31963E-03    80   0.102E-01    0.112E-01
DAV:   4    -0.133756250229E+03   -0.73855E-04   -0.27051E-03    72   0.883E-02    0.136E-01
DAV:   5    -0.133756197071E+03    0.53158E-04   -0.15813E-03    72   0.969E-02    0.573E-02
DAV:   6    -0.133756240233E+03   -0.43162E-04   -0.86350E-04    72   0.857E-02
  34 F= -.13428439E+03 E0= -.13421758E+03  d E =-.278703E-01
       N       E                     dE             d eps       ncg     rms          rms(c)
DAV:   1    -0.133769349992E+03   -0.13153E-01   -0.95565E-01    80   0.499E+00    0.367E-01
DAV:   2    -0.133771561174E+03   -0.22112E-02   -0.40296E-02   112   0.109E+00    0.392E-01
DAV:   3    -0.133771860624E+03   -0.29945E-03   -0.25252E-02   112   0.191E-01    0.473E-01
DAV:   4    -0.133771321400E+03    0.53922E-03   -0.24061E-02    96   0.288E-01    0.298E-01
DAV:   5    -0.133771448261E+03   -0.12686E-03   -0.20834E-02    96   0.292E-01    0.340E-01
DAV:   6    -0.133770992463E+03    0.45580E-03   -0.67535E-03    64   0.138E-01    0.142E-01
DAV:   7    -0.133770901600E+03    0.90863E-04   -0.43149E-03    72   0.160E-01    0.183E-01
DAV:   8    -0.133770715641E+03    0.18596E-03   -0.15475E-03    64   0.705E-02    0.676E-02
DAV:   9    -0.133770749736E+03   -0.34095E-04   -0.11091E-03    56   0.627E-02    0.110E-01
DAV:  10    -0.133770672691E+03    0.77044E-04   -0.55158E-04    56   0.480E-02
  35 F= -.13429687E+03 E0= -.13423207E+03  d E =-.124845E-01
       N       E                     dE             d eps       ncg     rms          rms(c)
DAV:   1    -0.133771131898E+03   -0.38216E-03   -0.12898E-02    80   0.572E-01    0.102E-01
DAV:   2    -0.133771417544E+03   -0.28565E-03   -0.53356E-03    80   0.127E-01    0.248E-01
DAV:   3    -0.133771295054E+03    0.12249E-03   -0.78095E-03    64   0.125E-01    0.172E-01
DAV:   4    -0.133771259109E+03    0.35944E-04   -0.33051E-03    64   0.962E-02    0.141E-01
DAV:   5    -0.133771188656E+03    0.70454E-04   -0.22866E-03    80   0.582E-02    0.953E-02
DAV:   6    -0.133771157598E+03    0.31058E-04   -0.51496E-04    72   0.560E-02
  36 F= -.13429714E+03 E0= -.13423279E+03  d E =-.127508E-01
       N       E                     dE             d eps       ncg     rms          rms(c)
DAV:   1    -0.133785199997E+03   -0.14011E-01   -0.11193E+00    80   0.524E+00    0.509E-01
DAV:   2    -0.133792921999E+03   -0.77220E-02   -0.13244E-01   104   0.997E-01    0.112E+00
DAV:   3    -0.133791769574E+03    0.11524E-02   -0.17971E-01   120   0.470E-01    0.806E-01
DAV:   4    -0.133789589316E+03    0.21803E-02   -0.92455E-02   120   0.428E-01    0.614E-01
DAV:   5    -0.133788408373E+03    0.11809E-02   -0.65735E-02    96   0.230E-01    0.512E-01
DAV:   6    -0.133787053291E+03    0.13551E-02   -0.13962E-02    96   0.228E-01    0.288E-01
DAV:   7    -0.133786482386E+03    0.57090E-03   -0.92432E-03    64   0.195E-01    0.249E-01
DAV:   8    -0.133786065313E+03    0.41707E-03   -0.19531E-03    80   0.114E-01    0.143E-01
DAV:   9    -0.133785952893E+03    0.11242E-03   -0.13717E-03    80   0.960E-02    0.129E-01
DAV:  10    -0.133785857574E+03    0.95319E-04   -0.48198E-04    72   0.686E-02
  37 F= -.13430942E+03 E0= -.13424740E+03  d E =-.122761E-01
       N       E                     dE             d eps       ncg     rms          rms(c)
DAV:   1    -0.133789158772E+03   -0.32059E-02   -0.22644E-01    80   0.235E+00    0.263E-01
DAV:   2    -0.133791562436E+03   -0.24037E-02   -0.39765E-02   104   0.461E-01    0.662E-01
DAV:   3    -0.133790856133E+03    0.70630E-03   -0.49984E-02    96   0.268E-01    0.424E-01
DAV:   4    -0.133790295682E+03    0.56045E-03   -0.13115E-02    64   0.203E-01    0.358E-01
DAV:   5    -0.133789870176E+03    0.42551E-03   -0.94601E-03    80   0.145E-01    0.271E-01
DAV:   6    -0.133789491703E+03    0.37847E-03   -0.10965E-03    88   0.159E-01    0.167E-01
DAV:   7    -0.133789315438E+03    0.17626E-03   -0.70368E-04    64   0.106E-01    0.124E-01
DAV:   8    -0.133789221431E+03    0.94007E-04   -0.37544E-04    64   0.679E-02
  38 F= -.13431170E+03 E0= -.13425073E+03  d E =-.145603E-01
       N       E                     dE             d eps       ncg     rms          rms(c)
DAV:   1    -0.133801173939E+03   -0.11859E-01   -0.12824E+00    80   0.567E+00    0.424E-01
DAV:   2    -0.133806193395E+03   -0.50195E-02   -0.86925E-02   112   0.128E+00    0.831E-01
DAV:   3    -0.133805570569E+03    0.62283E-03   -0.80447E-02   128   0.295E-01    0.617E-01
DAV:   4    -0.133804173613E+03    0.13970E-02   -0.30708E-02   112   0.283E-01    0.454E-01
DAV:   5    -0.133804715478E+03   -0.54186E-03   -0.29123E-02    88   0.277E-01    0.584E-01
DAV:   6    -0.133803057541E+03    0.16579E-02   -0.38701E-03    72   0.212E-01    0.114E-01
DAV:   7    -0.133803180229E+03   -0.12269E-03   -0.16465E-03    72   0.173E-01    0.382E-01
DAV:   8    -0.133802529468E+03    0.65076E-03   -0.55764E-04    56   0.915E-02    0.746E-02
DAV:   9    -0.133802763916E+03   -0.23445E-03   -0.21124E-04    56   0.757E-02    0.255E-01
DAV:  10    -0.133802497363E+03    0.26655E-03   -0.95726E-05    56   0.495E-02    0.979E-02
DAV:  11    -0.133802602297E+03   -0.10493E-03   -0.29578E-05    56   0.431E-02    0.167E-01
DAV:  12    -0.133802528396E+03    0.73901E-04   -0.64123E-05    72   0.271E-02
  39 F= -.13432256E+03 E0= -.13426330E+03  d E =-.108611E-01
       N       E                     dE             d eps       ncg     rms          rms(c)
DAV:   1    -0.133804606782E+03   -0.20045E-02   -0.27118E-01    80   0.261E+00    0.257E-01
DAV:   2    -0.133806275754E+03   -0.16690E-02   -0.24133E-02   120   0.562E-01    0.522E-01
DAV:   3    -0.133806134675E+03    0.14108E-03   -0.25636E-02   104   0.237E-01    0.413E-01
DAV:   4    -0.133805435481E+03    0.69919E-03   -0.75179E-03    80   0.169E-01    0.255E-01
DAV:   5    -0.133805735655E+03   -0.30017E-03   -0.68623E-03    56   0.147E-01    0.385E-01
DAV:   6    -0.133804986744E+03    0.74891E-03   -0.26763E-03    56   0.149E-01    0.815E-02
DAV:   7    -0.133805164372E+03   -0.17763E-03   -0.22088E-03    56   0.123E-01    0.277E-01
DAV:   8    -0.133804803942E+03    0.36043E-03   -0.15359E-03    56   0.776E-02    0.867E-02
DAV:   9    -0.133804935106E+03   -0.13116E-03   -0.64923E-04    56   0.680E-02    0.182E-01
DAV:  10    -0.133804814090E+03    0.12102E-03   -0.32304E-04    72   0.376E-02    0.983E-02
DAV:  11    -0.133804877157E+03   -0.63067E-04   -0.13272E-04    72   0.308E-02
  40 F= -.13432380E+03 E0= -.13426543E+03  d E =-.121001E-01
       N       E                     dE             d eps       ncg     rms          rms(c)
DAV:   1    -0.133812297707E+03   -0.74836E-02   -0.50603E-01    80   0.351E+00    0.324E-01
DAV:   2    -0.133814978168E+03   -0.26805E-02   -0.31657E-02    96   0.687E-01    0.643E-01
DAV:   3    -0.133814981458E+03   -0.32902E-05   -0.29612E-02   128   0.320E-01    0.525E-01
DAV:   4    -0.133813795170E+03    0.11863E-02   -0.39631E-03    80   0.193E-01    0.319E-01
DAV:   5    -0.133815075360E+03   -0.12802E-02   -0.33108E-03    72   0.162E-01    0.632E-01
DAV:   6    -0.133813392486E+03    0.16829E-02   -0.27279E-03    64   0.190E-01    0.917E-02
DAV:   7    -0.133813403191E+03   -0.10705E-04   -0.23436E-03    56   0.170E-01    0.360E-01
DAV:   8    -0.133812770781E+03    0.63241E-03   -0.15508E-03    56   0.958E-02    0.886E-02
DAV:   9    -0.133812950075E+03   -0.17929E-03   -0.77547E-04    56   0.780E-02    0.236E-01
DAV:  10    -0.133812735512E+03    0.21456E-03   -0.42125E-04    56   0.457E-02    0.104E-01
DAV:  11    -0.133812809017E+03   -0.73506E-04   -0.19394E-04    56   0.402E-02
  41 F= -.13433003E+03 E0= -.13427278E+03  d E =-.623170E-02
       N       E                     dE             d eps       ncg     rms          rms(c)
DAV:   1    -0.133819998152E+03   -0.72626E-02   -0.37364E+00    80   0.953E+00    0.762E-01
DAV:   2    -0.133836036389E+03   -0.16038E-01   -0.27224E-01   104   0.189E+00    0.149E+00
DAV:   3    -0.133835835777E+03    0.20061E-03   -0.28375E-01   128   0.601E-01    0.113E+00
DAV:   4    -0.133830091923E+03    0.57439E-02   -0.72177E-02   120   0.469E-01    0.807E-01
DAV:   5    -0.133836795504E+03   -0.67036E-02   -0.81829E-02   112   0.517E-01    0.142E+00
DAV:   6    -0.133828223481E+03    0.85720E-02   -0.10744E-02   112   0.430E-01    0.136E-01
DAV:   7    -0.133827013528E+03    0.12100E-02   -0.31625E-03    56   0.261E-01    0.782E-01
DAV:   8    -0.133824466091E+03    0.25474E-02   -0.14097E-03    56   0.172E-01    0.719E-02
DAV:   9    -0.133824602307E+03   -0.13622E-03   -0.95585E-04    56   0.135E-01    0.460E-01
DAV:  10    -0.133823839852E+03    0.76245E-03   -0.53779E-04    56   0.848E-02    0.168E-01
DAV:  11    -0.133823911225E+03   -0.71373E-04   -0.19635E-04    56   0.749E-02
  42 F= -.13433658E+03 E0= -.13428147E+03  d E =-.127827E-01
       N       E                     dE             d eps       ncg     rms          rms(c)
DAV:   1    -0.133830145243E+03   -0.63054E-02   -0.36285E-01    80   0.305E+00    0.286E-01
DAV:   2    -0.133832165203E+03   -0.20200E-02   -0.20014E-02   120   0.617E-01    0.540E-01
DAV:   3    -0.133832239567E+03   -0.74364E-04   -0.16426E-02   104   0.287E-01    0.455E-01
DAV:   4    -0.133831523266E+03    0.71630E-03   -0.74136E-03    64   0.193E-01    0.324E-01
DAV:   5    -0.133832138724E+03   -0.61546E-03   -0.72797E-03    80   0.175E-01    0.501E-01
DAV:   6    -0.133831070737E+03    0.10680E-02   -0.32872E-03    64   0.170E-01    0.921E-02
DAV:   7    -0.133831007117E+03    0.63620E-04   -0.20592E-03    56   0.142E-01    0.270E-01
DAV:   8    -0.133830633900E+03    0.37322E-03   -0.14637E-03    56   0.765E-02    0.334E-02
DAV:   9    -0.133830673154E+03   -0.39253E-04   -0.66099E-04    56   0.678E-02
  43 F= -.13434190E+03 E0= -.13428665E+03  d E =-.532049E-02
       N       E                     dE             d eps       ncg     rms          rms(c)
DAV:   1    -0.133831769737E+03   -0.11358E-02   -0.89582E-02    80   0.152E+00    0.123E-01
DAV:   2    -0.133832129314E+03   -0.35958E-03   -0.25277E-03   120   0.303E-01    0.203E-01
DAV:   3    -0.133832143196E+03   -0.13882E-04   -0.31006E-04    64   0.116E-01
  44 F= -.13434266E+03 E0= -.13428790E+03  d E =-.607887E-02
       N       E                     dE             d eps       ncg     rms          rms(c)
DAV:   1    -0.133837642848E+03   -0.55135E-02   -0.21045E-01    80   0.231E+00    0.203E-01
DAV:   2    -0.133839564671E+03   -0.19218E-02   -0.64237E-03   112   0.572E-01    0.567E-01
DAV:   3    -0.133838519923E+03    0.10447E-02   -0.19619E-03    96   0.226E-01    0.268E-01
DAV:   4    -0.133838392313E+03    0.12761E-03   -0.64759E-04    56   0.141E-01    0.303E-01
DAV:   5    -0.133838044551E+03    0.34776E-03   -0.97869E-04    96   0.207E-01    0.160E-01
DAV:   6    -0.133837813715E+03    0.23084E-03   -0.53883E-04    80   0.166E-01    0.473E-02
DAV:   7    -0.133837803875E+03    0.98399E-05   -0.29643E-04    72   0.521E-02
  45 F= -.13434729E+03 E0= -.13429152E+03  d E =-.462561E-02
       N       E                     dE             d eps       ncg     rms          rms(c)
DAV:   1    -0.133840995529E+03   -0.31818E-02   -0.41959E-01    80   0.325E+00    0.167E-01
DAV:   2    -0.133842051588E+03   -0.10561E-02   -0.13772E-02   112   0.847E-01    0.219E-01
DAV:   3    -0.133841769965E+03    0.28162E-03   -0.12793E-03   120   0.221E-01    0.168E-01
DAV:   4    -0.133841751837E+03    0.18128E-04   -0.18510E-04    88   0.641E-02
  46 F= -.13434979E+03 E0= -.13429461E+03  d E =-.712631E-02
       N       E                     dE             d eps       ncg     rms          rms(c)
DAV:   1    -0.133846053280E+03   -0.42833E-02   -0.24388E-01    80   0.251E+00    0.168E-01
DAV:   2    -0.133846624885E+03   -0.57160E-03   -0.61804E-03   120   0.441E-01    0.230E-01
DAV:   3    -0.133846536817E+03    0.88068E-04   -0.42589E-04    88   0.105E-01
  47 F= -.13435343E+03 E0= -.13429723E+03  d E =-.364192E-02
       N       E                     dE             d eps       ncg     rms          rms(c)
DAV:   1    -0.133847729950E+03   -0.11051E-02   -0.11107E-01    80   0.171E+00    0.217E-01
DAV:   2    -0.133849750738E+03   -0.20208E-02   -0.60933E-03   128   0.356E-01    0.629E-01
DAV:   3    -0.133848741108E+03    0.10096E-02   -0.49198E-03   112   0.252E-01    0.311E-01
DAV:   4    -0.133849137453E+03   -0.39635E-03   -0.29696E-03    72   0.169E-01    0.494E-01
DAV:   5    -0.133848074905E+03    0.10625E-02   -0.19146E-03    64   0.171E-01    0.107E-01
DAV:   6    -0.133847954070E+03    0.12083E-03   -0.69608E-04    56   0.140E-01    0.234E-01
DAV:   7    -0.133847612230E+03    0.34184E-03   -0.47979E-04    56   0.653E-02    0.242E-02
DAV:   8    -0.133847697486E+03   -0.85256E-04   -0.22521E-04    56   0.561E-02
  48 F= -.13435381E+03 E0= -.13429780E+03  d E =-.402406E-02
       N       E                     dE             d eps       ncg     rms          rms(c)
DAV:   1    -0.133850540571E+03   -0.29283E-02   -0.13747E-01    80   0.189E+00    0.127E-01
DAV:   2    -0.133851022018E+03   -0.48145E-03   -0.41624E-03   136   0.454E-01    0.222E-01
DAV:   3    -0.133850921280E+03    0.10074E-03   -0.16284E-03    80   0.172E-01    0.192E-01
DAV:   4    -0.133850806199E+03    0.11508E-03   -0.80801E-04   104   0.775E-02    0.104E-01
DAV:   5    -0.133850793463E+03    0.12736E-04   -0.64034E-04    80   0.128E-01
  49 F= -.13435602E+03 E0= -.13429992E+03  d E =-.221096E-02
       N       E                     dE             d eps       ncg     rms          rms(c)
DAV:   1    -0.133852205660E+03   -0.13995E-02   -0.17718E-01    80   0.216E+00    0.121E-01
DAV:   2    -0.133852612681E+03   -0.40702E-03   -0.41127E-03   136   0.420E-01    0.170E-01
DAV:   3    -0.133852561828E+03    0.50853E-04   -0.40413E-04    88   0.117E-01
  50 F= -.13435679E+03 E0= -.13430025E+03  d E =-.297433E-02
       N       E                     dE             d eps       ncg     rms          rms(c)
DAV:   1    -0.133854407816E+03   -0.17951E-02   -0.65846E-02    80   0.132E+00    0.137E-01
DAV:   2    -0.133855134061E+03   -0.72624E-03   -0.21418E-03   128   0.271E-01    0.365E-01
DAV:   3    -0.133854794959E+03    0.33910E-03   -0.40103E-04    56   0.108E-01    0.193E-01
DAV:   4    -0.133854748009E+03    0.46950E-04   -0.60427E-04    64   0.122E-01
  51 F= -.13435863E+03 E0= -.13430184E+03  d E =-.183871E-02
       N       E                     dE             d eps       ncg     rms          rms(c)
DAV:   1    -0.133855248969E+03   -0.45401E-03   -0.56916E-02    80   0.124E+00    0.191E-01
DAV:   2    -0.133857173206E+03   -0.19242E-02   -0.23149E-03   104   0.265E-01    0.615E-01
DAV:   3    -0.133856196692E+03    0.97651E-03   -0.16856E-03    88   0.210E-01    0.290E-01
DAV:   4    -0.133856081348E+03    0.11534E-03   -0.10970E-03    64   0.133E-01    0.369E-01
DAV:   5    -0.133855529192E+03    0.55216E-03   -0.40871E-04    64   0.121E-01    0.178E-01
DAV:   6    -0.133855355305E+03    0.17389E-03   -0.22353E-04    56   0.115E-01    0.162E-01
DAV:   7    -0.133855173403E+03    0.18190E-03   -0.15652E-04    72   0.777E-02    0.669E-02
DAV:   8    -0.133855190927E+03   -0.17523E-04   -0.11615E-04    56   0.480E-02
  52 F= -.13435874E+03 E0= -.13430231E+03  d E =-.195382E-02
       N       E                     dE             d eps       ncg     rms          rms(c)
DAV:   1    -0.133856659311E+03   -0.14859E-02   -0.72757E-02    80   0.131E+00    0.113E-01
DAV:   2    -0.133857195242E+03   -0.53593E-03   -0.37683E-03   128   0.243E-01    0.306E-01
DAV:   3    -0.133856899108E+03    0.29613E-03   -0.29563E-03    64   0.108E-01    0.159E-01
DAV:   4    -0.133856963205E+03   -0.64097E-04   -0.20803E-03    64   0.124E-01    0.204E-01
DAV:   5    -0.133856804539E+03    0.15867E-03   -0.17941E-03    56   0.101E-01    0.119E-01
DAV:   6    -0.133856798643E+03    0.58956E-05   -0.10874E-03    56   0.762E-02    0.108E-01
DAV:   7    -0.133856721954E+03    0.76689E-04   -0.61128E-04    72   0.600E-02
  53 F= -.13435985E+03 E0= -.13430407E+03  d E =-.110997E-02
       N       E                     dE             d eps       ncg     rms          rms(c)
DAV:   1    -0.133857123626E+03   -0.32498E-03   -0.33815E-02    96   0.897E-01    0.515E-02
DAV:   2    -0.133857197446E+03   -0.73820E-04   -0.11664E-03   112   0.159E-01    0.789E-02
DAV:   3    -0.133857167581E+03    0.29865E-04   -0.70588E-04    80   0.413E-02
  54 F= -.13436001E+03 E0= -.13430420E+03  d E =-.126968E-02
       N       E                     dE             d eps       ncg     rms          rms(c)
DAV:   1    -0.133858656543E+03   -0.14591E-02   -0.94676E-02    88   0.150E+00    0.112E-01
DAV:   2    -0.133858974511E+03   -0.31797E-03   -0.45847E-03   112   0.270E-01    0.222E-01
DAV:   3    -0.133858836589E+03    0.13792E-03   -0.39979E-03    64   0.915E-02    0.149E-01
DAV:   4    -0.133858877994E+03   -0.41405E-04   -0.29841E-03    56   0.106E-01    0.163E-01
DAV:   5    -0.133858822062E+03    0.55931E-04   -0.25856E-03    56   0.904E-02    0.123E-01
DAV:   6    -0.133858796835E+03    0.25227E-04   -0.14088E-03    72   0.772E-02    0.926E-02
DAV:   7    -0.133858757769E+03    0.39067E-04   -0.67989E-04    72   0.522E-02
  55 F= -.13436121E+03 E0= -.13430566E+03  d E =-.119629E-02
       N       E                     dE             d eps       ncg     rms          rms(c)
DAV:   1    -0.133859095017E+03   -0.29818E-03   -0.28841E-02    96   0.826E-01    0.706E-02
DAV:   2    -0.133859271963E+03   -0.17695E-03   -0.29388E-03   112   0.150E-01    0.181E-01
DAV:   3    -0.133859153606E+03    0.11836E-03   -0.35089E-03    56   0.598E-02    0.103E-01
DAV:   4    -0.133859207217E+03   -0.53612E-04   -0.25637E-03    56   0.731E-02    0.131E-01
DAV:   5    -0.133859143847E+03    0.63371E-04   -0.21476E-03    72   0.592E-02    0.806E-02
DAV:   6    -0.133859148687E+03   -0.48402E-05   -0.10958E-03    72   0.532E-02    0.664E-02
DAV:   7    -0.133859123667E+03    0.25020E-04   -0.46983E-04    72   0.359E-02
  56 F= -.13436136E+03 E0= -.13430577E+03  d E =-.134714E-02
       N       E                     dE             d eps       ncg     rms          rms(c)
DAV:   1    -0.133859569642E+03   -0.42096E-03   -0.20552E-02    96   0.727E-01    0.506E-02
DAV:   2    -0.133859668870E+03   -0.99228E-04   -0.15934E-03    96   0.148E-01    0.125E-01
DAV:   3    -0.133859600815E+03    0.68055E-04   -0.15369E-03    56   0.465E-02    0.711E-02
DAV:   4    -0.133859616204E+03   -0.15388E-04   -0.91730E-04    56   0.480E-02
  57 F= -.13436170E+03 E0= -.13430617E+03  d E =-.344356E-03
       N       E                     dE             d eps       ncg     rms          rms(c)
DAV:   1    -0.133859670602E+03   -0.69787E-04   -0.27174E-03   104   0.226E-01    0.758E-02
DAV:   2    -0.133859935370E+03   -0.26477E-03   -0.43972E-03    64   0.871E-02    0.245E-01
DAV:   3    -0.133859716634E+03    0.21874E-03   -0.61019E-03    56   0.797E-02    0.120E-01
DAV:   4    -0.133859749896E+03   -0.33262E-04   -0.32392E-03    56   0.706E-02    0.134E-01
DAV:   5    -0.133859648408E+03    0.10149E-03   -0.16631E-03    56   0.544E-02    0.484E-02
DAV:   6    -0.133859689884E+03   -0.41476E-04   -0.83751E-04    56   0.385E-02
  58 F= -.13436173E+03 E0= -.13430618E+03  d E =-.372918E-03
       N       E                     dE             d eps       ncg     rms          rms(c)
DAV:   1    -0.133860030317E+03   -0.38191E-03   -0.81300E-03    80   0.450E-01    0.230E-02
DAV:   2    -0.133860062365E+03   -0.32048E-04   -0.22375E-04    56   0.815E-02
  59 F= -.13436196E+03 E0= -.13430634E+03  d E =-.224792E-03
       N       E                     dE             d eps       ncg     rms          rms(c)
DAV:   1    -0.133860854138E+03   -0.82382E-03   -0.68934E-02    80   0.132E+00    0.944E-02
DAV:   2    -0.133861056541E+03   -0.20240E-03   -0.17481E-03   120   0.246E-01    0.173E-01
DAV:   3    -0.133860982072E+03    0.74470E-04   -0.31439E-04    56   0.761E-02
  60 F= -.13436244E+03 E0= -.13430749E+03  d E =-.709477E-03
       N       E                     dE             d eps       ncg     rms          rms(c)
DAV:   1    -0.133860760715E+03    0.29583E-03   -0.27030E-01    80   0.263E+00    0.140E-01
DAV:   2    -0.133861160285E+03   -0.39957E-03   -0.62302E-03   120   0.502E-01    0.161E-01
DAV:   3    -0.133861084184E+03    0.76101E-04   -0.43050E-04    96   0.134E-01
  61 F= -.13436168E+03 E0= -.13430601E+03  d E =0.519527E-04
       N       E                     dE             d eps       ncg     rms          rms(c)
DAV:   1    -0.133860825214E+03    0.33507E-03   -0.14883E-01    80   0.194E+00    0.842E-02
DAV:   2    -0.133861338285E+03   -0.51307E-03   -0.57169E-03   112   0.387E-01    0.182E-01
DAV:   3    -0.133861199116E+03    0.13917E-03   -0.24809E-03    56   0.808E-02    0.107E-01
DAV:   4    -0.133861211593E+03   -0.12477E-04   -0.16347E-03    56   0.914E-02    0.116E-01
DAV:   5    -0.133861205704E+03    0.58892E-05   -0.19427E-03    72   0.873E-02    0.117E-01
DAV:   6    -0.133861148535E+03    0.57169E-04   -0.11230E-03    56   0.789E-02    0.440E-02
DAV:   7    -0.133861175173E+03   -0.26638E-04   -0.55394E-04    56   0.554E-02
  62 F= -.13436239E+03 E0= -.13430706E+03  d E =-.663697E-03
       N       E                     dE             d eps       ncg     rms          rms(c)
DAV:   1    -0.133861616376E+03   -0.46784E-03   -0.16441E-02    80   0.645E-01    0.454E-02
DAV:   2    -0.133861700237E+03   -0.83861E-04   -0.81849E-04    96   0.123E-01
  63 F= -.13436270E+03 E0= -.13430713E+03  d E =-.310014E-03
       N       E                     dE             d eps       ncg     rms          rms(c)
DAV:   1    -0.133862041448E+03   -0.42507E-03   -0.20184E-02    80   0.712E-01    0.898E-02
DAV:   2    -0.133862392614E+03   -0.35117E-03   -0.20423E-03    96   0.156E-01    0.265E-01
DAV:   3    -0.133862164513E+03    0.22810E-03   -0.22030E-03    56   0.948E-02    0.127E-01
DAV:   4    -0.133862244140E+03   -0.79627E-04   -0.14475E-03    56   0.789E-02    0.190E-01
DAV:   5    -0.133862093675E+03    0.15046E-03   -0.12446E-03    56   0.720E-02    0.862E-02
DAV:   6    -0.133862075891E+03    0.17784E-04   -0.60751E-04    56   0.655E-02
  64 F= -.13436284E+03 E0= -.13430732E+03  d E =-.450117E-03
       N       E                     dE             d eps       ncg     rms          rms(c)
DAV:   1    -0.133862223483E+03   -0.12981E-03   -0.77092E-02    80   0.141E+00    0.990E-02
DAV:   2    -0.133862643923E+03   -0.42044E-03   -0.22333E-03   112   0.283E-01    0.252E-01
DAV:   3    -0.133862446671E+03    0.19725E-03   -0.55355E-04    56   0.834E-02    0.135E-01
DAV:   4    -0.133862458497E+03   -0.11826E-04   -0.42539E-04    56   0.883E-02
  65 F= -.13436276E+03 E0= -.13430702E+03  d E =-.363178E-03
       N       E                     dE             d eps       ncg     rms          rms(c)
DAV:   1    -0.133862152547E+03    0.29412E-03   -0.50633E-02    80   0.113E+00    0.126E-01
DAV:   2    -0.133863078157E+03   -0.92561E-03   -0.36811E-03   112   0.282E-01    0.413E-01
DAV:   3    -0.133862558386E+03    0.51977E-03   -0.31840E-03    64   0.156E-01    0.186E-01
DAV:   4    -0.133862533091E+03    0.25295E-04   -0.14346E-03    56   0.101E-01    0.240E-01
DAV:   5    -0.133862216832E+03    0.31626E-03   -0.92737E-04    64   0.105E-01    0.598E-02
DAV:   6    -0.133862217654E+03   -0.82191E-06   -0.48771E-04    56   0.709E-02
  66 F= -.13436289E+03 E0= -.13430731E+03  d E =-.493756E-03
       N       E                     dE             d eps       ncg     rms          rms(c)
DAV:   1    -0.133862627254E+03   -0.41042E-03   -0.16397E-02    80   0.641E-01    0.374E-02
DAV:   2    -0.133862721161E+03   -0.93907E-04   -0.72346E-04    72   0.126E-01
  67 F= -.13436319E+03 E0= -.13430766E+03  d E =-.306156E-03
       N       E                     dE             d eps       ncg     rms          rms(c)
DAV:   1    -0.133862926967E+03   -0.29971E-03   -0.14291E-02    80   0.598E-01    0.535E-02
DAV:   2    -0.133863010860E+03   -0.83892E-04   -0.54224E-04    72   0.120E-01
  68 F= -.13436330E+03 E0= -.13430772E+03  d E =-.413018E-03
       N       E                     dE             d eps       ncg     rms          rms(c)
DAV:   1    -0.133863263963E+03   -0.33700E-03   -0.77165E-03    80   0.446E-01    0.596E-02
DAV:   2    -0.133863437873E+03   -0.17391E-03   -0.41079E-04    64   0.980E-02    0.182E-01
DAV:   3    -0.133863292711E+03    0.14516E-03   -0.33498E-04    56   0.658E-02    0.665E-02
DAV:   4    -0.133863372462E+03   -0.79751E-04   -0.27869E-04    56   0.743E-02
  69 F= -.13436351E+03 E0= -.13430787E+03  d E =-.204607E-03
       N       E                     dE             d eps       ncg     rms          rms(c)
DAV:   1    -0.133863503256E+03   -0.21054E-03   -0.82447E-03    80   0.468E-01    0.587E-02
DAV:   2    -0.133863765495E+03   -0.26224E-03   -0.26543E-04    64   0.965E-02    0.220E-01
DAV:   3    -0.133863554264E+03    0.21123E-03   -0.16561E-04    56   0.758E-02    0.776E-02
DAV:   4    -0.133863609005E+03   -0.54741E-04   -0.10696E-04    56   0.502E-02
  70 F= -.13436358E+03 E0= -.13430791E+03  d E =-.275666E-03
       N       E                     dE             d eps       ncg     rms          rms(c)
DAV:   1    -0.133863800887E+03   -0.24662E-03   -0.68186E-03    80   0.423E-01    0.838E-02
DAV:   2    -0.133864185276E+03   -0.38439E-03   -0.24122E-04    56   0.829E-02    0.279E-01
DAV:   3    -0.133863908860E+03    0.27642E-03   -0.30061E-04    56   0.939E-02    0.123E-01
DAV:   4    -0.133863941744E+03   -0.32884E-04   -0.23307E-04    56   0.671E-02
  71 F= -.13436376E+03 E0= -.13430796E+03  d E =-.183800E-03
       N       E                     dE             d eps       ncg     rms          rms(c)
DAV:   1    -0.133864135793E+03   -0.22693E-03   -0.19183E-02    80   0.708E-01    0.119E-01
DAV:   2    -0.133864863658E+03   -0.72787E-03   -0.20632E-03    88   0.137E-01    0.388E-01
DAV:   3    -0.133864393553E+03    0.47011E-03   -0.23323E-03    56   0.122E-01    0.178E-01
DAV:   4    -0.133864381936E+03    0.11617E-04   -0.11830E-03    56   0.943E-02    0.217E-01
DAV:   5    -0.133864277003E+03    0.10493E-03   -0.11095E-03    64   0.708E-02    0.178E-01
DAV:   6    -0.133864107932E+03    0.16907E-03   -0.70683E-04    56   0.808E-02    0.499E-02
DAV:   7    -0.133864111492E+03   -0.35598E-05   -0.39572E-04    56   0.514E-02
  72 F= -.13436368E+03 E0= -.13430870E+03  d E =-.104403E-03
       N       E                     dE             d eps       ncg     rms          rms(c)
DAV:   1    -0.133864314417E+03   -0.20648E-03   -0.78393E-03    80   0.443E-01    0.269E-02
DAV:   2    -0.133864375664E+03   -0.61247E-04   -0.43228E-04    56   0.798E-02
  73 F= -.13436378E+03 E0= -.13430873E+03  d E =-.938551E-04
       N       E                     dE             d eps       ncg     rms          rms(c)
DAV:   1    -0.133864579859E+03   -0.26544E-03   -0.12812E-02    80   0.564E-01    0.406E-02
DAV:   2    -0.133864628331E+03   -0.48472E-04   -0.41762E-04    80   0.110E-01
  74 F= -.13436381E+03 E0= -.13430872E+03  d E =-.131601E-03
       N       E                     dE             d eps       ncg     rms          rms(c)
DAV:   1    -0.133864870180E+03   -0.29032E-03   -0.49336E-02    80   0.112E+00    0.758E-02
DAV:   2    -0.133864923036E+03   -0.52856E-04   -0.10573E-03   120   0.213E-01    0.544E-02
DAV:   3    -0.133864931404E+03   -0.83678E-05   -0.10958E-04    56   0.675E-02
  75 F= -.13436369E+03 E0= -.13430844E+03  d E =-.607748E-05
       N       E                     dE             d eps       ncg     rms          rms(c)
DAV:   1    -0.133864724907E+03    0.19813E-03   -0.25686E-02    80   0.806E-01    0.475E-02
DAV:   2    -0.133864804296E+03   -0.79389E-04   -0.94115E-04    96   0.179E-01
  76 F= -.13436386E+03 E0= -.13430837E+03  d E =-.182923E-03
       N       E                     dE             d eps       ncg     rms          rms(c)
DAV:   1    -0.133864953122E+03   -0.22821E-03   -0.54610E-03    80   0.370E-01    0.704E-02
DAV:   2    -0.133865215034E+03   -0.26191E-03   -0.24608E-03    56   0.857E-02    0.232E-01
DAV:   3    -0.133865037250E+03    0.17778E-03   -0.31763E-03    56   0.746E-02    0.106E-01
DAV:   4    -0.133865054858E+03   -0.17608E-04   -0.16453E-03    56   0.730E-02    0.130E-01
DAV:   5    -0.133864987094E+03    0.67764E-04   -0.13260E-03    56   0.514E-02    0.823E-02
DAV:   6    -0.133864971058E+03    0.16037E-04   -0.66480E-04    56   0.447E-02
  77 F= -.13436391E+03 E0= -.13430854E+03  d E =-.447596E-04
       N       E                     dE             d eps       ncg     rms          rms(c)
DAV:   1    -0.133865036586E+03   -0.49492E-04   -0.18479E-03    80   0.205E-01    0.342E-02
DAV:   2    -0.133865115478E+03   -0.78892E-04   -0.10577E-03    56   0.445E-02    0.128E-01
DAV:   3    -0.133865031983E+03    0.83494E-04   -0.13041E-03    56   0.381E-02    0.492E-02
DAV:   4    -0.133865071831E+03   -0.39847E-04   -0.75185E-04    56   0.382E-02
  78 F= -.13436394E+03 E0= -.13430862E+03  d E =-.782760E-04
       N       E                     dE             d eps       ncg     rms          rms(c)
DAV:   1    -0.133865268815E+03   -0.23683E-03   -0.58906E-03    80   0.371E-01    0.430E-02
DAV:   2    -0.133865395721E+03   -0.12691E-03   -0.15960E-03    56   0.804E-02    0.157E-01
DAV:   3    -0.133865280526E+03    0.11520E-03   -0.18993E-03    56   0.545E-02    0.587E-02
DAV:   4    -0.133865330124E+03   -0.49598E-04   -0.10471E-03    56   0.533E-02    0.966E-02
DAV:   5    -0.133865275944E+03    0.54180E-04   -0.78984E-04    56   0.397E-02
  79 F= -.13436402E+03 E0= -.13430890E+03  d E =-.746512E-04
       N       E                     dE             d eps       ncg     rms          rms(c)
DAV:   1    -0.133865691979E+03   -0.36186E-03   -0.47625E-02    80   0.110E+00    0.627E-02
DAV:   2    -0.133865814948E+03   -0.12297E-03   -0.19961E-03   104   0.216E-01    0.123E-01
DAV:   3    -0.133865750032E+03    0.64916E-04   -0.15147E-03    56   0.466E-02    0.811E-02
DAV:   4    -0.133865767112E+03   -0.17080E-04   -0.10350E-03    56   0.637E-02    0.811E-02
DAV:   5    -0.133865770917E+03   -0.38048E-05   -0.98910E-04    72   0.695E-02
  80 F= -.13436413E+03 E0= -.13430916E+03  d E =-.182362E-03
       N       E                     dE             d eps       ncg     rms          rms(c)
DAV:   1    -0.133865681255E+03    0.85856E-04   -0.24973E-03    96   0.241E-01    0.407E-02
DAV:   2    -0.133865787462E+03   -0.10621E-03   -0.47647E-04    56   0.531E-02    0.140E-01
DAV:   3    -0.133865679296E+03    0.10817E-03   -0.64108E-04    56   0.495E-02    0.569E-02
DAV:   4    -0.133865725749E+03   -0.46453E-04   -0.38719E-04    56   0.436E-02
  81 F= -.13436416E+03 E0= -.13430929E+03  d E =-.217480E-03
       N       E                     dE             d eps       ncg     rms          rms(c)
DAV:   1    -0.133865848569E+03   -0.16927E-03   -0.69625E-03    80   0.411E-01    0.582E-02
DAV:   2    -0.133866058345E+03   -0.20978E-03   -0.15656E-03    56   0.101E-01    0.201E-01
DAV:   3    -0.133865872579E+03    0.18577E-03   -0.20157E-03    56   0.784E-02    0.851E-02
DAV:   4    -0.133865953613E+03   -0.81034E-04   -0.14053E-03    56   0.572E-02    0.133E-01
DAV:   5    -0.133865832617E+03    0.12100E-03   -0.82728E-04    56   0.507E-02    0.283E-02
DAV:   6    -0.133865877070E+03   -0.44453E-04   -0.33295E-04    56   0.369E-02
  82 F= -.13436421E+03 E0= -.13430919E+03  d E =-.446860E-04
       N       E                     dE             d eps       ncg     rms          rms(c)
DAV:   1    -0.133865955276E+03   -0.12266E-03   -0.62079E-03    80   0.393E-01    0.274E-02
DAV:   2    -0.133866000852E+03   -0.45575E-04   -0.46217E-04    56   0.739E-02
  83 F= -.13436423E+03 E0= -.13430907E+03  d E =-.661632E-04
       N       E                     dE             d eps       ncg     rms          rms(c)
DAV:   1    -0.133866059124E+03   -0.10385E-03   -0.23046E-03    80   0.226E-01    0.340E-02
DAV:   2    -0.133866137670E+03   -0.78546E-04   -0.84304E-04    56   0.508E-02
  84 F= -.13436432E+03 E0= -.13430910E+03  d E =-.932650E-04
       N       E                     dE             d eps       ncg     rms          rms(c)
DAV:   1    -0.133866198160E+03   -0.13904E-03   -0.10260E-02    80   0.500E-01    0.495E-02
DAV:   2    -0.133866351925E+03   -0.15377E-03   -0.17299E-03    56   0.103E-01    0.170E-01
DAV:   3    -0.133866221278E+03    0.13065E-03   -0.19440E-03    56   0.684E-02    0.592E-02
DAV:   4    -0.133866289555E+03   -0.68277E-04   -0.11741E-03    56   0.633E-02    0.114E-01
DAV:   5    -0.133866216324E+03    0.73231E-04   -0.10069E-03    56   0.482E-02    0.430E-02
DAV:   6    -0.133866242333E+03   -0.26009E-04   -0.49528E-04    56   0.409E-02
  85 F= -.13436433E+03 E0= -.13430918E+03  d E =-.100013E-03
       N       E                     dE             d eps       ncg     rms          rms(c)
DAV:   1    -0.133866281430E+03   -0.65106E-04   -0.13422E-03    80   0.176E-01    0.121E-02
DAV:   2    -0.133866310341E+03   -0.28911E-04   -0.19651E-04    56   0.347E-02
  86 F= -.13436436E+03 E0= -.13430920E+03  d E =-.330231E-04
       N       E                     dE             d eps       ncg     rms          rms(c)
DAV:   1    -0.133866399306E+03   -0.11788E-03   -0.57926E-03    80   0.385E-01    0.296E-02
DAV:   2    -0.133866431070E+03   -0.31764E-04   -0.11159E-04    72   0.703E-02
  87 F= -.13436440E+03 E0= -.13430913E+03  d E =-.758222E-04
       N       E                     dE             d eps       ncg     rms          rms(c)
DAV:   1    -0.133866419908E+03   -0.20602E-04   -0.13256E-04    56   0.697E-02    0.353E-02
DAV:   2    -0.133866511392E+03   -0.91484E-04   -0.75893E-05    56   0.726E-02
  88 F= -.13436447E+03 E0= -.13430901E+03  d E =-.145405E-03
       N       E                     dE             d eps       ncg     rms          rms(c)
DAV:   1    -0.133866415827E+03    0.40810E-05   -0.11074E-04    56   0.633E-02    0.453E-02
DAV:   2    -0.133866613248E+03   -0.19742E-03   -0.10852E-04    56   0.578E-02    0.189E-01
DAV:   3    -0.133866437254E+03    0.17599E-03   -0.13694E-04    56   0.544E-02    0.598E-02
DAV:   4    -0.133866496401E+03   -0.59148E-04   -0.76716E-05    56   0.368E-02
  89 F= -.13436447E+03 E0= -.13430902E+03  d E =-.138687E-03
       N       E                     dE             d eps       ncg     rms          rms(c)
DAV:   1    -0.133866438452E+03   -0.11980E-05   -0.67685E-04    80   0.137E-01    0.106E-02
DAV:   2    -0.133866478606E+03   -0.40155E-04   -0.42429E-05    56   0.339E-02
  90 F= -.13436443E+03 E0= -.13430913E+03  d E =0.335638E-04
