 vasp.5.4.1 05Feb16 (build Apr 21 2017 13:36:42) gamma-only                     
  
 executed on           IFC91_ompi date 2020.09.09  00:54:32
 running on   22 total cores
 distrk:  each k-point on   22 cores,    1 groups
 distr:  one band on NCORES_PER_BAND=  11 cores,    2 groups


--------------------------------------------------------------------------------------------------------


 INCAR:
 POTCAR:    PAW_PBE Cr 06Sep2000                  
 POTCAR:    PAW_PBE C 08Apr2002                   
 POTCAR:    PAW_PBE H 15Jun2001                   
 POTCAR:    PAW_PBE C 08Apr2002                   
 POTCAR:    PAW_PBE H 15Jun2001                   

 ----------------------------------------------------------------------------- 
|                                                                             |
|           W    W    AA    RRRRR   N    N  II  N    N   GGGG   !!!           |
|           W    W   A  A   R    R  NN   N  II  NN   N  G    G  !!!           |
|           W    W  A    A  R    R  N N  N  II  N N  N  G       !!!           |
|           W WW W  AAAAAA  RRRRR   N  N N  II  N  N N  G  GGG   !            |
|           WW  WW  A    A  R   R   N   NN  II  N   NN  G    G                |
|           W    W  A    A  R    R  N    N  II  N    N   GGGG   !!!           |
|                                                                             |
|      For optimal performance we recommend to set                            |
|        NCORE= 4 - approx SQRT( number of cores)                             |
|      NCORE specifies how many cores store one orbital (NPAR=cpu/NCORE).     |
|      This setting can  greatly improve the performance of VASP for DFT.     |
|      The default, NPAR=number of cores might be grossly inefficient         |
|      on modern multi-core architectures or massively parallel machines.     |
|      Do your own testing !!!!                                               |
|      Unfortunately you need to use the default for GW and RPA calculations. |
|      (for HF NCORE is supported but not extensively tested yet)             |
|                                                                             |
 ----------------------------------------------------------------------------- 

 POTCAR:    PAW_PBE Cr 06Sep2000                  
   VRHFIN =Cr : d5 s1                                                           
   LEXCH  = PE                                                                  
   EATOM  =   276.8859 eV,   20.3505 Ry                                         
                                                                                
   TITEL  = PAW_PBE Cr 06Sep2000                                                
   LULTRA =        F    use ultrasoft PP ?                                      
   IUNSCR =        1    unscreen: 0-lin 1-nonlin 2-no                           
   RPACOR =    2.080    partial core radius                                     
   POMASS =   51.996; ZVAL   =    6.000    mass and valenz                      
   RCORE  =    2.500    outmost cutoff radius                                   
   RWIGS  =    2.500; RWIGS  =    1.323    wigner-seitz radius (au A)           
   ENMAX  =  227.080; ENMIN  =  170.310 eV                                      
   RCLOC  =    1.721    cutoff for local pot                                    
   LCOR   =        T    correct aug charges                                     
   LPAW   =        T    paw PP                                                  
   EAUG   =  402.108                                                            
   DEXC   =    0.000                                                            
   RMAX   =    2.552    core radius for proj-oper                               
   RAUG   =    1.300    factor for augmentation sphere                          
   RDEP   =    2.609    radius for radial grids                                 
   RDEPT  =    2.065    core radius for aug-charge                              
                                                                                
   Atomic configuration                                                         
    9 entries                                                                   
     n  l   j            E        occ.                                          
     1  0  0.50     -5880.4963   2.0000                                         
     2  0  0.50      -667.0865   2.0000                                         
     2  1  1.50      -560.6250   6.0000                                         
     3  0  0.50       -73.9860   2.0000                                         
     3  1  1.50       -45.4378   6.0000                                         
     3  2  2.50        -2.9137   5.0000                                         
     4  0  0.50        -4.0071   1.0000                                         
     4  1  0.50        -1.2789   0.0000                                         
     4  3  2.50        -1.3606   0.0000                                         
   Description                                                                  
     l       E           TYP  RCUT    TYP  RCUT                                 
     2     -2.9136677     23  2.500                                             
     2     -4.2742503     23  2.500                                             
     0     -4.0071322     23  2.500                                             
     0      9.4498801     23  2.500                                             
     1     -5.4423304     23  2.500                                             
     1     27.2116520     23  2.500                                             
  local pseudopotential read in
  partial core-charges read in
  partial kinetic energy density read in
  atomic valenz-charges read in
  non local Contribution for L=           2  read in
    real space projection operators read in
  non local Contribution for L=           2  read in
    real space projection operators read in
  non local Contribution for L=           0  read in
    real space projection operators read in
  non local Contribution for L=           0  read in
    real space projection operators read in
  non local Contribution for L=           1  read in
    real space projection operators read in
  non local Contribution for L=           1  read in
    real space projection operators read in
    PAW grid and wavefunctions read in
 
   number of l-projection  operators is LMAX  =           6
   number of lm-projection operators is LMMAX =          18
 
 POTCAR:    PAW_PBE C 08Apr2002                   
   VRHFIN =C: s2p2                                                              
   LEXCH  = PE                                                                  
   EATOM  =   147.1560 eV,   10.8157 Ry                                         
                                                                                
   TITEL  = PAW_PBE C 08Apr2002                                                 
   LULTRA =        F    use ultrasoft PP ?                                      
   IUNSCR =        1    unscreen: 0-lin 1-nonlin 2-no                           
   RPACOR =    1.200    partial core radius                                     
   POMASS =   12.011; ZVAL   =    4.000    mass and valenz                      
   RCORE  =    1.500    outmost cutoff radius                                   
   RWIGS  =    1.630; RWIGS  =    0.863    wigner-seitz radius (au A)           
   ENMAX  =  400.000; ENMIN  =  300.000 eV                                      
   ICORE  =        2    local potential                                         
   LCOR   =        T    correct aug charges                                     
   LPAW   =        T    paw PP                                                  
   EAUG   =  644.873                                                            
   DEXC   =    0.000                                                            
   RMAX   =    1.529    core radius for proj-oper                               
   RAUG   =    1.300    factor for augmentation sphere                          
   RDEP   =    1.501    radius for radial grids                                 
   RDEPT  =    1.300    core radius for aug-charge                              
                                                                                
   Atomic configuration                                                         
    4 entries                                                                   
     n  l   j            E        occ.                                          
     1  0  0.50      -273.3789   2.0000                                         
     2  0  0.50       -13.7508   2.0000                                         
     2  1  0.50        -5.2854   2.0000                                         
     3  2  1.50        -5.4423   0.0000                                         
   Description                                                                  
     l       E           TYP  RCUT    TYP  RCUT                                 
     0    -13.7508458     23  1.200                                             
     0     -8.2022199     23  1.200                                             
     1     -5.2854383     23  1.500                                             
     1     34.0145650     23  1.500                                             
     2     -5.4423304      7  1.500                                             
  local pseudopotential read in
  partial core-charges read in
  partial kinetic energy density read in
  atomic valenz-charges read in
  non local Contribution for L=           0  read in
    real space projection operators read in
  non local Contribution for L=           0  read in
    real space projection operators read in
  non local Contribution for L=           1  read in
    real space projection operators read in
  non local Contribution for L=           1  read in
    real space projection operators read in
    PAW grid and wavefunctions read in
 
   number of l-projection  operators is LMAX  =           4
   number of lm-projection operators is LMMAX =           8
 
 POTCAR:    PAW_PBE H 15Jun2001                   
   VRHFIN =H: ultrasoft test                                                    
   LEXCH  = PE                                                                  
   EATOM  =    12.4884 eV,    0.9179 Ry                                         
                                                                                
   TITEL  = PAW_PBE H 15Jun2001                                                 
   LULTRA =        F    use ultrasoft PP ?                                      
   IUNSCR =        0    unscreen: 0-lin 1-nonlin 2-no                           
   RPACOR =    0.000    partial core radius                                     
   POMASS =    1.000; ZVAL   =    1.000    mass and valenz                      
   RCORE  =    1.100    outmost cutoff radius                                   
   RWIGS  =    0.700; RWIGS  =    0.370    wigner-seitz radius (au A)           
   ENMAX  =  250.000; ENMIN  =  200.000 eV                                      
   RCLOC  =    0.701    cutoff for local pot                                    
   LCOR   =        T    correct aug charges                                     
   LPAW   =        T    paw PP                                                  
   EAUG   =  400.000                                                            
   RMAX   =    1.123    core radius for proj-oper                               
   RAUG   =    1.200    factor for augmentation sphere                          
   RDEP   =    1.112    radius for radial grids                                 
   RDEPT  =    0.926    core radius for aug-charge                              
                                                                                
   Atomic configuration                                                         
    2 entries                                                                   
     n  l   j            E        occ.                                          
     1  0  0.50        -6.4927   1.0000                                         
     2  1  0.50        -3.4015   0.0000                                         
   Description                                                                  
     l       E           TYP  RCUT    TYP  RCUT                                 
     0     -6.4927494     23  1.100                                             
     0      6.8029130     23  1.100                                             
     1     -4.0817478     23  1.100                                             
  local pseudopotential read in
  atomic valenz-charges read in
  non local Contribution for L=           0  read in
    real space projection operators read in
  non local Contribution for L=           0  read in
    real space projection operators read in
  non local Contribution for L=           1  read in
    real space projection operators read in
    PAW grid and wavefunctions read in
 
   number of l-projection  operators is LMAX  =           3
   number of lm-projection operators is LMMAX =           5
 
 POTCAR:    PAW_PBE C 08Apr2002                   
   VRHFIN =C: s2p2                                                              
   LEXCH  = PE                                                                  
   EATOM  =   147.1560 eV,   10.8157 Ry                                         
                                                                                
   TITEL  = PAW_PBE C 08Apr2002                                                 
   LULTRA =        F    use ultrasoft PP ?                                      
   IUNSCR =        1    unscreen: 0-lin 1-nonlin 2-no                           
   RPACOR =    1.200    partial core radius                                     
   POMASS =   12.011; ZVAL   =    4.000    mass and valenz                      
   RCORE  =    1.500    outmost cutoff radius                                   
   RWIGS  =    1.630; RWIGS  =    0.863    wigner-seitz radius (au A)           
   ENMAX  =  400.000; ENMIN  =  300.000 eV                                      
   ICORE  =        2    local potential                                         
   LCOR   =        T    correct aug charges                                     
   LPAW   =        T    paw PP                                                  
   EAUG   =  644.873                                                            
   DEXC   =    0.000                                                            
   RMAX   =    1.529    core radius for proj-oper                               
   RAUG   =    1.300    factor for augmentation sphere                          
   RDEP   =    1.501    radius for radial grids                                 
   RDEPT  =    1.300    core radius for aug-charge                              
                                                                                
   Atomic configuration                                                         
    4 entries                                                                   
     n  l   j            E        occ.                                          
     1  0  0.50      -273.3789   2.0000                                         
     2  0  0.50       -13.7508   2.0000                                         
     2  1  0.50        -5.2854   2.0000                                         
     3  2  1.50        -5.4423   0.0000                                         
   Description                                                                  
     l       E           TYP  RCUT    TYP  RCUT                                 
     0    -13.7508458     23  1.200                                             
     0     -8.2022199     23  1.200                                             
     1     -5.2854383     23  1.500                                             
     1     34.0145650     23  1.500                                             
     2     -5.4423304      7  1.500                                             
  local pseudopotential read in
  partial core-charges read in
  partial kinetic energy density read in
  atomic valenz-charges read in
  non local Contribution for L=           0  read in
    real space projection operators read in
  non local Contribution for L=           0  read in
    real space projection operators read in
  non local Contribution for L=           1  read in
    real space projection operators read in
  non local Contribution for L=           1  read in
    real space projection operators read in
    PAW grid and wavefunctions read in
 
   number of l-projection  operators is LMAX  =           4
   number of lm-projection operators is LMMAX =           8
 
 POTCAR:    PAW_PBE H 15Jun2001                   
   VRHFIN =H: ultrasoft test                                                    
   LEXCH  = PE                                                                  
   EATOM  =    12.4884 eV,    0.9179 Ry                                         
                                                                                
   TITEL  = PAW_PBE H 15Jun2001                                                 
   LULTRA =        F    use ultrasoft PP ?                                      
   IUNSCR =        0    unscreen: 0-lin 1-nonlin 2-no                           
   RPACOR =    0.000    partial core radius                                     
   POMASS =    1.000; ZVAL   =    1.000    mass and valenz                      
   RCORE  =    1.100    outmost cutoff radius                                   
   RWIGS  =    0.700; RWIGS  =    0.370    wigner-seitz radius (au A)           
   ENMAX  =  250.000; ENMIN  =  200.000 eV                                      
   RCLOC  =    0.701    cutoff for local pot                                    
   LCOR   =        T    correct aug charges                                     
   LPAW   =        T    paw PP                                                  
   EAUG   =  400.000                                                            
   RMAX   =    1.123    core radius for proj-oper                               
   RAUG   =    1.200    factor for augmentation sphere                          
   RDEP   =    1.112    radius for radial grids                                 
   RDEPT  =    0.926    core radius for aug-charge                              
                                                                                
   Atomic configuration                                                         
    2 entries                                                                   
     n  l   j            E        occ.                                          
     1  0  0.50        -6.4927   1.0000                                         
     2  1  0.50        -3.4015   0.0000                                         
   Description                                                                  
     l       E           TYP  RCUT    TYP  RCUT                                 
     0     -6.4927494     23  1.100                                             
     0      6.8029130     23  1.100                                             
     1     -4.0817478     23  1.100                                             
  local pseudopotential read in
  atomic valenz-charges read in
  non local Contribution for L=           0  read in
    real space projection operators read in
  non local Contribution for L=           0  read in
    real space projection operators read in
  non local Contribution for L=           1  read in
    real space projection operators read in
    PAW grid and wavefunctions read in
 
   number of l-projection  operators is LMAX  =           3
   number of lm-projection operators is LMMAX =           5
 
 Optimization of the real space projectors (new method)

 maximal supplied QI-value         = 15.12
 optimisation between [QCUT,QGAM] = [ 10.13, 20.41] = [ 28.73,116.64] Ry 
 Optimized for a Real-space Cutoff    1.55 Angstroem

   l    n(q)    QCUT    max X(q) W(low)/X(q) W(high)/X(q)  e(spline) 
   2      9    10.129    94.395    0.23E-03    0.29E-03    0.30E-06
   2      9    10.129    88.078    0.23E-03    0.29E-03    0.30E-06
   0      9    10.129    50.173    0.57E-04    0.58E-04    0.11E-06
   0      9    10.129    24.906    0.50E-04    0.51E-04    0.96E-07
   1      9    10.129    12.133    0.24E-03    0.21E-04    0.16E-06
   1      9    10.129     7.290    0.17E-03    0.12E-04    0.12E-06
 Optimization of the real space projectors (new method)

 maximal supplied QI-value         = 25.13
 optimisation between [QCUT,QGAM] = [ 10.05, 20.36] = [ 28.30,116.06] Ry 
 Optimized for a Real-space Cutoff    1.51 Angstroem

   l    n(q)    QCUT    max X(q) W(low)/X(q) W(high)/X(q)  e(spline) 
   0      9    10.053   115.676    0.19E-03    0.21E-03    0.38E-06
   0      9    10.053    87.132    0.19E-03    0.21E-03    0.38E-06
   1      9    10.053     4.429    0.87E-04    0.11E-03    0.39E-06
   1      9    10.053     2.733    0.59E-04    0.62E-04    0.43E-06
 Optimization of the real space projectors (new method)

 maximal supplied QI-value         = 34.20
 optimisation between [QCUT,QGAM] = [  9.92, 20.18] = [ 27.55,114.04] Ry 
 Optimized for a Real-space Cutoff    1.34 Angstroem

   l    n(q)    QCUT    max X(q) W(low)/X(q) W(high)/X(q)  e(spline) 
   0      8     9.919    19.460    0.16E-03    0.20E-03    0.36E-06
   0      8     9.919    12.209    0.16E-03    0.20E-03    0.35E-06
   1      8     9.919     4.655    0.19E-03    0.46E-03    0.40E-06
 Optimization of the real space projectors (new method)

 maximal supplied QI-value         = 25.13
 optimisation between [QCUT,QGAM] = [ 10.05, 20.36] = [ 28.30,116.06] Ry 
 Optimized for a Real-space Cutoff    1.51 Angstroem

   l    n(q)    QCUT    max X(q) W(low)/X(q) W(high)/X(q)  e(spline) 
   0      9    10.053   115.676    0.19E-03    0.21E-03    0.38E-06
   0      9    10.053    87.132    0.19E-03    0.21E-03    0.38E-06
   1      9    10.053     4.429    0.87E-04    0.11E-03    0.39E-06
   1      9    10.053     2.733    0.59E-04    0.62E-04    0.43E-06
 Optimization of the real space projectors (new method)

 maximal supplied QI-value         = 34.20
 optimisation between [QCUT,QGAM] = [  9.92, 20.18] = [ 27.55,114.04] Ry 
 Optimized for a Real-space Cutoff    1.34 Angstroem

   l    n(q)    QCUT    max X(q) W(low)/X(q) W(high)/X(q)  e(spline) 
   0      8     9.919    19.460    0.16E-03    0.20E-03    0.36E-06
   0      8     9.919    12.209    0.16E-03    0.20E-03    0.35E-06
   1      8     9.919     4.655    0.19E-03    0.46E-03    0.40E-06
  PAW_PBE Cr 06Sep2000                  :
 energy of atom  1       EATOM= -276.8859
 kinetic energy error for atom=    0.0018 (will be added to EATOM!!)
  PAW_PBE C 08Apr2002                   :
 energy of atom  2       EATOM= -147.1560
 kinetic energy error for atom=    0.0288 (will be added to EATOM!!)
  PAW_PBE H 15Jun2001                   :
 energy of atom  3       EATOM=  -12.4884
 kinetic energy error for atom=    0.0098 (will be added to EATOM!!)
  PAW_PBE C 08Apr2002                   :
 energy of atom  4       EATOM= -147.1560
 kinetic energy error for atom=    0.0288 (will be added to EATOM!!)
  PAW_PBE H 15Jun2001                   :
 energy of atom  5       EATOM=  -12.4884
 kinetic energy error for atom=    0.0098 (will be added to EATOM!!)
 
 
 POSCAR: chromocene.pdb                          
  positions in cartesian coordinates
  No initial velocities read in
 exchange correlation table for  LEXCH =        8
   RHO(1)=    0.500       N(1)  =     2000
   RHO(2)=  100.500       N(2)  =     4000

 VTST: version 3.1, (03/28/14)

 CHAIN: initializing optimizer
 
 OPT: Using VASP Conjugate-Gradient optimizer
 CHAIN: Read ICHAIN            0
 
 POSCAR: chromocene.pdb                          
  positions in cartesian coordinates
  No initial velocities read in
 


--------------------------------------------------------------------------------------------------------


 ion  position               nearest neighbor table
   1  0.827  0.159  0.898-  14 2.26  11 2.27  15 2.28  13 2.28  12 2.28   2 2.30   5 2.32   6 2.32
                             3 2.35   4 2.37
   2  0.793  0.219  0.990-   9 1.11   1 2.30
   3  0.860  0.270  0.922-  10 1.11   1 2.35
   4  0.832  0.120  0.010-   8 1.10   1 2.37
   5  0.918  0.106  0.947-   7 1.10   1 2.32
   6  0.936  0.199  0.893-  21 1.11   1 2.32
   7  0.931  0.057  0.927-   5 1.10
   8  0.797  0.079  0.017-   4 1.10
   9  0.749  0.240  0.017-   2 1.11
  10  0.834  0.298  0.882-   3 1.11
  11  0.754  0.223  0.840-  19 1.10   1 2.27
  12  0.858  0.083  0.819-  17 1.10   1 2.28
  13  0.842  0.185  0.788-  20 1.11   1 2.28
  14  0.780  0.057  0.890-  18 1.11   1 2.26
  15  0.715  0.142  0.901-  16 1.10   1 2.28
  16  0.694  0.156  0.950-  15 1.10
  17  0.910  0.064  0.825-  12 1.10
  18  0.788  0.021  0.932-  14 1.11
  19  0.755  0.274  0.859-  11 1.10
  20  0.886  0.218  0.782-  13 1.11
  21  0.949  0.198  0.839-   6 1.11
 
  LATTYP: Found a simple cubic cell.
 ALAT       =    20.0000000000
  
  Lattice vectors:
  
 A1 = (  20.0000000000,   0.0000000000,   0.0000000000)
 A2 = (   0.0000000000,  20.0000000000,   0.0000000000)
 A3 = (   0.0000000000,   0.0000000000,  20.0000000000)


Analysis of symmetry for initial positions (statically):
=====================================================================
 Subroutine PRICEL returns:
 Original cell was already a primitive cell.
 

 Routine SETGRP: Setting up the symmetry group for a 
 simple cubic supercell.


 Subroutine GETGRP returns: Found  1 space group operations
 (whereof  1 operations were pure point group operations)
 out of a pool of 48 trial point group operations.


The static configuration has the point symmetry C_1 .


Analysis of symmetry for dynamics (positions and initial velocities):
=====================================================================
 Subroutine PRICEL returns:
 Original cell was already a primitive cell.
 

 Routine SETGRP: Setting up the symmetry group for a 
 simple cubic supercell.


 Subroutine GETGRP returns: Found  1 space group operations
 (whereof  1 operations were pure point group operations)
 out of a pool of 48 trial point group operations.


The dynamic configuration has the point symmetry C_1 .


 Subroutine INISYM returns: Found  1 space group operations
 (whereof  1 operations are pure point group operations),
 and found     1 'primitive' translations

 
 
 KPOINTS: Gamma-point only                        
  k-points in reciprocal lattice
Space group operators:
 irot       det(A)        alpha          n_x          n_y          n_z        tau_x        tau_y        tau_z
    1     1.000000     0.000000     1.000000     0.000000     0.000000     0.000000     0.000000     0.000000


--------------------------------------------------------------------------------------------------------




 Dimension of arrays:
   k-points           NKPTS =      1   k-points in BZ     NKDIM =      1   number of bands    NBANDS=     40
   number of dos      NEDOS =    301   number of ions     NIONS =     21
   non local maximal  LDIM  =      6   non local SUM 2l+1 LMDIM =     18
   total plane-waves  NPLWV = ******
   max r-space proj   IRMAX =   5439   max aug-charges    IRDMAX=  17720
   dimension x,y,z NGX =   140 NGY =  140 NGZ =  140
   dimension x,y,z NGXF=   280 NGYF=  280 NGZF=  280
   support grid    NGXF=   280 NGYF=  280 NGZF=  280
   ions per type =               1   5   4   5   6
 NGX,Y,Z   is equivalent  to a cutoff of  11.64, 11.64, 11.64 a.u.
 NGXF,Y,Z  is equivalent  to a cutoff of  23.27, 23.27, 23.27 a.u.


 I would recommend the setting:
   dimension x,y,z NGX =   130 NGY =  130 NGZ =  130
 SYSTEM =  basalPlane                              
 POSCAR =  chromocene.pdb                          

 Startparameter for this run:
   NWRITE =      2    write-flag & timer
   PREC   = accura    normal or accurate (medium, high low for compatibility)
   ISTART =      0    job   : 0-new  1-cont  2-samecut
   ICHARG =      2    charge: 1-file 2-atom 10-const
   ISPIN  =      1    spin polarized calculation?
   LNONCOLLINEAR =      F non collinear calculations
   LSORBIT =      F    spin-orbit coupling
   INIWAV =      1    electr: 0-lowe 1-rand  2-diag
   LASPH  =      F    aspherical Exc in radial PAW
   METAGGA=      F    non-selfconsistent MetaGGA calc.

 Electronic Relaxation 1
   ENCUT  =  400.0 eV  29.40 Ry    5.42 a.u.  32.61 32.61 32.61*2*pi/ulx,y,z
   ENINI  =  400.0     initial cutoff
   ENAUG  =  645.0 eV  augmentation charge cutoff
   NELM   =    200;   NELMIN=  2; NELMDL= -5     # of ELM steps 
   EDIFF  = 0.1E-03   stopping-criterion for ELM
   LREAL  =      T    real-space projection
   NLSPLINE    = F    spline interpolate recip. space projectors
   LCOMPAT=      F    compatible to vasp.4.4
   GGA_COMPAT  = T    GGA compatible to vasp.4.4-vasp.4.6
   LMAXPAW     = -100 max onsite density
   LMAXMIX     =    2 max onsite mixed and CHGCAR
   VOSKOWN=      0    Vosko Wilk Nusair interpolation
   ROPT   =   -0.00025  -0.00025  -0.00025  -0.00025
   ROPT   =   -0.00025
 Ionic relaxation
   EDIFFG = -.2E-01   stopping-criterion for IOM
   NSW    =  10000    number of steps for IOM
   NBLOCK =      1;   KBLOCK =  10000    inner block; outer block 
   IBRION =      2    ionic relax: 0-MD 1-quasi-New 2-CG
   NFREE  =      1    steps in history (QN), initial steepest desc. (CG)
   ISIF   =      2    stress and relaxation
   IWAVPR =     11    prediction:  0-non 1-charg 2-wave 3-comb
   ISYM   =      2    0-nonsym 1-usesym 2-fastsym
   LCORR  =      T    Harris-Foulkes like correction to forces

   POTIM  = 0.5000    time-step for ionic-motion
   TEIN   =    0.0    initial temperature
   TEBEG  =    0.0;   TEEND  =   0.0 temperature during run
   SMASS  =  -3.00    Nose mass-parameter (am)
   estimated Nose-frequenzy (Omega)   =  0.10E-29 period in steps =****** mass=  -0.914E-26a.u.
   SCALEE = 1.0000    scale energy and forces
   NPACO  =    256;   APACO  = 16.0  distance and # of slots for P.C.
   PSTRESS=    0.0 pullay stress

  Mass of Ions in am
   POMASS =  52.00 12.01  1.00 12.01  1.00
  Ionic Valenz
   ZVAL   =   6.00  4.00  1.00  4.00  1.00
  Atomic Wigner-Seitz radii
   RWIGS  =  -1.00 -1.00 -1.00 -1.00 -1.00
  virtual crystal weights 
   VCA    =   1.00  1.00  1.00  1.00  1.00
   NELECT =      56.0000    total number of electrons
   NUPDOWN=      -1.0000    fix difference up-down

 DOS related values:
   EMIN   =  10.00;   EMAX   =-10.00  energy-range for DOS
   EFERMI =   0.00
   ISMEAR =     0;   SIGMA  =   0.10  broadening in eV -4-tet -1-fermi 0-gaus

 Electronic relaxation 2 (details)
   IALGO  =     38    algorithm
   LDIAG  =      T    sub-space diagonalisation (order eigenvalues)
   LSUBROT=      F    optimize rotation matrix (better conditioning)
   TURBO    =      0    0=normal 1=particle mesh
   IRESTART =      0    0=no restart 2=restart with 2 vectors
   NREBOOT  =      0    no. of reboots
   NMIN     =      0    reboot dimension
   EREF     =   0.00    reference energy to select bands
   IMIX   =      4    mixing-type and parameters
     AMIX     =   0.40;   BMIX     =  1.00
     AMIX_MAG =   1.60;   BMIX_MAG =  1.00
     AMIN     =   0.10
     WC   =   100.;   INIMIX=   1;  MIXPRE=   1;  MAXMIX= -45

 Intra band minimization:
   WEIMIN = 0.0010     energy-eigenvalue tresh-hold
   EBREAK =  0.63E-06  absolut break condition
   DEPER  =   0.30     relativ break condition  

   TIME   =   0.40     timestep for ELM

  volume/ion in A,a.u.               =     380.95      2570.79
  Fermi-wavevector in a.u.,A,eV,Ry     =   0.313166  0.591797  1.334361  0.098073
  Thomas-Fermi vector in A             =   1.193276
 
 Write flags
   LWAVE  =      F    write WAVECAR
   LCHARG =      F    write CHGCAR
   LVTOT  =      F    write LOCPOT, total local potential
   LVHAR  =      F    write LOCPOT, Hartree potential only
   LELF   =      F    write electronic localiz. function (ELF)
   LORBIT =      0    0 simple, 1 ext, 2 COOP (PROOUT)


 Dipole corrections
   LMONO  =      F    monopole corrections only (constant potential shift)
   LDIPOL =      F    correct potential (dipole corrections)
   IDIPOL =      0    1-x, 2-y, 3-z, 4-all directions 
   EPSILON=  1.0000000 bulk dielectric constant

 Exchange correlation treatment:
   GGA     =    --    GGA type
   LEXCH   =     8    internal setting for exchange type
   VOSKOWN=      0    Vosko Wilk Nusair interpolation
   LHFCALC =     F    Hartree Fock is set to
   LHFONE  =     F    Hartree Fock one center treatment
   AEXX    =    0.0000 exact exchange contribution

 Linear response parameters
   LEPSILON=     F    determine dielectric tensor
   LRPA    =     F    only Hartree local field effects (RPA)
   LNABLA  =     F    use nabla operator in PAW spheres
   LVEL    =     F    velocity operator in full k-point grid
   LINTERFAST=   F  fast interpolation
   KINTER  =     0    interpolate to denser k-point grid
   CSHIFT  =0.1000    complex shift for real part using Kramers Kronig
   OMEGAMAX=  -1.0    maximum frequency
   DEG_THRESHOLD= 0.2000000E-02 threshold for treating states as degnerate
   RTIME   =    0.100 relaxation time in fs

 Orbital magnetization related:
   ORBITALMAG=     F  switch on orbital magnetization
   LCHIMAG   =     F  perturbation theory with respect to B field
   DQ        =  0.001000  dq finite difference perturbation B field



--------------------------------------------------------------------------------------------------------


 conjugate gradient relaxation of ions
 charge density and potential will be updated during run
 non-spin polarized calculation
 Variant of blocked Davidson
 Davidson routine will perform the subspace rotation
 perform sub-space diagonalisation
    after iterative eigenvector-optimisation
 modified Broyden-mixing scheme, WC =      100.0
 initial mixing is a Kerker type mixing with AMIX =  0.4000 and BMIX =      1.0000
 Hartree-type preconditioning will be used
 using additional bands           12
 real space projection scheme for non local part
 use partial core corrections
 calculate Harris-corrections to forces 
   (improved forces if not selfconsistent)
 use gradient corrections 
 use of overlap-Matrix (Vanderbilt PP)
 Gauss-broadening in eV      SIGMA  =   0.10


--------------------------------------------------------------------------------------------------------


  energy-cutoff  :      400.00
  volume of cell :     8000.00
      direct lattice vectors                 reciprocal lattice vectors
    20.000000000  0.000000000  0.000000000     0.050000000  0.000000000  0.000000000
     0.000000000 20.000000000  0.000000000     0.000000000  0.050000000  0.000000000
     0.000000000  0.000000000 20.000000000     0.000000000  0.000000000  0.050000000

  length of vectors
    20.000000000 20.000000000 20.000000000     0.050000000  0.050000000  0.050000000


 
 k-points in units of 2pi/SCALE and weight: Gamma-point only                        
   0.00000000  0.00000000  0.00000000       1.000
 
 k-points in reciprocal lattice and weights: Gamma-point only                        
   0.00000000  0.00000000  0.00000000       1.000
 
 position of ions in fractional coordinates (direct lattice) 
   0.82730000  0.15925000  0.89830000
   0.79305000  0.21920000  0.99000000
   0.86010000  0.26965000  0.92200000
   0.83180000  0.12030000  0.01030000
   0.91815000  0.10645000  0.94690000
   0.93645000  0.19865000  0.89320000
   0.93105000  0.05665000  0.92685000
   0.79660000  0.07870000  0.01750000
   0.74895000  0.24000000  0.01665000
   0.83435000  0.29770000  0.88170000
   0.75390000  0.22270000  0.83975000
   0.85830000  0.08270000  0.81950000
   0.84180000  0.18520000  0.78830000
   0.78015000  0.05665000  0.89005000
   0.71470000  0.14245000  0.90135000
   0.69355000  0.15610000  0.95050000
   0.90970000  0.06380000  0.82550000
   0.78825000  0.02100000  0.93155000
   0.75550000  0.27435000  0.85925000
   0.88615000  0.21760000  0.78210000
   0.94895000  0.19795000  0.83925000
 
 position of ions in cartesian coordinates  (Angst):
  16.54600000  3.18500000 17.96600000
  15.86100000  4.38400000 19.80000000
  17.20200000  5.39300000 18.44000000
  16.63600000  2.40600000  0.20600000
  18.36300000  2.12900000 18.93800000
  18.72900000  3.97300000 17.86400000
  18.62100000  1.13300000 18.53700000
  15.93200000  1.57400000  0.35000000
  14.97900000  4.80000000  0.33300000
  16.68700000  5.95400000 17.63400000
  15.07800000  4.45400000 16.79500000
  17.16600000  1.65400000 16.39000000
  16.83600000  3.70400000 15.76600000
  15.60300000  1.13300000 17.80100000
  14.29400000  2.84900000 18.02700000
  13.87100000  3.12200000 19.01000000
  18.19400000  1.27600000 16.51000000
  15.76500000  0.42000000 18.63100000
  15.11000000  5.48700000 17.18500000
  17.72300000  4.35200000 15.64200000
  18.97900000  3.95900000 16.78500000
 


--------------------------------------------------------------------------------------------------------


 use parallel FFT for wavefunctions z direction half grid
 k-point  1 :   0.0000 0.0000 0.0000  plane waves:   72583

 maximum and minimum number of plane-waves per node :      6604     6592

 maximum number of plane-waves:     72583
 maximum index in each direction: 
   IXMAX=   32   IYMAX=   32   IZMAX=   32
   IXMIN=  -32   IYMIN=  -32   IZMIN=    0

 NGX is ok and might be reduce to 130
 NGY is ok and might be reduce to 130
 NGZ is ok and might be reduce to 130

 real space projection operators:
  total allocation   :       5035.62 KBytes
  max/ min on nodes  :        483.85        431.07


 parallel 3D FFT for wavefunctions:
    minimum data exchange during FFTs selected (reduces bandwidth)
 parallel 3D FFT for charge:
    minimum data exchange during FFTs selected (reduces bandwidth)


 total amount of memory used by VASP on root node   164524. kBytes
========================================================================

   base      :      30000. kBytes
   nonlr-proj:        563. kBytes
   fftplans  :      39607. kBytes
   grid      :      92223. kBytes
   one-center:         15. kBytes
   wavefun   :       2116. kBytes
 
     INWAV:  cpu time    0.0000: real time    0.0002
 Broyden mixing: mesh for mixing (old mesh)
   NGX = 65   NGY = 65   NGZ = 65
  (NGX  =280   NGY  =280   NGZ  =280)
  gives a total of 274625 points

 initial charge density was supplied:
 charge density of overlapping atoms calculated
 number of electron      56.0000000 magnetization 
 keeping initial charge density in first step


--------------------------------------------------------------------------------------------------------


 Maximum index for non-local projection operator          539
 Maximum index for augmentation-charges          841 (set IRDMAX)


--------------------------------------------------------------------------------------------------------


 First call to EWALD:  gamma=   0.089
 Maximum number of real-space cells 3x 3x 3
 Maximum number of reciprocal cells 3x 3x 3

 FEWALD executed in parallel
    FEWALD:  cpu time    0.0026: real time    0.0032


----------------------------------------- Iteration    1(   1)  ---------------------------------------


    POTLOK:  cpu time    1.1379: real time    1.1380
    SETDIJ:  cpu time    0.0041: real time    0.0046
     EDDAV:  cpu time    1.4112: real time    1.4117
       DOS:  cpu time    0.0003: real time    0.0003
    --------------------------------------------
      LOOP:  cpu time    2.5610: real time    2.5641

 eigenvalue-minimisations  :    96
 total energy-change (2. order) : 0.4076495E+03  (-0.1042040E+04)
 number of electron      56.0000000 magnetization 
 augmentation part       56.0000000 magnetization 

 Free energy of the ion-electron system (eV)
  ---------------------------------------------------
  alpha Z        PSCENC =         2.09028485
  Ewald energy   TEWEN  =      4110.86906953
  -Hartree energ DENC   =     -5509.64448446
  -exchange      EXHF   =         0.00000000
  -V(xc)+E(xc)   XCENC  =       122.14928969
  PAW double counting   =      1384.21572508    -1370.22559281
  entropy T*S    EENTRO =        -0.04182577
  eigenvalues    EBANDS =      -204.70570581
  atomic energy  EATOM  =      1872.94269914
  Solvation  Ediel_sol  =         0.00000000
  ---------------------------------------------------
  free energy    TOTEN  =       407.64945944 eV

  energy without entropy =      407.69128521  energy(sigma->0) =      407.67037233


--------------------------------------------------------------------------------------------------------




----------------------------------------- Iteration    1(   2)  ---------------------------------------


     EDDAV:  cpu time    1.9508: real time    1.9509
       DOS:  cpu time    0.0002: real time    0.0002
    --------------------------------------------
      LOOP:  cpu time    1.9591: real time    1.9610

 eigenvalue-minimisations  :   128
 total energy-change (2. order) :-0.3008700E+03  (-0.2836515E+03)
 number of electron      56.0000000 magnetization 
 augmentation part       56.0000000 magnetization 

 Free energy of the ion-electron system (eV)
  ---------------------------------------------------
  alpha Z        PSCENC =         2.09028485
  Ewald energy   TEWEN  =      4110.86906953
  -Hartree energ DENC   =     -5509.64448446
  -exchange      EXHF   =         0.00000000
  -V(xc)+E(xc)   XCENC  =       122.14928969
  PAW double counting   =      1384.21572508    -1370.22559281
  entropy T*S    EENTRO =        -0.00045579
  eigenvalues    EBANDS =      -505.61711744
  atomic energy  EATOM  =      1872.94269914
  Solvation  Ediel_sol  =         0.00000000
  ---------------------------------------------------
  free energy    TOTEN  =       106.77941779 eV

  energy without entropy =      106.77987358  energy(sigma->0) =      106.77964568


--------------------------------------------------------------------------------------------------------




----------------------------------------- Iteration    1(   3)  ---------------------------------------


     EDDAV:  cpu time    1.7496: real time    1.7497
       DOS:  cpu time    0.0003: real time    0.0003
    --------------------------------------------
      LOOP:  cpu time    1.7570: real time    1.7594

 eigenvalue-minimisations  :   112
 total energy-change (2. order) :-0.1774380E+03  (-0.1764440E+03)
 number of electron      56.0000000 magnetization 
 augmentation part       56.0000000 magnetization 

 Free energy of the ion-electron system (eV)
  ---------------------------------------------------
  alpha Z        PSCENC =         2.09028485
  Ewald energy   TEWEN  =      4110.86906953
  -Hartree energ DENC   =     -5509.64448446
  -exchange      EXHF   =         0.00000000
  -V(xc)+E(xc)   XCENC  =       122.14928969
  PAW double counting   =      1384.21572508    -1370.22559281
  entropy T*S    EENTRO =        -0.06258651
  eigenvalues    EBANDS =      -682.99296405
  atomic energy  EATOM  =      1872.94269914
  Solvation  Ediel_sol  =         0.00000000
  ---------------------------------------------------
  free energy    TOTEN  =       -70.65855954 eV

  energy without entropy =      -70.59597303  energy(sigma->0) =      -70.62726628


--------------------------------------------------------------------------------------------------------




----------------------------------------- Iteration    1(   4)  ---------------------------------------


     EDDAV:  cpu time    1.9423: real time    1.9424
       DOS:  cpu time    0.0002: real time    0.0002
    --------------------------------------------
      LOOP:  cpu time    1.9482: real time    1.9506

 eigenvalue-minimisations  :   128
 total energy-change (2. order) :-0.3732049E+02  (-0.3696948E+02)
 number of electron      56.0000000 magnetization 
 augmentation part       56.0000000 magnetization 

 Free energy of the ion-electron system (eV)
  ---------------------------------------------------
  alpha Z        PSCENC =         2.09028485
  Ewald energy   TEWEN  =      4110.86906953
  -Hartree energ DENC   =     -5509.64448446
  -exchange      EXHF   =         0.00000000
  -V(xc)+E(xc)   XCENC  =       122.14928969
  PAW double counting   =      1384.21572508    -1370.22559281
  entropy T*S    EENTRO =        -0.00011574
  eigenvalues    EBANDS =      -720.37592457
  atomic energy  EATOM  =      1872.94269914
  Solvation  Ediel_sol  =         0.00000000
  ---------------------------------------------------
  free energy    TOTEN  =      -107.97904928 eV

  energy without entropy =     -107.97893355  energy(sigma->0) =     -107.97899142


--------------------------------------------------------------------------------------------------------




----------------------------------------- Iteration    1(   5)  ---------------------------------------


     EDDAV:  cpu time    1.6582: real time    1.6583
       DOS:  cpu time    0.0002: real time    0.0002
    CHARGE:  cpu time    0.2313: real time    0.2312
    MIXING:  cpu time    0.0287: real time    0.0287
    --------------------------------------------
      LOOP:  cpu time    1.9258: real time    1.9710

 eigenvalue-minimisations  :   104
 total energy-change (2. order) :-0.1222135E+01  (-0.1190923E+01)
 number of electron      56.0000003 magnetization 
 augmentation part        1.3259109 magnetization 

 Broyden mixing:
  rms(total) = 0.26335E+01    rms(broyden)= 0.26328E+01
  rms(prec ) = 0.29371E+01
  weight for this iteration     100.00

 Free energy of the ion-electron system (eV)
  ---------------------------------------------------
  alpha Z        PSCENC =         2.09028485
  Ewald energy   TEWEN  =      4110.86906953
  -Hartree energ DENC   =     -5509.64448446
  -exchange      EXHF   =         0.00000000
  -V(xc)+E(xc)   XCENC  =       122.14928969
  PAW double counting   =      1384.21572508    -1370.22559281
  entropy T*S    EENTRO =        -0.00001170
  eigenvalues    EBANDS =      -721.59816337
  atomic energy  EATOM  =      1872.94269914
  Solvation  Ediel_sol  =         0.00000000
  ---------------------------------------------------
  free energy    TOTEN  =      -109.20118404 eV

  energy without entropy =     -109.20117234  energy(sigma->0) =     -109.20117819


--------------------------------------------------------------------------------------------------------




----------------------------------------- Iteration    1(   6)  ---------------------------------------


    POTLOK:  cpu time    1.0958: real time    1.0959
    SETDIJ:  cpu time    0.0040: real time    0.0041
     EDDAV:  cpu time    1.9425: real time    1.9436
       DOS:  cpu time    0.0002: real time    0.0002
    CHARGE:  cpu time    0.2191: real time    0.2191
    MIXING:  cpu time    0.0289: real time    0.0289
    --------------------------------------------
      LOOP:  cpu time    3.2916: real time    3.2952

 eigenvalue-minimisations  :   128
 total energy-change (2. order) :-0.4462025E+02  (-0.2851257E+02)
 number of electron      56.0000008 magnetization 
 augmentation part        7.9058019 magnetization 

 Broyden mixing:
  rms(total) = 0.10387E+02    rms(broyden)= 0.10386E+02
  rms(prec ) = 0.10761E+02
  weight for this iteration     100.00

 eigenvalues of (default mixing * dielectric matrix)
  average eigenvalue GAMMA=   0.0464
  0.0464

 Free energy of the ion-electron system (eV)
  ---------------------------------------------------
  alpha Z        PSCENC =         2.09028485
  Ewald energy   TEWEN  =      4110.86906953
  -Hartree energ DENC   =     -5509.66593803
  -exchange      EXHF   =         0.00000000
  -V(xc)+E(xc)   XCENC  =       125.77788252
  PAW double counting   =      1740.91354221    -1721.45883976
  entropy T*S    EENTRO =        -0.00000000
  eigenvalues    EBANDS =      -775.29013026
  atomic energy  EATOM  =      1872.94269914
  Solvation  Ediel_sol  =         0.00000000
  ---------------------------------------------------
  free energy    TOTEN  =      -153.82142980 eV

  energy without entropy =     -153.82142980  energy(sigma->0) =     -153.82142980


--------------------------------------------------------------------------------------------------------




----------------------------------------- Iteration    1(   7)  ---------------------------------------


    POTLOK:  cpu time    1.0800: real time    1.0812
    SETDIJ:  cpu time    0.0035: real time    0.0036
     EDDAV:  cpu time    1.6420: real time    1.6421
       DOS:  cpu time    0.0002: real time    0.0002
    CHARGE:  cpu time    0.2288: real time    0.2288
    MIXING:  cpu time    0.0296: real time    0.0296
    --------------------------------------------
      LOOP:  cpu time    2.9851: real time    2.9890

 eigenvalue-minimisations  :   104
 total energy-change (2. order) : 0.2039730E+02  (-0.2937238E+01)
 number of electron      56.0000008 magnetization 
 augmentation part        7.4469832 magnetization 

 Broyden mixing:
  rms(total) = 0.66968E+01    rms(broyden)= 0.66968E+01
  rms(prec ) = 0.71670E+01
  weight for this iteration     100.00

 eigenvalues of (default mixing * dielectric matrix)
  average eigenvalue GAMMA=   0.3117
  0.3117  0.3117

 Free energy of the ion-electron system (eV)
  ---------------------------------------------------
  alpha Z        PSCENC =         2.09028485
  Ewald energy   TEWEN  =      4110.86906953
  -Hartree energ DENC   =     -5519.70877650
  -exchange      EXHF   =         0.00000000
  -V(xc)+E(xc)   XCENC  =       125.62393412
  PAW double counting   =      1796.14580699    -1778.34145088
  entropy T*S    EENTRO =        -0.00000000
  eigenvalues    EBANDS =      -743.04569413
  atomic energy  EATOM  =      1872.94269914
  Solvation  Ediel_sol  =         0.00000000
  ---------------------------------------------------
  free energy    TOTEN  =      -133.42412687 eV

  energy without entropy =     -133.42412687  energy(sigma->0) =     -133.42412687


--------------------------------------------------------------------------------------------------------




----------------------------------------- Iteration    1(   8)  ---------------------------------------


    POTLOK:  cpu time    1.0657: real time    1.0661
    SETDIJ:  cpu time    0.0037: real time    0.0037
     EDDAV:  cpu time    1.9388: real time    1.9388
       DOS:  cpu time    0.0002: real time    0.0002
    CHARGE:  cpu time    0.2289: real time    0.2289
    MIXING:  cpu time    0.0310: real time    0.0310
    --------------------------------------------
      LOOP:  cpu time    3.2693: real time    3.2714

 eigenvalue-minimisations  :   128
 total energy-change (2. order) : 0.3260038E+02  (-0.5215357E+01)
 number of electron      56.0000003 magnetization 
 augmentation part        1.6580025 magnetization 

 Broyden mixing:
  rms(total) = 0.17025E+01    rms(broyden)= 0.17010E+01
  rms(prec ) = 0.19504E+01
  weight for this iteration     100.00

 eigenvalues of (default mixing * dielectric matrix)
  average eigenvalue GAMMA=   0.7835
  1.8280  0.2613  0.2613

 Free energy of the ion-electron system (eV)
  ---------------------------------------------------
  alpha Z        PSCENC =         2.09028485
  Ewald energy   TEWEN  =      4110.86906953
  -Hartree energ DENC   =     -5556.54087499
  -exchange      EXHF   =         0.00000000
  -V(xc)+E(xc)   XCENC  =       125.02253858
  PAW double counting   =      1928.79041078    -1915.75465229
  entropy T*S    EENTRO =        -0.00023429
  eigenvalues    EBANDS =      -668.24298852
  atomic energy  EATOM  =      1872.94269914
  Solvation  Ediel_sol  =         0.00000000
  ---------------------------------------------------
  free energy    TOTEN  =      -100.82374720 eV

  energy without entropy =     -100.82351291  energy(sigma->0) =     -100.82363006


--------------------------------------------------------------------------------------------------------




----------------------------------------- Iteration    1(   9)  ---------------------------------------


    POTLOK:  cpu time    1.0663: real time    1.0664
    SETDIJ:  cpu time    0.0031: real time    0.0032
     EDDAV:  cpu time    2.2937: real time    2.3158
       DOS:  cpu time    0.0003: real time    0.0003
    CHARGE:  cpu time    0.2383: real time    0.2385
    MIXING:  cpu time    0.0314: real time    0.0314
    --------------------------------------------
      LOOP:  cpu time    3.6343: real time    3.6590

 eigenvalue-minimisations  :   136
 total energy-change (2. order) : 0.2782243E+01  (-0.1482356E+01)
 number of electron      56.0000003 magnetization 
 augmentation part        2.8265060 magnetization 

 Broyden mixing:
  rms(total) = 0.68650E+00    rms(broyden)= 0.68633E+00
  rms(prec ) = 0.73458E+00
  weight for this iteration     100.00

 eigenvalues of (default mixing * dielectric matrix)
  average eigenvalue GAMMA=   0.7475
  1.9596  0.2639  0.2639  0.5027

 Free energy of the ion-electron system (eV)
  ---------------------------------------------------
  alpha Z        PSCENC =         2.09028485
  Ewald energy   TEWEN  =      4110.86906953
  -Hartree energ DENC   =     -5578.56152468
  -exchange      EXHF   =         0.00000000
  -V(xc)+E(xc)   XCENC  =       126.78153519
  PAW double counting   =      2388.22898995    -2375.11023950
  entropy T*S    EENTRO =        -0.00022488
  eigenvalues    EBANDS =      -645.28209396
  atomic energy  EATOM  =      1872.94269914
  Solvation  Ediel_sol  =         0.00000000
  ---------------------------------------------------
  free energy    TOTEN  =       -98.04150436 eV

  energy without entropy =      -98.04127948  energy(sigma->0) =      -98.04139192


--------------------------------------------------------------------------------------------------------




----------------------------------------- Iteration    1(  10)  ---------------------------------------


    POTLOK:  cpu time    1.0507: real time    1.0766
    SETDIJ:  cpu time    0.0031: real time    0.0032
     EDDAV:  cpu time    1.7352: real time    1.8559
       DOS:  cpu time    0.0003: real time    0.0003
    CHARGE:  cpu time    0.2208: real time    0.2434
    MIXING:  cpu time    0.0312: real time    0.0332
    --------------------------------------------
      LOOP:  cpu time    3.0424: real time    3.2179

 eigenvalue-minimisations  :   120
 total energy-change (2. order) :-0.7134681E-01  (-0.5866892E+00)
 number of electron      56.0000004 magnetization 
 augmentation part        3.3008388 magnetization 

 Broyden mixing:
  rms(total) = 0.52755E+00    rms(broyden)= 0.52743E+00
  rms(prec ) = 0.56157E+00
  weight for this iteration     100.00

 eigenvalues of (default mixing * dielectric matrix)
  average eigenvalue GAMMA=   0.7222
  1.9074  0.2627  0.2627  0.5891  0.5891

 Free energy of the ion-electron system (eV)
  ---------------------------------------------------
  alpha Z        PSCENC =         2.09028485
  Ewald energy   TEWEN  =      4110.86906953
  -Hartree energ DENC   =     -5587.88763665
  -exchange      EXHF   =         0.00000000
  -V(xc)+E(xc)   XCENC  =       127.17605762
  PAW double counting   =      2448.66202862    -2435.35720482
  entropy T*S    EENTRO =        -0.00192037
  eigenvalues    EBANDS =      -636.60622910
  atomic energy  EATOM  =      1872.94269914
  Solvation  Ediel_sol  =         0.00000000
  ---------------------------------------------------
  free energy    TOTEN  =       -98.11285117 eV

  energy without entropy =      -98.11093080  energy(sigma->0) =      -98.11189098


--------------------------------------------------------------------------------------------------------




----------------------------------------- Iteration    1(  11)  ---------------------------------------


    POTLOK:  cpu time    1.0310: real time    1.0850
    SETDIJ:  cpu time    0.0034: real time    0.0035
     EDDAV:  cpu time    2.0344: real time    2.0366
       DOS:  cpu time    0.0003: real time    0.0003
    CHARGE:  cpu time    0.2378: real time    0.2378
    MIXING:  cpu time    0.0330: real time    0.0330
    --------------------------------------------
      LOOP:  cpu time    3.3413: real time    3.4022

 eigenvalue-minimisations  :   136
 total energy-change (2. order) : 0.1361399E+00  (-0.6148515E-01)
 number of electron      56.0000004 magnetization 
 augmentation part        3.1093247 magnetization 

 Broyden mixing:
  rms(total) = 0.45725E+00    rms(broyden)= 0.45724E+00
  rms(prec ) = 0.47192E+00
  weight for this iteration     100.00

 eigenvalues of (default mixing * dielectric matrix)
  average eigenvalue GAMMA=   0.8639
  2.0363  1.0750  1.0750  0.2627  0.2627  0.4719

 Free energy of the ion-electron system (eV)
  ---------------------------------------------------
  alpha Z        PSCENC =         2.09028485
  Ewald energy   TEWEN  =      4110.86906953
  -Hartree energ DENC   =     -5593.41673051
  -exchange      EXHF   =         0.00000000
  -V(xc)+E(xc)   XCENC  =       127.27963745
  PAW double counting   =      2437.72445734    -2424.33417071
  entropy T*S    EENTRO =        -0.00076778
  eigenvalues    EBANDS =      -631.13119055
  atomic energy  EATOM  =      1872.94269914
  Solvation  Ediel_sol  =         0.00000000
  ---------------------------------------------------
  free energy    TOTEN  =       -97.97671124 eV

  energy without entropy =      -97.97594347  energy(sigma->0) =      -97.97632735


--------------------------------------------------------------------------------------------------------




----------------------------------------- Iteration    1(  12)  ---------------------------------------


    POTLOK:  cpu time    1.0609: real time    1.0649
    SETDIJ:  cpu time    0.0029: real time    0.0029
     EDDAV:  cpu time    1.8413: real time    1.8415
       DOS:  cpu time    0.0003: real time    0.0003
    CHARGE:  cpu time    0.2374: real time    0.2374
    MIXING:  cpu time    0.0341: real time    0.0341
    --------------------------------------------
      LOOP:  cpu time    3.1781: real time    3.5855

 eigenvalue-minimisations  :   120
 total energy-change (2. order) : 0.1422340E+00  (-0.3463344E-01)
 number of electron      56.0000004 magnetization 
 augmentation part        3.1799354 magnetization 

 Broyden mixing:
  rms(total) = 0.35934E+00    rms(broyden)= 0.35933E+00
  rms(prec ) = 0.36806E+00
  weight for this iteration     100.00

 eigenvalues of (default mixing * dielectric matrix)
  average eigenvalue GAMMA=   0.9000
  2.2303  1.4254  0.9689  0.2627  0.2627  0.6914  0.4583

 Free energy of the ion-electron system (eV)
  ---------------------------------------------------
  alpha Z        PSCENC =         2.09028485
  Ewald energy   TEWEN  =      4110.86906953
  -Hartree energ DENC   =     -5604.94488766
  -exchange      EXHF   =         0.00000000
  -V(xc)+E(xc)   XCENC  =       127.66955630
  PAW double counting   =      2426.84644454    -2413.16561613
  entropy T*S    EENTRO =        -0.00639868
  eigenvalues    EBANDS =      -620.13562911
  atomic energy  EATOM  =      1872.94269914
  Solvation  Ediel_sol  =         0.00000000
  ---------------------------------------------------
  free energy    TOTEN  =       -97.83447722 eV

  energy without entropy =      -97.82807855  energy(sigma->0) =      -97.83127788


--------------------------------------------------------------------------------------------------------




----------------------------------------- Iteration    1(  13)  ---------------------------------------


    POTLOK:  cpu time    1.0706: real time    1.0707
    SETDIJ:  cpu time    0.0033: real time    0.0033
     EDDAV:  cpu time    1.8391: real time    1.8392
       DOS:  cpu time    0.0003: real time    0.0003
    CHARGE:  cpu time    0.2385: real time    0.2385
    MIXING:  cpu time    0.0345: real time    0.0345
    --------------------------------------------
      LOOP:  cpu time    3.1873: real time    3.1901

 eigenvalue-minimisations  :   120
 total energy-change (2. order) : 0.1729279E-01  (-0.1346749E-01)
 number of electron      56.0000004 magnetization 
 augmentation part        3.3100680 magnetization 

 Broyden mixing:
  rms(total) = 0.33108E+00    rms(broyden)= 0.33107E+00
  rms(prec ) = 0.35240E+00
  weight for this iteration     100.00

 eigenvalues of (default mixing * dielectric matrix)
  average eigenvalue GAMMA=   0.8893
  2.1883  1.5700  0.2627  0.2627  0.8969  0.8969  0.5755  0.4618

 Free energy of the ion-electron system (eV)
  ---------------------------------------------------
  alpha Z        PSCENC =         2.09028485
  Ewald energy   TEWEN  =      4110.86906953
  -Hartree energ DENC   =     -5611.95778236
  -exchange      EXHF   =         0.00000000
  -V(xc)+E(xc)   XCENC  =       127.90829683
  PAW double counting   =      2411.19233891    -2397.30598246
  entropy T*S    EENTRO =        -0.02162460
  eigenvalues    EBANDS =      -613.53448427
  atomic energy  EATOM  =      1872.94269914
  Solvation  Ediel_sol  =         0.00000000
  ---------------------------------------------------
  free energy    TOTEN  =       -97.81718444 eV

  energy without entropy =      -97.79555984  energy(sigma->0) =      -97.80637214


--------------------------------------------------------------------------------------------------------




----------------------------------------- Iteration    1(  14)  ---------------------------------------


    POTLOK:  cpu time    1.0728: real time    1.0728
    SETDIJ:  cpu time    0.0031: real time    0.0031
     EDDAV:  cpu time    1.8409: real time    1.8409
       DOS:  cpu time    0.0003: real time    0.0003
    CHARGE:  cpu time    0.2380: real time    0.2380
    MIXING:  cpu time    0.0339: real time    0.0339
    --------------------------------------------
      LOOP:  cpu time    3.1908: real time    3.1932

 eigenvalue-minimisations  :   120
 total energy-change (2. order) : 0.1233581E-01  (-0.3566832E-02)
 number of electron      56.0000004 magnetization 
 augmentation part        3.2573137 magnetization 

 Broyden mixing:
  rms(total) = 0.28053E+00    rms(broyden)= 0.28053E+00
  rms(prec ) = 0.29386E+00
  weight for this iteration     100.00

 eigenvalues of (default mixing * dielectric matrix)
  average eigenvalue GAMMA=   0.9866
  2.2840  2.2840  1.0579  1.0579  0.2627  0.2627  0.7024  0.4838  0.4838

 Free energy of the ion-electron system (eV)
  ---------------------------------------------------
  alpha Z        PSCENC =         2.09028485
  Ewald energy   TEWEN  =      4110.86906953
  -Hartree energ DENC   =     -5614.49458328
  -exchange      EXHF   =         0.00000000
  -V(xc)+E(xc)   XCENC  =       127.96238956
  PAW double counting   =      2401.27005049    -2387.32533216
  entropy T*S    EENTRO =        -0.01430752
  eigenvalues    EBANDS =      -611.10511924
  atomic energy  EATOM  =      1872.94269914
  Solvation  Ediel_sol  =         0.00000000
  ---------------------------------------------------
  free energy    TOTEN  =       -97.80484862 eV

  energy without entropy =      -97.79054110  energy(sigma->0) =      -97.79769486


--------------------------------------------------------------------------------------------------------




----------------------------------------- Iteration    1(  15)  ---------------------------------------


    POTLOK:  cpu time    1.0755: real time    1.0756
    SETDIJ:  cpu time    0.0029: real time    0.0029
     EDDAV:  cpu time    1.7423: real time    1.7424
       DOS:  cpu time    0.0003: real time    0.0003
    CHARGE:  cpu time    0.2376: real time    0.2385
    MIXING:  cpu time    0.0336: real time    0.0336
    --------------------------------------------
      LOOP:  cpu time    3.0932: real time    3.0968

 eigenvalue-minimisations  :   112
 total energy-change (2. order) : 0.4035163E-02  (-0.1319190E-02)
 number of electron      56.0000004 magnetization 
 augmentation part        3.2542819 magnetization 

 Broyden mixing:
  rms(total) = 0.21665E+00    rms(broyden)= 0.21665E+00
  rms(prec ) = 0.23106E+00
  weight for this iteration     100.00

 eigenvalues of (default mixing * dielectric matrix)
  average eigenvalue GAMMA=   0.9990
  2.4867  2.4867  1.1022  1.1022  0.2627  0.2627  0.6494  0.6494  0.5076  0.4806

 Free energy of the ion-electron system (eV)
  ---------------------------------------------------
  alpha Z        PSCENC =         2.09028485
  Ewald energy   TEWEN  =      4110.86906953
  -Hartree energ DENC   =     -5618.82946128
  -exchange      EXHF   =         0.00000000
  -V(xc)+E(xc)   XCENC  =       128.05106988
  PAW double counting   =      2379.08034860    -2365.03234543
  entropy T*S    EENTRO =        -0.01172200
  eigenvalues    EBANDS =      -606.96075675
  atomic energy  EATOM  =      1872.94269914
  Solvation  Ediel_sol  =         0.00000000
  ---------------------------------------------------
  free energy    TOTEN  =       -97.80081346 eV

  energy without entropy =      -97.78909146  energy(sigma->0) =      -97.79495246


--------------------------------------------------------------------------------------------------------




----------------------------------------- Iteration    1(  16)  ---------------------------------------


    POTLOK:  cpu time    1.0757: real time    1.0767
    SETDIJ:  cpu time    0.0033: real time    0.0033
     EDDAV:  cpu time    1.9448: real time    1.9450
       DOS:  cpu time    0.0003: real time    0.0003
    CHARGE:  cpu time    0.2397: real time    0.2397
    MIXING:  cpu time    0.0350: real time    0.0350
    --------------------------------------------
      LOOP:  cpu time    3.3006: real time    3.3044

 eigenvalue-minimisations  :   128
 total energy-change (2. order) : 0.3351376E-02  (-0.1093476E-02)
 number of electron      56.0000004 magnetization 
 augmentation part        3.2147098 magnetization 

 Broyden mixing:
  rms(total) = 0.16211E+00    rms(broyden)= 0.16210E+00
  rms(prec ) = 0.17118E+00
  weight for this iteration     100.00

 eigenvalues of (default mixing * dielectric matrix)
  average eigenvalue GAMMA=   1.0063
  2.4812  2.4812  1.2428  1.2428  0.2627  0.2627  0.8165  0.8165  0.5399  0.4613
  0.4613

 Free energy of the ion-electron system (eV)
  ---------------------------------------------------
  alpha Z        PSCENC =         2.09028485
  Ewald energy   TEWEN  =      4110.86906953
  -Hartree energ DENC   =     -5621.39584242
  -exchange      EXHF   =         0.00000000
  -V(xc)+E(xc)   XCENC  =       128.09121984
  PAW double counting   =      2367.92711419    -2353.83289070
  entropy T*S    EENTRO =        -0.00921372
  eigenvalues    EBANDS =      -604.47990279
  atomic energy  EATOM  =      1872.94269914
  Solvation  Ediel_sol  =         0.00000000
  ---------------------------------------------------
  free energy    TOTEN  =       -97.79746208 eV

  energy without entropy =      -97.78824836  energy(sigma->0) =      -97.79285522


--------------------------------------------------------------------------------------------------------




----------------------------------------- Iteration    1(  17)  ---------------------------------------


    POTLOK:  cpu time    1.0798: real time    1.0798
    SETDIJ:  cpu time    0.0029: real time    0.0029
     EDDAV:  cpu time    1.8393: real time    1.8393
       DOS:  cpu time    0.0003: real time    0.0003
    CHARGE:  cpu time    0.2375: real time    0.2375
    MIXING:  cpu time    0.0348: real time    0.0348
    --------------------------------------------
      LOOP:  cpu time    3.1966: real time    3.1989

 eigenvalue-minimisations  :   120
 total energy-change (2. order) :-0.3520834E-02  (-0.2273046E-03)
 number of electron      56.0000004 magnetization 
 augmentation part        3.2096080 magnetization 

 Broyden mixing:
  rms(total) = 0.13059E+00    rms(broyden)= 0.13059E+00
  rms(prec ) = 0.13986E+00
  weight for this iteration     100.00

 eigenvalues of (default mixing * dielectric matrix)
  average eigenvalue GAMMA=   1.0868
  2.6180  2.6180  2.0485  1.0531  1.0531  0.9701  0.2627  0.2627  0.6653  0.5463
  0.4719  0.4719

 Free energy of the ion-electron system (eV)
  ---------------------------------------------------
  alpha Z        PSCENC =         2.09028485
  Ewald energy   TEWEN  =      4110.86906953
  -Hartree energ DENC   =     -5623.10830133
  -exchange      EXHF   =         0.00000000
  -V(xc)+E(xc)   XCENC  =       128.10830481
  PAW double counting   =      2364.11280035    -2349.99985362
  entropy T*S    EENTRO =        -0.00899651
  eigenvalues    EBANDS =      -602.80699013
  atomic energy  EATOM  =      1872.94269914
  Solvation  Ediel_sol  =         0.00000000
  ---------------------------------------------------
  free energy    TOTEN  =       -97.80098292 eV

  energy without entropy =      -97.79198640  energy(sigma->0) =      -97.79648466


--------------------------------------------------------------------------------------------------------




----------------------------------------- Iteration    1(  18)  ---------------------------------------


    POTLOK:  cpu time    1.0832: real time    1.0832
    SETDIJ:  cpu time    0.0033: real time    0.0033
     EDDAV:  cpu time    1.9361: real time    1.9362
       DOS:  cpu time    0.0003: real time    0.0003
    CHARGE:  cpu time    0.2373: real time    0.2373
    MIXING:  cpu time    0.0364: real time    0.0364
    --------------------------------------------
      LOOP:  cpu time    3.2986: real time    3.3013

 eigenvalue-minimisations  :   128
 total energy-change (2. order) :-0.6193453E-02  (-0.7397475E-03)
 number of electron      56.0000004 magnetization 
 augmentation part        3.1710460 magnetization 

 Broyden mixing:
  rms(total) = 0.58337E-01    rms(broyden)= 0.58333E-01
  rms(prec ) = 0.63788E-01
  weight for this iteration     100.00

 eigenvalues of (default mixing * dielectric matrix)
  average eigenvalue GAMMA=   1.1592
  3.4759  2.8092  2.3416  1.1219  1.1219  0.2627  0.2627  0.8367  0.8367  0.5439
  0.5439  0.4562  0.4562

 Free energy of the ion-electron system (eV)
  ---------------------------------------------------
  alpha Z        PSCENC =         2.09028485
  Ewald energy   TEWEN  =      4110.86906953
  -Hartree energ DENC   =     -5626.27692280
  -exchange      EXHF   =         0.00000000
  -V(xc)+E(xc)   XCENC  =       128.13482589
  PAW double counting   =      2358.22832413    -2344.09008930
  entropy T*S    EENTRO =        -0.00606069
  eigenvalues    EBANDS =      -599.69930711
  atomic energy  EATOM  =      1872.94269914
  Solvation  Ediel_sol  =         0.00000000
  ---------------------------------------------------
  free energy    TOTEN  =       -97.80717637 eV

  energy without entropy =      -97.80111567  energy(sigma->0) =      -97.80414602


--------------------------------------------------------------------------------------------------------




----------------------------------------- Iteration    1(  19)  ---------------------------------------


    POTLOK:  cpu time    1.1023: real time    1.1024
    SETDIJ:  cpu time    0.0032: real time    0.0032
     EDDAV:  cpu time    1.9530: real time    1.9531
       DOS:  cpu time    0.0003: real time    0.0003
    CHARGE:  cpu time    0.2380: real time    0.2380
    MIXING:  cpu time    0.0380: real time    0.0380
    --------------------------------------------
      LOOP:  cpu time    3.3358: real time    3.3383

 eigenvalue-minimisations  :   128
 total energy-change (2. order) :-0.5279300E-02  (-0.6375436E-03)
 number of electron      56.0000004 magnetization 
 augmentation part        3.1361247 magnetization 

 Broyden mixing:
  rms(total) = 0.81561E-02    rms(broyden)= 0.81279E-02
  rms(prec ) = 0.10420E-01
  weight for this iteration     100.00

 eigenvalues of (default mixing * dielectric matrix)
  average eigenvalue GAMMA=   1.1903
  4.0666  2.8653  2.3545  1.2018  1.2018  0.2627  0.2627  0.8652  0.8652  0.6376
  0.6376  0.4891  0.4769  0.4769

 Free energy of the ion-electron system (eV)
  ---------------------------------------------------
  alpha Z        PSCENC =         2.09028485
  Ewald energy   TEWEN  =      4110.86906953
  -Hartree energ DENC   =     -5628.38296171
  -exchange      EXHF   =         0.00000000
  -V(xc)+E(xc)   XCENC  =       128.14442615
  PAW double counting   =      2354.41391064    -2340.26500558
  entropy T*S    EENTRO =        -0.00410511
  eigenvalues    EBANDS =      -597.62077359
  atomic energy  EATOM  =      1872.94269914
  Solvation  Ediel_sol  =         0.00000000
  ---------------------------------------------------
  free energy    TOTEN  =       -97.81245567 eV

  energy without entropy =      -97.80835056  energy(sigma->0) =      -97.81040311


--------------------------------------------------------------------------------------------------------




----------------------------------------- Iteration    1(  20)  ---------------------------------------


    POTLOK:  cpu time    1.0912: real time    1.0913
    SETDIJ:  cpu time    0.0029: real time    0.0029
     EDDAV:  cpu time    1.7463: real time    1.7486
       DOS:  cpu time    0.0003: real time    0.0003
    CHARGE:  cpu time    0.2378: real time    0.2378
    MIXING:  cpu time    0.0394: real time    0.0394
    --------------------------------------------
      LOOP:  cpu time    3.1189: real time    3.1244

 eigenvalue-minimisations  :   112
 total energy-change (2. order) :-0.3930543E-02  (-0.1402600E-03)
 number of electron      56.0000004 magnetization 
 augmentation part        3.1225015 magnetization 

 Broyden mixing:
  rms(total) = 0.14100E-01    rms(broyden)= 0.14095E-01
  rms(prec ) = 0.16072E-01
  weight for this iteration     100.00

 eigenvalues of (default mixing * dielectric matrix)
  average eigenvalue GAMMA=   1.3166
  5.6542  2.9728  2.4101  1.7127  1.0385  1.0385  1.0219  0.2627  0.2627  0.6907
  0.6907  0.5333  0.5333  0.4637  0.4637

 Free energy of the ion-electron system (eV)
  ---------------------------------------------------
  alpha Z        PSCENC =         2.09028485
  Ewald energy   TEWEN  =      4110.86906953
  -Hartree energ DENC   =     -5629.25188093
  -exchange      EXHF   =         0.00000000
  -V(xc)+E(xc)   XCENC  =       128.14328937
  PAW double counting   =      2353.16982446    -2339.01685501
  entropy T*S    EENTRO =        -0.00345286
  eigenvalues    EBANDS =      -596.75936476
  atomic energy  EATOM  =      1872.94269914
  Solvation  Ediel_sol  =         0.00000000
  ---------------------------------------------------
  free energy    TOTEN  =       -97.81638621 eV

  energy without entropy =      -97.81293335  energy(sigma->0) =      -97.81465978


--------------------------------------------------------------------------------------------------------




----------------------------------------- Iteration    1(  21)  ---------------------------------------


    POTLOK:  cpu time    1.0880: real time    1.0881
    SETDIJ:  cpu time    0.0033: real time    0.0033
     EDDAV:  cpu time    1.5490: real time    1.5491
       DOS:  cpu time    0.0003: real time    0.0003
    CHARGE:  cpu time    0.2389: real time    0.2389
    MIXING:  cpu time    0.0390: real time    0.0390
    --------------------------------------------
      LOOP:  cpu time    2.9195: real time    2.9230

 eigenvalue-minimisations  :    96
 total energy-change (2. order) :-0.3388148E-02  (-0.5432043E-04)
 number of electron      56.0000004 magnetization 
 augmentation part        3.1202806 magnetization 

 Broyden mixing:
  rms(total) = 0.19339E-01    rms(broyden)= 0.19339E-01
  rms(prec ) = 0.21070E-01
  weight for this iteration     100.00

 eigenvalues of (default mixing * dielectric matrix)
  average eigenvalue GAMMA=   1.3179
  5.9796  2.6675  2.5923  1.9621  1.0676  1.0676  1.0214  0.2627  0.2627  0.8143
  0.8143  0.5728  0.5728  0.4662  0.4662  0.4970

 Free energy of the ion-electron system (eV)
  ---------------------------------------------------
  alpha Z        PSCENC =         2.09028485
  Ewald energy   TEWEN  =      4110.86906953
  -Hartree energ DENC   =     -5630.03110881
  -exchange      EXHF   =         0.00000000
  -V(xc)+E(xc)   XCENC  =       128.14249145
  PAW double counting   =      2352.19407188    -2338.03362398
  entropy T*S    EENTRO =        -0.00328413
  eigenvalues    EBANDS =      -595.99037430
  atomic energy  EATOM  =      1872.94269914
  Solvation  Ediel_sol  =         0.00000000
  ---------------------------------------------------
  free energy    TOTEN  =       -97.81977436 eV

  energy without entropy =      -97.81649024  energy(sigma->0) =      -97.81813230


--------------------------------------------------------------------------------------------------------




----------------------------------------- Iteration    1(  22)  ---------------------------------------


    POTLOK:  cpu time    1.0867: real time    1.0867
    SETDIJ:  cpu time    0.0029: real time    0.0029
     EDDAV:  cpu time    1.1521: real time    1.1522
       DOS:  cpu time    0.0003: real time    0.0003
    CHARGE:  cpu time    0.2396: real time    0.2396
    MIXING:  cpu time    0.0408: real time    0.0408
    --------------------------------------------
      LOOP:  cpu time    2.5233: real time    2.5257

 eigenvalue-minimisations  :    64
 total energy-change (2. order) :-0.1135024E-02  (-0.1084712E-04)
 number of electron      56.0000004 magnetization 
 augmentation part        3.1238337 magnetization 

 Broyden mixing:
  rms(total) = 0.15762E-01    rms(broyden)= 0.15762E-01
  rms(prec ) = 0.17006E-01
  weight for this iteration     100.00

 eigenvalues of (default mixing * dielectric matrix)
  average eigenvalue GAMMA=   1.3253
  6.3261  2.5249  2.5249  2.2107  1.1565  1.1565  0.2627  0.2627  1.0041  0.9170
  0.9170  0.6479  0.6479  0.4655  0.4655  0.5201  0.5201

 Free energy of the ion-electron system (eV)
  ---------------------------------------------------
  alpha Z        PSCENC =         2.09028485
  Ewald energy   TEWEN  =      4110.86906953
  -Hartree energ DENC   =     -5630.18514690
  -exchange      EXHF   =         0.00000000
  -V(xc)+E(xc)   XCENC  =       128.14380758
  PAW double counting   =      2351.66236896    -2337.49775028
  entropy T*S    EENTRO =        -0.00353191
  eigenvalues    EBANDS =      -595.84271036
  atomic energy  EATOM  =      1872.94269914
  Solvation  Ediel_sol  =         0.00000000
  ---------------------------------------------------
  free energy    TOTEN  =       -97.82090938 eV

  energy without entropy =      -97.81737747  energy(sigma->0) =      -97.81914343


--------------------------------------------------------------------------------------------------------




----------------------------------------- Iteration    1(  23)  ---------------------------------------


    POTLOK:  cpu time    1.0866: real time    1.0866
    SETDIJ:  cpu time    0.0032: real time    0.0032
     EDDAV:  cpu time    1.5498: real time    1.5499
       DOS:  cpu time    0.0003: real time    0.0003
    CHARGE:  cpu time    0.2385: real time    0.2386
    MIXING:  cpu time    0.0416: real time    0.0416
    --------------------------------------------
      LOOP:  cpu time    2.9211: real time    2.9234

 eigenvalue-minimisations  :    96
 total energy-change (2. order) :-0.1603960E-02  (-0.2470569E-04)
 number of electron      56.0000004 magnetization 
 augmentation part        3.1275568 magnetization 

 Broyden mixing:
  rms(total) = 0.12168E-01    rms(broyden)= 0.12167E-01
  rms(prec ) = 0.12847E-01
  weight for this iteration     100.00

 eigenvalues of (default mixing * dielectric matrix)
  average eigenvalue GAMMA=   1.3574
[...]
     LOOP+:  cpu time   15.3101: real time   15.3490


----------------------------------------- Iteration   90(   1)  ---------------------------------------


    POTLOK:  cpu time    1.1153: real time    1.1240
    SETDIJ:  cpu time    0.0032: real time    0.0032
     EDDAV:  cpu time    1.3426: real time    1.3426
       DOS:  cpu time    0.0003: real time    0.0003
    CHARGE:  cpu time    0.2264: real time    0.2265
    MIXING:  cpu time    0.0288: real time    0.0288
    --------------------------------------------
      LOOP:  cpu time    2.7204: real time    2.7300

 eigenvalue-minimisations  :    80
 total energy-change (2. order) :-0.1197979E-05  (-0.6768541E-04)
 number of electron      56.0000004 magnetization 
 augmentation part        3.7530622 magnetization 

 Broyden mixing:
  rms(total) = 0.10636E-02    rms(broyden)= 0.10024E-02
  rms(prec ) = 0.10495E-02
  weight for this iteration     100.00

 Free energy of the ion-electron system (eV)
  ---------------------------------------------------
  alpha Z        PSCENC =         2.09028485
  Ewald energy   TEWEN  =      5051.61536023
  -Hartree energ DENC   =     -6587.18324405
  -exchange      EXHF   =         0.00000000
  -V(xc)+E(xc)   XCENC  =       144.94677163
  PAW double counting   =      4658.07437924    -4645.63991656
  entropy T*S    EENTRO =        -0.10989027
  eigenvalues    EBANDS =      -630.60288267
  atomic energy  EATOM  =      1872.94269914
  Solvation  Ediel_sol  =         0.00000000
  ---------------------------------------------------
  free energy    TOTEN  =      -133.86643845 eV

  energy without entropy =     -133.75654819  energy(sigma->0) =     -133.81149332


--------------------------------------------------------------------------------------------------------




----------------------------------------- Iteration   90(   2)  ---------------------------------------


    POTLOK:  cpu time    1.1259: real time    1.1259
    SETDIJ:  cpu time    0.0028: real time    0.0028
     EDDAV:  cpu time    1.0465: real time    1.0466
       DOS:  cpu time    0.0003: real time    0.0003
    --------------------------------------------
      LOOP:  cpu time    2.1774: real time    2.1803

 eigenvalue-minimisations  :    56
 total energy-change (2. order) :-0.4015483E-04  (-0.4242889E-05)
 number of electron      56.0000004 magnetization 
 augmentation part        3.7530622 magnetization 

 Free energy of the ion-electron system (eV)
  ---------------------------------------------------
  alpha Z        PSCENC =         2.09028485
  Ewald energy   TEWEN  =      5051.61536023
  -Hartree energ DENC   =     -6587.17390888
  -exchange      EXHF   =         0.00000000
  -V(xc)+E(xc)   XCENC  =       144.94683002
  PAW double counting   =      4658.17354051    -4645.74114429
  entropy T*S    EENTRO =        -0.11060143
  eigenvalues    EBANDS =      -630.60953876
  atomic energy  EATOM  =      1872.94269914
  Solvation  Ediel_sol  =         0.00000000
  ---------------------------------------------------
  free energy    TOTEN  =      -133.86647861 eV

  energy without entropy =     -133.75587718  energy(sigma->0) =     -133.81117789


--------------------------------------------------------------------------------------------------------




 average (electrostatic) potential at core
  the test charge radii are     1.1394  0.6991  0.5201  0.6991  0.5201
  (the norm of the test charge is              1.0000)
       1 -52.0917       2 -58.7705       3 -58.7336       4 -58.6645       5 -58.5810
       6 -58.6201       7 -41.9710       8 -42.0436       9 -42.1302      10 -42.0982
      11 -58.5996      12 -58.6896      13 -58.5918      14 -58.7767      15 -58.7163
      16 -42.0848      17 -42.0634      18 -42.1322      19 -41.9872      20 -41.9786
      21 -42.0005
 
 
 
 E-fermi :  -3.4794     XC(G=0):  -0.3649     alpha+bet : -0.1835


 k-point     1 :       0.0000    0.0000    0.0000
  band No.  band energies     occupation 
      1     -21.8713      2.00000
      2     -21.5070      2.00000
      3     -17.3672      2.00000
      4     -17.3639      2.00000
      5     -17.3025      2.00000
      6     -17.2982      2.00000
      7     -13.2039      2.00000
      8     -13.1625      2.00000
      9     -13.0533      2.00000
     10     -13.0298      2.00000
     11     -12.9157      2.00000
     12     -12.6628      2.00000
     13      -9.8998      2.00000
     14      -9.6606      2.00000
     15      -9.6327      2.00000
     16      -9.4519      2.00000
     17      -9.4388      2.00000
     18      -9.0059      2.00000
     19      -9.0018      2.00000
     20      -8.9328      2.00000
     21      -8.9052      2.00000
     22      -8.7545      2.00000
     23      -6.4327      2.00000
     24      -6.4280      2.00000
     25      -5.9291      2.00000
     26      -5.9160      2.00000
     27      -3.6946      1.99765
     28      -3.4954      1.17817
     29      -3.4637      0.82418
     30      -0.7980      0.00000
     31      -0.7752      0.00000
     32      -0.4389      0.00000
     33       0.0062      0.00000
     34       0.0113      0.00000
     35       0.1044      0.00000
     36       0.1888      0.00000
     37       0.3217      0.00000
     38       0.3731      0.00000
     39       0.4387      0.00000
     40       0.4505      0.00000


--------------------------------------------------------------------------------------------------------


 soft charge-density along one line, spin component           1
         0         1         2         3         4         5         6         7         8         9
 total charge-density along one line
 
 pseudopotential strength for first ion, spin component:           1
 -8.327  -0.116   0.094  -0.084   0.029  -8.695  -0.113   0.092
 -0.116  -8.424  -0.042  -0.022   0.064  -0.113  -8.789  -0.041
  0.094  -0.042  -8.472  -0.062   0.044   0.092  -0.041  -8.837
 -0.084  -0.022  -0.062  -8.441  -0.112  -0.082  -0.021  -0.061
  0.029   0.064   0.044  -0.112  -8.369   0.028   0.062   0.043
 -8.695  -0.113   0.092  -0.082   0.028  -9.025  -0.110   0.090
 -0.113  -8.789  -0.041  -0.021   0.062  -0.110  -9.117  -0.040
  0.092  -0.041  -8.837  -0.061   0.043   0.090  -0.040  -9.163
 -0.082  -0.021  -0.061  -8.806  -0.109  -0.080  -0.020  -0.059
  0.028   0.062   0.043  -0.109  -8.736   0.027   0.061   0.042
  0.018   0.024   0.017   0.037   0.008   0.018   0.024   0.017
  0.034   0.045   0.031   0.069   0.015   0.035   0.046   0.032
  0.000   0.000  -0.001   0.000   0.000   0.000   0.000  -0.001
  0.000  -0.001  -0.002  -0.000   0.001   0.000  -0.001  -0.002
  0.001   0.000  -0.001   0.001   0.001   0.001   0.000  -0.001
  0.002  -0.001  -0.001   0.000   0.000   0.002  -0.001  -0.001
  0.000  -0.000  -0.003   0.001   0.001   0.000  -0.000  -0.003
  0.001   0.000  -0.002  -0.000   0.002   0.001   0.000  -0.002
 total augmentation occupancy for first ion, spin component:           1
  2.214   1.073  -0.359   0.642   0.090  -1.895  -1.514   1.106  -0.516   0.187  -0.749   0.128  -0.045  -0.009  -0.023   0.001
  1.073   2.736   0.377   0.593  -0.421  -1.520  -2.777  -0.267  -0.004   0.964  -0.956   0.163   0.029   0.007  -0.003  -0.000
 -0.359   0.377   3.441   0.871  -0.269   1.104  -0.265  -4.009  -0.684   0.732  -0.970   0.166   0.020   0.090   0.052  -0.001
  0.642   0.593   0.871   3.908   1.256  -0.514  -0.009  -0.683  -3.333  -1.654  -2.061   0.352  -0.006  -0.036   0.004   0.001
  0.090  -0.421  -0.269   1.256   2.241   0.192   0.964   0.736  -1.660  -2.259  -0.646   0.110  -0.008  -0.020  -0.060   0.001
 -1.895  -1.520   1.104  -0.514   0.192   2.750   1.850  -1.552   0.246  -0.218   0.693  -0.126   0.058   0.012   0.030  -0.002
 -1.514  -2.777  -0.265  -0.009   0.964   1.850   3.659   0.129  -0.326  -1.543   0.878  -0.161  -0.038  -0.010   0.006   0.001
  1.106  -0.267  -4.009  -0.683   0.736  -1.552   0.129   5.453   0.485  -1.049   0.960  -0.170  -0.025  -0.114  -0.065   0.001
 -0.516  -0.004  -0.684  -3.333  -1.660   0.246  -0.326   0.485   3.879   2.002   2.028  -0.361   0.009   0.044  -0.005  -0.000
  0.187   0.964   0.732  -1.654  -2.259  -0.218  -1.543  -1.049   2.002   3.095   0.667  -0.116   0.008   0.025   0.078  -0.000
 -0.749  -0.956  -0.970  -2.061  -0.646   0.693   0.878   0.960   2.028   0.667   2.422  -0.376   0.008  -0.047   0.059  -0.000
  0.128   0.163   0.166   0.352   0.110  -0.126  -0.161  -0.170  -0.361  -0.116  -0.376   0.067  -0.001   0.006  -0.008   0.000
 -0.045   0.029   0.020  -0.006  -0.008   0.058  -0.038  -0.025   0.009   0.008   0.008  -0.001   0.331   0.022   0.019  -0.008
 -0.009   0.007   0.090  -0.036  -0.020   0.012  -0.010  -0.114   0.044   0.025  -0.047   0.006   0.022   0.443   0.089  -0.003
 -0.023  -0.003   0.052   0.004  -0.060   0.030   0.006  -0.065  -0.005   0.078   0.059  -0.008   0.019   0.089   0.405  -0.003
  0.001  -0.000  -0.001   0.001   0.001  -0.002   0.001   0.001  -0.000  -0.000  -0.000   0.000  -0.008  -0.003  -0.003   0.000
  0.000  -0.002  -0.005  -0.001   0.001   0.000   0.001   0.005  -0.001  -0.001   0.002  -0.000  -0.004  -0.015  -0.007   0.000
  0.002   0.001  -0.002   0.003   0.003  -0.002  -0.001   0.002  -0.001  -0.003  -0.003   0.000  -0.003  -0.007  -0.012   0.000


------------------------ aborting loop because EDIFF is reached ----------------------------------------


    CHARGE:  cpu time    0.2220: real time    0.2220
    FORLOC:  cpu time    0.1862: real time    0.1862
    FORNL :  cpu time    0.4562: real time    0.4562
    STRESS:  cpu time    1.4799: real time    1.4806
    FORCOR:  cpu time    1.2124: real time    1.2124
    FORHAR:  cpu time    0.4501: real time    0.4501
    MIXING:  cpu time    0.0307: real time    0.0307
    OFIELD:  cpu time    0.0000: real time    0.0000

  Number of pair interactions contributing to vdW energy:   16960
  Edisp (eV):   -0.49795
    FORVDW:  cpu time    0.0027: real time    0.0027

  FORCE on cell =-STRESS in cart. coord.  units (eV):
  Direction    XX          YY          ZZ          XY          YZ          ZX
  --------------------------------------------------------------------------------------
  Alpha Z     2.09028     2.09028     2.09028
  Ewald    1661.19268  1636.55104  1753.87005    72.29565    99.04186    93.77625
  Hartree  2180.40428  2032.43356  2374.23242   146.44145   193.83088   293.60611
  E(xc)    -206.56413  -205.54925  -207.34273    -0.55715    -0.71474    -1.57424
  Local   -4364.42316 -4170.42716 -4669.65635  -232.97704  -311.25449  -423.83926
  n-local   -73.66845   -75.53584   -72.37862     0.85563     1.06481     2.71094
  augment    25.85752    26.64315    24.99694    -0.70850    -0.89701    -1.57760
  Kinetic   773.50584   752.07443   792.67020    14.73276    19.00297    37.11653
  Fock        0.00000     0.00000     0.00000     0.00000     0.00000     0.00000
  vdW        -0.28726    -0.06855    -0.49581    -0.16303    -0.21121    -0.39630
  -------------------------------------------------------------------------------------
  Total      -1.89239    -1.78834    -2.01362    -0.08022    -0.13693    -0.17757
  in kB      -0.37899    -0.35815    -0.40327    -0.01607    -0.02742    -0.03556
  external pressure =       -0.38 kB  Pullay stress =        0.00 kB


 VOLUME and BASIS-vectors are now :
 -----------------------------------------------------------------------------
  energy-cutoff  :      400.00
  volume of cell :     8000.00
      direct lattice vectors                 reciprocal lattice vectors
    20.000000000  0.000000000  0.000000000     0.050000000  0.000000000  0.000000000
     0.000000000 20.000000000  0.000000000     0.000000000  0.050000000  0.000000000
     0.000000000  0.000000000 20.000000000     0.000000000  0.000000000  0.050000000

  length of vectors
    20.000000000 20.000000000 20.000000000     0.050000000  0.050000000  0.050000000


 FORCES acting on ions
    electron-ion (+dipol)            ewald-force                    non-local-force                 convergence-correction
 -----------------------------------------------------------------------------------------------
   0.200E+02 0.202E+01 -.161E+02   -.195E+02 -.194E+01 0.157E+02   -.503E+00 -.771E-01 0.419E+00   0.490E-02 -.169E-02 -.338E-02
   0.103E+03 -.143E+03 -.215E+03   -.103E+03 0.145E+03 0.219E+03   -.235E+00 -.200E+01 -.367E+01   0.150E-01 -.774E-02 -.136E-01
   -.603E+02 -.269E+03 -.269E+02   0.622E+02 0.273E+03 0.285E+02   -.192E+01 -.340E+01 -.155E+01   -.163E-02 -.176E-01 -.579E-02
   0.135E+02 0.120E+03 -.249E+03   -.125E+02 -.121E+03 0.253E+03   -.997E+00 0.940E+00 -.386E+01   0.388E-02 0.204E-02 -.192E-01
   -.210E+03 0.159E+03 -.817E+02   0.214E+03 -.161E+03 0.836E+02   -.330E+01 0.153E+01 -.178E+01   -.164E-01 0.842E-02 -.364E-02
   -.256E+03 -.852E+02 0.580E+02   0.260E+03 0.865E+02 -.577E+02   -.388E+01 -.129E+01 -.270E+00   -.169E-01 -.355E-02 0.447E-02
   -.625E+02 0.706E+02 -.861E+01   0.656E+02 -.755E+02 0.813E+01   -.310E+01 0.484E+01 0.491E+00   -.872E-03 -.257E-03 0.470E-03
   0.245E+02 0.556E+02 -.720E+02   -.268E+02 -.595E+02 0.755E+02   0.233E+01 0.392E+01 -.354E+01   -.924E-04 -.557E-03 -.377E-03
   0.595E+02 -.445E+02 -.575E+02   -.641E+02 0.469E+02 0.601E+02   0.456E+01 -.240E+01 -.264E+01   -.235E-03 0.121E-02 0.708E-03
   -.293E+01 -.930E+02 0.143E+02   0.230E+01 0.984E+02 -.162E+02   0.636E+00 -.541E+01 0.195E+01   0.456E-04 -.325E-05 -.101E-02
   0.171E+03 -.178E+03 0.125E+03   -.173E+03 0.180E+03 -.127E+03   0.261E+01 -.173E+01 0.257E+01   0.163E-01 -.746E-02 0.595E-02
   -.986E+02 0.189E+03 0.177E+03   0.989E+02 -.191E+03 -.180E+03   -.271E+00 0.245E+01 0.335E+01   -.109E-01 0.165E-01 0.790E-02
   -.621E+02 -.813E+02 0.256E+03   0.621E+02 0.819E+02 -.260E+03   -.726E-01 -.674E+00 0.402E+01   -.371E-02 -.252E-02 0.178E-01
   0.110E+03 0.256E+03 0.170E+01   -.112E+03 -.259E+03 -.338E+01   0.221E+01 0.319E+01 0.167E+01   0.118E-01 0.173E-01 -.170E-02
   0.274E+03 0.317E+02 -.312E+02   -.278E+03 -.324E+02 0.300E+02   0.390E+01 0.710E+00 0.116E+01   0.199E-01 0.243E-02 -.943E-02
   0.863E+02 0.261E+01 -.370E+02   -.910E+02 -.236E+01 0.404E+02   0.470E+01 -.251E+00 -.336E+01   -.119E-02 -.631E-03 0.356E-03
   -.565E+02 0.626E+02 0.426E+02   0.608E+02 -.661E+02 -.442E+02   -.435E+01 0.347E+01 0.159E+01   -.120E-03 0.339E-04 -.304E-03
   0.229E+02 0.875E+02 -.254E+02   -.235E+02 -.926E+02 0.281E+02   0.654E+00 0.510E+01 -.265E+01   0.885E-03 -.876E-03 0.781E-03
   0.482E+02 -.777E+02 0.242E+02   -.504E+02 0.830E+02 -.247E+02   0.225E+01 -.529E+01 0.501E+00   0.975E-03 -.217E-03 0.163E-04
   -.417E+02 -.407E+02 0.746E+02   0.451E+02 0.437E+02 -.782E+02   -.340E+01 -.297E+01 0.360E+01   -.657E-03 0.212E-03 0.107E-02
   -.795E+02 -.230E+02 0.459E+02   0.836E+02 0.240E+02 -.498E+02   -.413E+01 -.983E+00 0.392E+01   -.316E-03 0.341E-03 -.631E-05
 -----------------------------------------------------------------------------------------------
   0.230E+01 0.323E+00 -.189E+01   -.711E-13 0.163E-12 -.206E-12   -.232E+01 -.330E+00 0.191E+01   0.208E-01 0.539E-02 -.189E-01
 
 
 POSITION                                       TOTAL-FORCE (eV/Angst)
 -----------------------------------------------------------------------------------
     16.55715      3.20580     18.04705        -0.008889      0.000321     -0.003468
     16.67934      4.30661     19.95299        -0.005350     -0.003132      0.007363
     17.49721      4.93938     18.97630        -0.004924     -0.000954     -0.009426
     17.11980      2.95812      0.10721         0.001824     -0.008735      0.001628
     18.23255      2.74769     19.21642         0.007293      0.002777      0.004438
     18.46238      3.98708     18.51076         0.004860     -0.000845      0.000159
     18.81829      1.83619     19.12532         0.004326      0.001713     -0.003089
     16.68216      2.21937      0.77485         0.006281     -0.003122     -0.000208
     15.82145      4.75674      0.44838         0.001005     -0.004381      0.001126
     17.37787      5.95686     18.61095        -0.003185      0.004633      0.000924
     15.10940      3.75837     16.61374        -0.004663      0.000975      0.000592
     16.47040      1.89183     16.34391        -0.006557     -0.001851      0.007927
     16.30567      3.27034     15.96684        -0.000331     -0.001454      0.000038
     15.39071      1.53543     17.20391        -0.002261      0.001795      0.018232
     14.55545      2.67521     17.37637        -0.003902     -0.001565     -0.002664
     13.67079      2.72290     18.00816         0.006129      0.004407     -0.010374
     17.28658      1.23913     16.04372         0.004866     -0.006781      0.000708
     15.26773      0.57617     17.70322        -0.005374      0.010389     -0.006713
     14.68521      4.75508     16.51768         0.005095     -0.000348     -0.003698
     16.94446      3.82987     15.28801         0.006045      0.001933     -0.001793
     19.24039      4.17284     17.77422        -0.002289      0.004225     -0.001703
 -----------------------------------------------------------------------------------
    total drift:                                0.002110     -0.000710      0.002249


--------------------------------------------------------------------------------------------------------



  FREE ENERGIE OF THE ION-ELECTRON SYSTEM (eV)
  ---------------------------------------------------
  free  energy   TOTEN  =      -134.36443164 eV

  energy  without entropy=     -134.25383021  energy(sigma->0) =     -134.30913093
 
 d Force = 0.2161784E-04[ 0.150E-04, 0.282E-04]  d Energy =-0.3356383E-04 0.552E-04
 d Force = 0.9852664E-01[ 0.985E-01, 0.985E-01]  d Ewald  = 0.9852664E-01 0.382E-09


--------------------------------------------------------------------------------------------------------


    POTLOK:  cpu time    1.1272: real time    1.1272


--------------------------------------------------------------------------------------------------------


 stress matrix after NEB project (eV)
     -1.89239     -0.08022     -0.17757
     -0.08022     -1.78834     -0.13693
     -0.17757     -0.13693     -2.01362
  FORCES: max atom, RMS     0.018459    0.008851
  FORCE total and by dimension    0.040562    0.018232
  Stress total and by dimension    3.308689    2.013622
 Conjugate gradient step on ions:
 trial-energy change:    0.000034  1 .order   -0.000022   -0.000028   -0.000015
  (g-gl).g = 0.139E-03      g.g   = 0.159E-03  gl.gl    = 0.368E-03
 g(Force)  = 0.159E-03   g(Stress)= 0.000E+00 ortho     = 0.155E-04
 gamma     =   0.37764
 trial     =   0.17171
 opt step  =   0.36627  (harmonic =   0.36627) maximal distance =0.00039746
 next E    =  -134.364495   (d E  =  -0.00003)


--------------------------------------------------------------------------------------------------------


  
 reached required accuracy - stopping structural energy minimisation
     LOOP+:  cpu time   10.0786: real time   10.1002
    4ORBIT:  cpu time    0.0000: real time    0.0000

 total amount of memory used by VASP on root node   164524. kBytes
========================================================================

   base      :      30000. kBytes
   nonlr-proj:        563. kBytes
   fftplans  :      39607. kBytes
   grid      :      92223. kBytes
   one-center:         15. kBytes
   wavefun   :       2116. kBytes
 
  
  
 General timing and accounting informations for this job:
 ========================================================
  
                  Total CPU time used (sec):     2560.025
                            User time (sec):     2430.020
                          System time (sec):      130.005
                         Elapsed time (sec):     2602.388
  
                   Maximum memory used (kb):      243272.
                   Average memory used (kb):           0.
  
                          Minor page faults:     29365932
                          Major page faults:            0
                 Voluntary context switches:        12119
