<?xml version="1.0" encoding="ISO-8859-1"?>
<modeling>
 <generator>
  <i name="program" type="string">vasp </i>
  <i name="version" type="string">5.4.1  </i>
  <i name="subversion" type="string">05Feb16 (build Apr 21 2017 13:36:42) gamma-only                       parallel </i>
  <i name="platform" type="string">IFC91_ompi </i>
  <i name="date" type="string">2020 09 09 </i>
  <i name="time" type="string">00:54:32 </i>
 </generator>
 <incar>
  <i type="string" name="SYSTEM"> basalPlane</i>
  <i type="int" name="ISTART">     0</i>
  <i type="string" name="PREC">accurate  !=accurate, max(enmax) no wra</i>
  <i type="string" name="ALGO"> Normal    !=Normal, blocked Davidson it</i>
  <i type="int" name="NSIM">     4</i>
  <i type="int" name="ISPIN">     1</i>
  <i type="int" name="ICHARG">     2</i>
  <i type="int" name="INIWAV">     1</i>
  <i type="int" name="NELM">   200</i>
  <i type="int" name="NELMDL">    -5</i>
  <i type="int" name="NELMIN">     2</i>
  <i type="int" name="IBRION">     2</i>
  <i name="EDIFF">      0.00010000</i>
  <i name="EDIFFG">     -0.02000000</i>
  <i type="int" name="NSW"> 10000</i>
  <i type="int" name="ISIF">     2</i>
  <i type="int" name="ISYM">     2</i>
  <i name="ENCUT">    400.00000000</i>
  <i name="ENAUG">    645.00000000</i>
  <i type="string" name="LREAL"> Auto     !=Auto projection operators ev</i>
  <i type="logical" name="LPLANE"> T  </i>
  <i type="int" name="ISMEAR">     0</i>
  <i name="SIGMA">      0.10000000</i>
  <i type="int" name="NWRITE">     2</i>
  <i type="logical" name="LWAVE"> F  </i>
  <i type="logical" name="LCHARG"> F  </i>
  <i type="logical" name="LORBIT"> F  </i>
  <i type="logical" name="LELF"> F  </i>
  <i type="logical" name="LSCALU"> F  </i>
  <v type="int" name="KPOINT_BSE">    -1     0     0     0</v>
  <i type="int" name="NELM">   200</i>
 </incar>
 <kpoints>
  <varray name="kpointlist" >
   <v>       0.00000000       0.00000000       0.00000000 </v>
  </varray>
  <varray name="weights" >
   <v>       1.00000000 </v>
  </varray>
 </kpoints>
 <parameters>
  <separator name="general" >
   <i type="string" name="SYSTEM">basalPlane</i>
   <i type="logical" name="LCOMPAT"> F  </i>
  </separator>
  <separator name="electronic" >
   <i type="string" name="PREC">accura</i>
   <i name="ENMAX">    400.00000000</i>
   <i name="ENAUG">    645.00000000</i>
   <i name="EDIFF">      0.00010000</i>
   <i type="int" name="IALGO">    38</i>
   <i type="int" name="IWAVPR">    11</i>
   <i type="int" name="NBANDS">    40</i>
   <i name="NELECT">     56.00000000</i>
   <i type="int" name="TURBO">     0</i>
   <i type="int" name="IRESTART">     0</i>
   <i type="int" name="NREBOOT">     0</i>
   <i type="int" name="NMIN">     0</i>
   <i name="EREF">      0.00000000</i>
   <separator name="electronic smearing" >
    <i type="int" name="ISMEAR">     0</i>
    <i name="SIGMA">      0.10000000</i>
    <i name="KSPACING">      0.50000000</i>
    <i type="logical" name="KGAMMA"> T  </i>
   </separator>
   <separator name="electronic projectors" >
    <i type="logical" name="LREAL"> T  </i>
    <v name="ROPT">     -0.00025000     -0.00025000     -0.00025000     -0.00025000     -0.00025000</v>
    <i type="int" name="LMAXPAW">  -100</i>
    <i type="int" name="LMAXMIX">     2</i>
    <i type="logical" name="NLSPLINE"> F  </i>
   </separator>
   <separator name="electronic startup" >
    <i type="int" name="ISTART">     0</i>
    <i type="int" name="ICHARG">     2</i>
    <i type="int" name="INIWAV">     1</i>
   </separator>
   <separator name="electronic spin" >
    <i type="int" name="ISPIN">     1</i>
    <i type="logical" name="LNONCOLLINEAR"> F  </i>
    <v name="MAGMOM">      1.00000000      1.00000000      1.00000000      1.00000000      1.00000000      1.00000000      1.00000000      1.00000000      1.00000000      1.00000000      1.00000000      1.00000000      1.00000000      1.00000000      1.00000000      1.00000000      1.00000000      1.00000000      1.00000000      1.00000000
      1.00000000</v>
    <i name="NUPDOWN">     -1.00000000</i>
    <i type="logical" name="LSORBIT"> F  </i>
    <v name="SAXIS">      0.00000000      0.00000000      1.00000000</v>
    <i type="logical" name="LSPIRAL"> F  </i>
    <v name="QSPIRAL">      0.00000000      0.00000000      0.00000000</v>
    <i type="logical" name="LZEROZ"> F  </i>
   </separator>
   <separator name="electronic exchange-correlation" >
    <i type="logical" name="LASPH"> F  </i>
    <i type="logical" name="LMETAGGA"> F  </i>
   </separator>
   <separator name="electronic convergence" >
    <i type="int" name="NELM">   200</i>
    <i type="int" name="NELMDL">    -5</i>
    <i type="int" name="NELMIN">     2</i>
    <i name="ENINI">    400.00000000</i>
    <separator name="electronic convergence detail" >
     <i type="logical" name="LDIAG"> T  </i>
     <i type="logical" name="LSUBROT"> F  </i>
     <i name="WEIMIN">      0.00100000</i>
     <i name="EBREAK">      0.00000063</i>
     <i name="DEPER">      0.30000000</i>
     <i type="int" name="NRMM">     4</i>
     <i name="TIME">      0.40000000</i>
    </separator>
   </separator>
   <separator name="electronic mixer" >
    <i name="AMIX">      0.40000000</i>
    <i name="BMIX">      1.00000000</i>
    <i name="AMIN">      0.10000000</i>
    <i name="AMIX_MAG">      1.60000000</i>
    <i name="BMIX_MAG">      1.00000000</i>
    <separator name="electronic mixer details" >
     <i type="int" name="IMIX">     4</i>
     <i type="logical" name="MIXFIRST"> F  </i>
     <i type="int" name="MAXMIX">   -45</i>
     <i name="WC">    100.00000000</i>
     <i type="int" name="INIMIX">     1</i>
     <i type="int" name="MIXPRE">     1</i>
     <i type="int" name="MREMOVE">     5</i>
    </separator>
   </separator>
   <separator name="electronic dipolcorrection" >
    <i type="logical" name="LDIPOL"> F  </i>
    <i type="logical" name="LMONO"> F  </i>
    <i type="int" name="IDIPOL">     0</i>
    <i name="EPSILON">      1.00000000</i>
    <v name="DIPOL">   -100.00000000   -100.00000000   -100.00000000</v>
    <i name="EFIELD">      0.00000000</i>
   </separator>
  </separator>
  <separator name="grids" >
   <i type="int" name="NGX">   140</i>
   <i type="int" name="NGY">   140</i>
   <i type="int" name="NGZ">   140</i>
   <i type="int" name="NGXF">   280</i>
   <i type="int" name="NGYF">   280</i>
   <i type="int" name="NGZF">   280</i>
   <i type="logical" name="ADDGRID"> F  </i>
  </separator>
  <separator name="ionic" >
   <i type="int" name="NSW"> 10000</i>
   <i type="int" name="IBRION">     2</i>
   <i type="int" name="ISIF">     2</i>
   <i name="PSTRESS">      0.00000000</i>
   <i name="EDIFFG">     -0.02000000</i>
   <i type="int" name="NFREE">     1</i>
   <i name="POTIM">      0.50000000</i>
   <i name="SMASS">     -3.00000000</i>
   <i name="SCALEE">      1.00000000</i>
  </separator>
  <separator name="ionic md" >
   <i name="TEBEG">      0.00010000</i>
   <i name="TEEND">      0.00010000</i>
   <i type="int" name="NBLOCK">     1</i>
   <i type="int" name="KBLOCK"> 10000</i>
   <i type="int" name="NPACO">   256</i>
   <i name="APACO">     16.00000000</i>
  </separator>
  <separator name="symmetry" >
   <i type="int" name="ISYM">     2</i>
   <i name="SYMPREC">      0.00001000</i>
  </separator>
  <separator name="dos" >
   <i type="logical" name="LORBIT"> F  </i>
   <v name="RWIGS">     -1.00000000     -1.00000000     -1.00000000     -1.00000000     -1.00000000</v>
   <i type="int" name="NEDOS">   301</i>
   <i name="EMIN">     10.00000000</i>
   <i name="EMAX">    -10.00000000</i>
   <i name="EFERMI">      0.00000000</i>
  </separator>
  <separator name="writing" >
   <i type="int" name="NWRITE">     2</i>
   <i type="logical" name="LWAVE"> F  </i>
   <i type="logical" name="LCHARG"> F  </i>
   <i type="logical" name="LPARD"> F  </i>
   <i type="logical" name="LVTOT"> F  </i>
   <i type="logical" name="LVHAR"> F  </i>
   <i type="logical" name="LELF"> F  </i>
   <i type="logical" name="LOPTICS"> F  </i>
   <v name="STM">      0.00000000      0.00000000      0.00000000      0.00000000      0.00000000      0.00000000      0.00000000</v>
  </separator>
  <separator name="performance" >
   <i type="int" name="NPAR">     2</i>
   <i type="int" name="NSIM">     4</i>
   <i type="int" name="NBLK">    -1</i>
   <i type="logical" name="LPLANE"> T  </i>
   <i type="logical" name="LSCALAPACK"> T  </i>
   <i type="logical" name="LSCAAWARE"> F  </i>
   <i type="logical" name="LSCALU"> F  </i>
   <i type="logical" name="LASYNC"> F  </i>
   <i type="logical" name="LORBITALREAL"> F  </i>
  </separator>
  <separator name="miscellaneous" >
   <i type="int" name="IDIOT">     3</i>
   <i type="logical" name="LMUSIC"> F  </i>
   <v name="POMASS">     51.99600000     12.01100000      1.00000000     12.01100000      1.00000000</v>
   <v name="DARWINR">      0.00000000      0.00000000      0.00000000      0.00000000      0.00000000</v>
   <v name="DARWINV">      1.00000000      1.00000000      1.00000000      1.00000000      1.00000000</v>
   <i type="logical" name="LCORR"> T  </i>
  </separator>
  <i type="logical" name="GGA_COMPAT"> T  </i>
  <i type="logical" name="LBERRY"> F  </i>
  <i type="int" name="ICORELEVEL">     0</i>
  <i type="logical" name="LDAU"> F  </i>
  <i type="int" name="I_CONSTRAINED_M">     0</i>
  <separator name="electronic exchange-correlation" >
   <i type="string" name="GGA">--</i>
   <i type="int" name="VOSKOWN">     0</i>
   <i type="logical" name="LHFCALC"> F  </i>
   <i type="string" name="PRECFOCK"></i>
   <i type="logical" name="LSYMGRAD"> F  </i>
   <i type="logical" name="LHFONE"> F  </i>
   <i type="logical" name="LRHFCALC"> F  </i>
   <i type="logical" name="LTHOMAS"> F  </i>
   <i type="logical" name="LMODELHF"> F  </i>
   <i name="ENCUT4O">     -1.00000000</i>
   <i type="int" name="EXXOEP">     0</i>
   <i type="int" name="FOURORBIT">     0</i>
   <i name="AEXX">      0.00000000</i>
   <i name="HFALPHA">      0.00000000</i>
   <i name="MCALPHA">      0.00000000</i>
   <i name="ALDAX">      1.00000000</i>
   <i name="AGGAX">      1.00000000</i>
   <i name="ALDAC">      1.00000000</i>
   <i name="AGGAC">      1.00000000</i>
   <i type="int" name="NKREDX">     1</i>
   <i type="int" name="NKREDY">     1</i>
   <i type="int" name="NKREDZ">     1</i>
   <i type="logical" name="SHIFTRED"> F  </i>
   <i type="logical" name="ODDONLY"> F  </i>
   <i type="logical" name="EVENONLY"> F  </i>
   <i type="int" name="LMAXFOCK">     0</i>
   <i type="int" name="NMAXFOCKAE">     0</i>
   <i type="logical" name="LFOCKAEDFT"> F  </i>
   <i name="HFSCREEN">      0.00000000</i>
   <i name="HFSCREENC">      0.00000000</i>
   <i type="int" name="NBANDSGWLOW">     0</i>
  </separator>
  <separator name="vdW DFT" >
   <i type="logical" name="LUSE_VDW"> F  </i>
   <i name="Zab_VDW">     -0.84910000</i>
   <i name="PARAM1">      0.12340000</i>
   <i name="PARAM2">      1.00000000</i>
   <i name="PARAM3">      0.00000000</i>
  </separator>
  <separator name="model GW" >
   <i type="int" name="MODEL_GW">     0</i>
   <i name="MODEL_EPS0">    228.57142857</i>
   <i name="MODEL_ALPHA">      1.00000000</i>
  </separator>
  <separator name="linear response parameters" >
   <i type="logical" name="LEPSILON"> F  </i>
   <i type="logical" name="LRPA"> F  </i>
   <i type="logical" name="LNABLA"> F  </i>
   <i type="logical" name="LVEL"> F  </i>
   <i type="int" name="KINTER">     0</i>
   <i name="CSHIFT">      0.10000000</i>
   <i name="OMEGAMAX">     -1.00000000</i>
   <i name="DEG_THRESHOLD">      0.00200000</i>
  </separator>
  <separator name="orbital magnetization" >
   <i type="logical" name="NUCIND"> F  </i>
   <v name="MAGPOS">      0.00000000      0.00000000      0.00000000</v>
   <i type="logical" name="LNICSALL"> T  </i>
   <i type="logical" name="ORBITALMAG"> F  </i>
   <i type="logical" name="LMAGBLOCH"> F  </i>
   <i type="logical" name="LCHIMAG"> F  </i>
   <i type="logical" name="LGAUGE"> T  </i>
   <i type="int" name="MAGATOM">     0</i>
   <v name="MAGDIPOL">      0.00000000      0.00000000      0.00000000</v>
   <v name="AVECCONST">      0.00000000      0.00000000      0.00000000</v>
  </separator>
  <separator name="response functions" >
   <i type="logical" name="LADDER"> F  </i>
   <i type="logical" name="LFXC"> F  </i>
   <i type="logical" name="LHARTREE"> T  </i>
   <i type="int" name="IBSE">     0</i>
   <v type="int" name="KPOINT">    -1     0     0     0</v>
   <i type="logical" name="LTCTE"> F  </i>
   <i type="logical" name="LTETE"> F  </i>
   <i type="logical" name="LTRIPLET"> F  </i>
   <i type="logical" name="LFXCEPS"> F  </i>
   <i type="logical" name="LFXHEG"> F  </i>
   <i type="int" name="NATURALO">     0</i>
   <i type="logical" name="L2ORDER"> F  </i>
   <i type="logical" name="LUSEW"> F  </i>
   <i name="ENCUTGW">     -2.00000000</i>
   <i name="ENCUTGWSOFT">     -2.00000000</i>
   <i name="ENCUTLF">     -1.00000000</i>
   <i type="int" name="LMAXMP2">    -1</i>
   <i name="SCISSOR">      0.00000000</i>
   <i type="int" name="NOMEGA">     0</i>
   <i type="int" name="NOMEGAR">     0</i>
   <i type="int" name="NBANDSGW">    -1</i>
   <i type="int" name="NBANDSO">    -1</i>
   <i type="int" name="NBANDSV">    -1</i>
   <i type="int" name="NELM">   200</i>
   <i type="int" name="NELMHF">     1</i>
   <i type="int" name="DIM">     3</i>
   <i type="int" name="ANTIRES">     0</i>
   <i name="OMEGAMAX">    -30.00000000</i>
   <i name="OMEGAMIN">    -30.00000000</i>
   <i name="OMEGATL">   -200.00000000</i>
   <i type="int" name="OMEGAGRID">     0</i>
   <i name="CSHIFT">     -0.10000000</i>
   <i type="logical" name="SELFENERGY"> F  </i>
   <i type="logical" name="LSPECTRAL"> F  </i>
   <i type="logical" name="LSPECTRALGW"> F  </i>
   <i type="logical" name="LSINGLES"> F  </i>
   <i type="logical" name="LFERMIGW"> F  </i>
   <i type="logical" name="ODDONLYGW"> F  </i>
   <i type="logical" name="EVENONLYGW"> F  </i>
   <i type="int" name="NKREDLFX">     1</i>
   <i type="int" name="NKREDLFY">     1</i>
   <i type="int" name="NKREDLFZ">     1</i>
   <i type="int" name="MAXMEM">  1800</i>
   <i type="int" name="TELESCOPE">     0</i>
   <i type="int" name="TAUPAR">     1</i>
   <i type="int" name="OMEGAPAR">    -1</i>
   <i name="LAMBDA">      1.00000000</i>
  </separator>
  <separator name="External order field" >
   <i name="OFIELD_KAPPA">      0.00000000</i>
   <v name="OFIELD_K">      0.00000000      0.00000000      0.00000000</v>
   <i name="OFIELD_Q6_NEAR">      0.00000000</i>
   <i name="OFIELD_Q6_FAR">      0.00000000</i>
   <i name="OFIELD_A">      0.00000000</i>
  </separator>
 </parameters>
 <atominfo>
  <atoms>      21 </atoms>
  <types>       5 </types>
  <array name="atoms" >
   <dimension dim="1">ion</dimension>
   <field type="string">element</field>
   <field type="int">atomtype</field>
   <set>
    <rc><c>Cr</c><c>   1</c></rc>
    <rc><c>C </c><c>   2</c></rc>
    <rc><c>C </c><c>   2</c></rc>
    <rc><c>C </c><c>   2</c></rc>
    <rc><c>C </c><c>   2</c></rc>
    <rc><c>C </c><c>   2</c></rc>
    <rc><c>H </c><c>   3</c></rc>
    <rc><c>H </c><c>   3</c></rc>
    <rc><c>H </c><c>   3</c></rc>
    <rc><c>H </c><c>   3</c></rc>
    <rc><c>C </c><c>   4</c></rc>
    <rc><c>C </c><c>   4</c></rc>
    <rc><c>C </c><c>   4</c></rc>
    <rc><c>C </c><c>   4</c></rc>
    <rc><c>C </c><c>   4</c></rc>
    <rc><c>H </c><c>   5</c></rc>
    <rc><c>H </c><c>   5</c></rc>
    <rc><c>H </c><c>   5</c></rc>
    <rc><c>H </c><c>   5</c></rc>
    <rc><c>H </c><c>   5</c></rc>
    <rc><c>H </c><c>   5</c></rc>
   </set>
  </array>
  <array name="atomtypes" >
   <dimension dim="1">type</dimension>
   <field type="int">atomspertype</field>
   <field type="string">element</field>
   <field>mass</field>
   <field>valence</field>
   <field type="string">pseudopotential</field>
   <set>
    <rc><c>   1</c><c>Cr</c><c>     51.99600000</c><c>      6.00000000</c><c>  PAW_PBE Cr 06Sep2000                  </c></rc>
    <rc><c>   5</c><c>C </c><c>     12.01100000</c><c>      4.00000000</c><c>  PAW_PBE C 08Apr2002                   </c></rc>
    <rc><c>   4</c><c>H </c><c>      1.00000000</c><c>      1.00000000</c><c>  PAW_PBE H 15Jun2001                   </c></rc>
    <rc><c>   5</c><c>C </c><c>     12.01100000</c><c>      4.00000000</c><c>  PAW_PBE C 08Apr2002                   </c></rc>
    <rc><c>   6</c><c>H </c><c>      1.00000000</c><c>      1.00000000</c><c>  PAW_PBE H 15Jun2001                   </c></rc>
   </set>
  </array>
 </atominfo>
 <structure name="initialpos" >
  <crystal>
   <varray name="basis" >
    <v>      20.00000000       0.00000000       0.00000000 </v>
    <v>       0.00000000      20.00000000       0.00000000 </v>
    <v>       0.00000000       0.00000000      20.00000000 </v>
   </varray>
   <i name="volume">   8000.00000000 </i>
   <varray name="rec_basis" >
    <v>       0.05000000       0.00000000       0.00000000 </v>
    <v>       0.00000000       0.05000000       0.00000000 </v>
    <v>       0.00000000       0.00000000       0.05000000 </v>
   </varray>
  </crystal>
  <varray name="positions" >
   <v>       0.82730000       0.15925000       0.89830000 </v>
   <v>       0.79305000       0.21920000       0.99000000 </v>
   <v>       0.86010000       0.26965000       0.92200000 </v>
   <v>       0.83180000       0.12030000       0.01030000 </v>
   <v>       0.91815000       0.10645000       0.94690000 </v>
   <v>       0.93645000       0.19865000       0.89320000 </v>
   <v>       0.93105000       0.05665000       0.92685000 </v>
   <v>       0.79660000       0.07870000       0.01750000 </v>
   <v>       0.74895000       0.24000000       0.01665000 </v>
   <v>       0.83435000       0.29770000       0.88170000 </v>
   <v>       0.75390000       0.22270000       0.83975000 </v>
   <v>       0.85830000       0.08270000       0.81950000 </v>
   <v>       0.84180000       0.18520000       0.78830000 </v>
   <v>       0.78015000       0.05665000       0.89005000 </v>
   <v>       0.71470000       0.14245000       0.90135000 </v>
   <v>       0.69355000       0.15610000       0.95050000 </v>
   <v>       0.90970000       0.06380000       0.82550000 </v>
   <v>       0.78825000       0.02100000       0.93155000 </v>
   <v>       0.75550000       0.27435000       0.85925000 </v>
   <v>       0.88615000       0.21760000       0.78210000 </v>
   <v>       0.94895000       0.19795000       0.83925000 </v>
  </varray>
 </structure>
 <calculation>
  <scstep>
   <time name="dav">    1.41    1.41</time>
   <time name="total">    2.56    2.56</time>
   <energy>
    <i name="alphaZ">      2.09028485 </i>
    <i name="ewald">   4110.86906953 </i>
    <i name="hartreedc">  -5509.64448446 </i>
    <i name="XCdc">    122.14928969 </i>
    <i name="pawpsdc">   1384.21572508 </i>
    <i name="pawaedc">  -1370.22559281 </i>
    <i name="eentropy">     -0.04182577 </i>
    <i name="bandstr">   -204.70570581 </i>
    <i name="atom">   1872.94269914 </i>
    <i name="e_fr_energy">    407.64945944 </i>
    <i name="e_wo_entrp">    407.69128521 </i>
    <i name="e_0_energy">    407.67037233 </i>
   </energy>
  </scstep>
  <scstep>
   <time name="dav">    1.95    1.95</time>
   <time name="total">    1.96    1.96</time>
   <energy>
    <i name="e_fr_energy">    106.77941779 </i>
    <i name="e_wo_entrp">    106.77987358 </i>
    <i name="e_0_energy">    106.77964568 </i>
   </energy>
  </scstep>
  <scstep>
   <time name="dav">    1.75    1.75</time>
   <time name="total">    1.76    1.76</time>
   <energy>
    <i name="e_fr_energy">    -70.65855954 </i>
    <i name="e_wo_entrp">    -70.59597303 </i>
    <i name="e_0_energy">    -70.62726628 </i>
   </energy>
  </scstep>
  <scstep>
   <time name="dav">    1.94    1.94</time>
   <time name="total">    1.95    1.95</time>
   <energy>
    <i name="e_fr_energy">   -107.97904928 </i>
    <i name="e_wo_entrp">   -107.97893355 </i>
    <i name="e_0_energy">   -107.97899142 </i>
   </energy>
  </scstep>
  <scstep>
   <time name="dav">    1.66    1.66</time>
   <time name="total">    1.93    1.97</time>
   <energy>
    <i name="e_fr_energy">   -109.20118404 </i>
    <i name="e_wo_entrp">   -109.20117234 </i>
    <i name="e_0_energy">   -109.20117819 </i>
   </energy>
  </scstep>
  <scstep>
   <time name="dav">    1.94    1.94</time>
   <time name="total">    3.29    3.30</time>
   <energy>
    <i name="e_fr_energy">   -153.82142980 </i>
    <i name="e_wo_entrp">   -153.82142980 </i>
    <i name="e_0_energy">   -153.82142980 </i>
   </energy>
  </scstep>
  <scstep>
   <time name="dav">    1.64    1.64</time>
   <time name="total">    2.99    2.99</time>
   <energy>
    <i name="e_fr_energy">   -133.42412687 </i>
    <i name="e_wo_entrp">   -133.42412687 </i>
    <i name="e_0_energy">   -133.42412687 </i>
   </energy>
  </scstep>
  <scstep>
   <time name="dav">    1.94    1.94</time>
   <time name="total">    3.27    3.27</time>
   <energy>
    <i name="e_fr_energy">   -100.82374720 </i>
    <i name="e_wo_entrp">   -100.82351291 </i>
    <i name="e_0_energy">   -100.82363006 </i>
   </energy>
  </scstep>
  <scstep>
   <time name="dav">    2.29    2.32</time>
   <time name="total">    3.63    3.66</time>
   <energy>
    <i name="e_fr_energy">    -98.04150436 </i>
    <i name="e_wo_entrp">    -98.04127948 </i>
    <i name="e_0_energy">    -98.04139192 </i>
   </energy>
  </scstep>
  <scstep>
   <time name="dav">    1.74    1.86</time>
   <time name="total">    3.04    3.22</time>
   <energy>
    <i name="e_fr_energy">    -98.11285117 </i>
    <i name="e_wo_entrp">    -98.11093080 </i>
    <i name="e_0_energy">    -98.11189098 </i>
   </energy>
  </scstep>
  <scstep>
   <time name="dav">    2.03    2.04</time>
   <time name="total">    3.34    3.40</time>
   <energy>
    <i name="e_fr_energy">    -97.97671124 </i>
    <i name="e_wo_entrp">    -97.97594347 </i>
    <i name="e_0_energy">    -97.97632735 </i>
   </energy>
  </scstep>
  <scstep>
   <time name="dav">    1.84    1.84</time>
   <time name="total">    3.18    3.59</time>
   <energy>
    <i name="e_fr_energy">    -97.83447722 </i>
    <i name="e_wo_entrp">    -97.82807855 </i>
    <i name="e_0_energy">    -97.83127788 </i>
   </energy>
  </scstep>
  <scstep>
   <time name="dav">    1.84    1.84</time>
   <time name="total">    3.19    3.19</time>
   <energy>
    <i name="e_fr_energy">    -97.81718444 </i>
    <i name="e_wo_entrp">    -97.79555984 </i>
    <i name="e_0_energy">    -97.80637214 </i>
   </energy>
  </scstep>
  <scstep>
   <time name="dav">    1.84    1.84</time>
   <time name="total">    3.19    3.19</time>
   <energy>
    <i name="e_fr_energy">    -97.80484862 </i>
    <i name="e_wo_entrp">    -97.79054110 </i>
    <i name="e_0_energy">    -97.79769486 </i>
   </energy>
  </scstep>
  <scstep>
   <time name="dav">    1.74    1.74</time>
   <time name="total">    3.09    3.10</time>
   <energy>
    <i name="e_fr_energy">    -97.80081346 </i>
    <i name="e_wo_entrp">    -97.78909146 </i>
    <i name="e_0_energy">    -97.79495246 </i>
   </energy>
  </scstep>
  <scstep>
   <time name="dav">    1.94    1.94</time>
   <time name="total">    3.30    3.30</time>
   <energy>
    <i name="e_fr_energy">    -97.79746208 </i>
    <i name="e_wo_entrp">    -97.78824836 </i>
    <i name="e_0_energy">    -97.79285522 </i>
   </energy>
  </scstep>
  <scstep>
   <time name="dav">    1.84    1.84</time>
   <time name="total">    3.20    3.20</time>
   <energy>
    <i name="e_fr_energy">    -97.80098292 </i>
    <i name="e_wo_entrp">    -97.79198640 </i>
    <i name="e_0_energy">    -97.79648466 </i>
   </energy>
  </scstep>
  <scstep>
   <time name="dav">    1.94    1.94</time>
   <time name="total">    3.30    3.30</time>
   <energy>
    <i name="e_fr_energy">    -97.80717637 </i>
    <i name="e_wo_entrp">    -97.80111567 </i>
    <i name="e_0_energy">    -97.80414602 </i>
   </energy>
  </scstep>
  <scstep>
   <time name="dav">    1.95    1.95</time>
   <time name="total">    3.34    3.34</time>
   <energy>
    <i name="e_fr_energy">    -97.81245567 </i>
    <i name="e_wo_entrp">    -97.80835056 </i>
    <i name="e_0_energy">    -97.81040311 </i>
   </energy>
  </scstep>
  <scstep>
   <time name="dav">    1.75    1.75</time>
   <time name="total">    3.12    3.12</time>
   <energy>
    <i name="e_fr_energy">    -97.81638621 </i>
    <i name="e_wo_entrp">    -97.81293335 </i>
    <i name="e_0_energy">    -97.81465978 </i>
   </energy>
  </scstep>
  <scstep>
   <time name="dav">    1.55    1.55</time>
   <time name="total">    2.92    2.92</time>
   <energy>
    <i name="e_fr_energy">    -97.81977436 </i>
    <i name="e_wo_entrp">    -97.81649024 </i>
    <i name="e_0_energy">    -97.81813230 </i>
   </energy>
  </scstep>
  <scstep>
   <time name="dav">    1.15    1.15</time>
   <time name="total">    2.52    2.53</time>
   <energy>
    <i name="e_fr_energy">    -97.82090938 </i>
    <i name="e_wo_entrp">    -97.81737747 </i>
    <i name="e_0_energy">    -97.81914343 </i>
   </energy>
  </scstep>
  <scstep>
   <time name="dav">    1.55    1.55</time>
   <time name="total">    2.92    2.92</time>
   <energy>
    <i name="e_fr_energy">    -97.82251334 </i>
    <i name="e_wo_entrp">    -97.81875391 </i>
    <i name="e_0_energy">    -97.82063363 </i>
   </energy>
  </scstep>
  <scstep>
   <time name="dav">    1.25    1.25</time>
   <time name="total">    2.62    2.62</time>
   <energy>
    <i name="e_fr_energy">    -97.82427646 </i>
    <i name="e_wo_entrp">    -97.82032517 </i>
    <i name="e_0_energy">    -97.82230082 </i>
   </energy>
  </scstep>
  <scstep>
   <time name="dav">    1.15    1.15</time>
   <time name="total">    2.52    2.52</time>
   <energy>
    <i name="e_fr_energy">    -97.82506435 </i>
    <i name="e_wo_entrp">    -97.82116460 </i>
    <i name="e_0_energy">    -97.82311448 </i>
   </energy>
  </scstep>
  <scstep>
   <time name="dav">    0.96    0.96</time>
   <time name="total">    2.32    2.33</time>
   <energy>
    <i name="e_fr_energy">    -97.82533802 </i>
    <i name="e_wo_entrp">    -97.82141054 </i>
    <i name="e_0_energy">    -97.82337428 </i>
   </energy>
  </scstep>
  <scstep>
   <time name="dav">    1.15    1.15</time>
   <time name="total">    2.52    2.52</time>
   <energy>
    <i name="e_fr_energy">    -97.82572923 </i>
    <i name="e_wo_entrp">    -97.82177746 </i>
    <i name="e_0_energy">    -97.82375335 </i>
   </energy>
  </scstep>
  <scstep>
   <time name="dav">    0.95    0.95</time>
   <time name="total">    2.33    2.34</time>
   <energy>
    <i name="e_fr_energy">    -97.82583147 </i>
    <i name="e_wo_entrp">    -97.82185203 </i>
    <i name="e_0_energy">    -97.82384175 </i>
   </energy>
  </scstep>
  <scstep>
   <time name="dav">    0.85    0.85</time>
   <time name="total">    1.94    1.94</time>
   <energy>
    <i name="alphaZ">      2.09028485 </i>
    <i name="ewald">   4110.86906953 </i>
    <i name="hartreedc">  -5630.47680717 </i>
    <i name="XCdc">    128.13933281 </i>
    <i name="pawpsdc">   2352.25689625 </i>
    <i name="pawaedc">  -2338.09759079 </i>
    <i name="eentropy">     -0.00400190 </i>
    <i name="bandstr">   -595.54576698 </i>
    <i name="atom">   1872.94269914 </i>
    <i name="e_fr_energy">    -97.82588426 </i>
    <i name="e_wo_entrp">    -97.82188236 </i>
    <i name="e_0_energy">    -97.82388331 </i>
   </energy>
  </scstep>
  <structure>
   <crystal>
    <varray name="basis" >
     <v>      20.00000000       0.00000000       0.00000000 </v>
     <v>       0.00000000      20.00000000       0.00000000 </v>
     <v>       0.00000000       0.00000000      20.00000000 </v>
    </varray>
    <i name="volume">   8000.00000000 </i>
    <varray name="rec_basis" >
     <v>       0.05000000       0.00000000       0.00000000 </v>
     <v>       0.00000000       0.05000000       0.00000000 </v>
     <v>       0.00000000       0.00000000       0.05000000 </v>
    </varray>
   </crystal>
   <varray name="positions" >
    <v>       0.82730000       0.15925000       0.89830000 </v>
    <v>       0.79305000       0.21920000       0.99000000 </v>
    <v>       0.86010000       0.26965000       0.92200000 </v>
    <v>       0.83180000       0.12030000       0.01030000 </v>
    <v>       0.91815000       0.10645000       0.94690000 </v>
    <v>       0.93645000       0.19865000       0.89320000 </v>
    <v>       0.93105000       0.05665000       0.92685000 </v>
    <v>       0.79660000       0.07870000       0.01750000 </v>
    <v>       0.74895000       0.24000000       0.01665000 </v>
    <v>       0.83435000       0.29770000       0.88170000 </v>
    <v>       0.75390000       0.22270000       0.83975000 </v>
    <v>       0.85830000       0.08270000       0.81950000 </v>
    <v>       0.84180000       0.18520000       0.78830000 </v>
    <v>       0.78015000       0.05665000       0.89005000 </v>
    <v>       0.71470000       0.14245000       0.90135000 </v>
    <v>       0.69355000       0.15610000       0.95050000 </v>
    <v>       0.90970000       0.06380000       0.82550000 </v>
    <v>       0.78825000       0.02100000       0.93155000 </v>
    <v>       0.75550000       0.27435000       0.85925000 </v>
    <v>       0.88615000       0.21760000       0.78210000 </v>
    <v>       0.94895000       0.19795000       0.83925000 </v>
   </varray>
  </structure>
  <varray name="forces" >
   <v>      -1.34940245      -0.80319469      -0.39739838 </v>
   <v>       4.29682305      -3.24061043      -3.52742394 </v>
   <v>       0.98371904      -4.41098477       2.23150505 </v>
   <v>       2.80844601       3.80539344      -2.89167703 </v>
   <v>      -3.51415643       4.80617415       0.09467700 </v>
   <v>      -4.02986268      -0.75400038       3.69917557 </v>
   <v>       0.05335430       0.26360385       0.22530416 </v>
   <v>       0.00555816       0.05516942      -0.13210222 </v>
   <v>       0.59857279      -0.03794098      -0.06306241 </v>
   <v>       0.51219350      -0.16139085       0.14883142 </v>
   <v>       2.28223921      -4.96181174       0.36255087 </v>
   <v>      -3.97586682       3.48578517       1.99932118 </v>
   <v>      -2.98902159      -2.69003036       3.65182777 </v>
   <v>       0.93191827       5.42253157      -1.86722830 </v>
   <v>       4.24775330      -0.03923097      -2.91457233 </v>
   <v>       0.04049395      -0.21510497      -0.22917500 </v>
   <v>      -0.21229961       0.04936381      -0.15273012 </v>
   <v>      -0.07632599       0.05293602      -0.41625320 </v>
   <v>      -0.40166834      -0.33224880      -0.15056424 </v>
   <v>      -0.42550441      -0.05316256      -0.17209167 </v>
   <v>       0.21303672      -0.24124593       0.50108582 </v>
  </varray>
  <varray name="stress" >
   <v>      -7.42335792       2.26633993       4.88117255 </v>
   <v>       2.26633993     -10.18037852       2.22952297 </v>
   <v>       4.88117255       2.22952297      -5.33241113 </v>
  </varray>
  <energy>
   <i name="e_fr_energy">    -98.55499940 </i>
   <i name="e_wo_entrp">    -98.55299845 </i>
   <i name="e_0_energy">     -0.00400190 </i>
  </energy>
  <time name="totalsc">   87.14   88.15</time>
 </calculation>
 <calculation>
  <scstep>
   <time name="dav">    1.35    1.35</time>
   <time name="total">    2.70    2.70</time>
   <energy>
    <i name="alphaZ">      2.09028485 </i>
    <i name="ewald">   4592.29830195 </i>
    <i name="hartreedc">  -6108.20588454 </i>
    <i name="XCdc">    130.17037195 </i>
    <i name="pawpsdc">   2352.26158282 </i>
    <i name="pawaedc">  -2338.10232431 </i>
    <i name="eentropy">     -0.00836098 </i>
    <i name="bandstr">   -602.65671843 </i>
    <i name="atom">   1872.94269914 </i>
    <i name="e_fr_energy">    -99.21004755 </i>
    <i name="e_wo_entrp">    -99.20168658 </i>
    <i name="e_0_energy">    -99.20586707 </i>
   </energy>
  </scstep>
  <scstep>
   <time name="dav">    2.04    2.04</time>
   <time name="total">    3.35    3.97</time>
   <energy>
    <i name="e_fr_energy">   -118.88038041 </i>
    <i name="e_wo_entrp">   -118.88038041 </i>
    <i name="e_0_energy">   -118.88038041 </i>
   </energy>
  </scstep>
  <scstep>
   <time name="dav">    1.84    1.84</time>
   <time name="total">    3.19    3.19</time>
   <energy>
    <i name="e_fr_energy">   -108.90713472 </i>
    <i name="e_wo_entrp">   -108.90359214 </i>
    <i name="e_0_energy">   -108.90536343 </i>
   </energy>
  </scstep>
  <scstep>
   <time name="dav">    1.95    1.95</time>
   <time name="total">    3.25    3.26</time>
   <energy>
    <i name="e_fr_energy">   -110.19426507 </i>
    <i name="e_wo_entrp">   -110.19426507 </i>
    <i name="e_0_energy">   -110.19426507 </i>
   </energy>
  </scstep>
  <scstep>
   <time name="dav">    1.94    1.94</time>
   <time name="total">    3.25    3.25</time>
   <energy>
    <i name="e_fr_energy">   -108.18355478 </i>
    <i name="e_wo_entrp">   -108.17661153 </i>
    <i name="e_0_energy">   -108.18008316 </i>
   </energy>
  </scstep>
  <scstep>
   <time name="dav">    1.95    1.95</time>
   <time name="total">    3.26    3.27</time>
   <energy>
    <i name="e_fr_energy">   -108.23243934 </i>
    <i name="e_wo_entrp">   -108.22828444 </i>
    <i name="e_0_energy">   -108.23036189 </i>
   </energy>
  </scstep>
  <scstep>
   <time name="dav">    1.94    1.94</time>
   <time name="total">    3.26    3.27</time>
   <energy>
    <i name="e_fr_energy">   -108.23216188 </i>
    <i name="e_wo_entrp">   -108.21661461 </i>
    <i name="e_0_energy">   -108.22438825 </i>
   </energy>
  </scstep>
  <scstep>
   <time name="dav">    1.75    1.75</time>
   <time name="total">    3.08    3.09</time>
   <energy>
    <i name="e_fr_energy">   -108.23284240 </i>
    <i name="e_wo_entrp">   -108.21687289 </i>
    <i name="e_0_energy">   -108.22485765 </i>
   </energy>
  </scstep>
  <scstep>
   <time name="dav">    1.95    1.95</time>
   <time name="total">    3.27    3.28</time>
   <energy>
    <i name="e_fr_energy">   -108.22923954 </i>
    <i name="e_wo_entrp">   -108.21670720 </i>
    <i name="e_0_energy">   -108.22297337 </i>
   </energy>
  </scstep>
  <scstep>
   <time name="dav">    1.94    1.94</time>
   <time name="total">    3.27    3.27</time>
   <energy>
    <i name="e_fr_energy">   -108.22754988 </i>
    <i name="e_wo_entrp">   -108.21700614 </i>
    <i name="e_0_energy">   -108.22227801 </i>
   </energy>
  </scstep>
  <scstep>
   <time name="dav">    1.94    1.94</time>
   <time name="total">    3.27    3.28</time>
   <energy>
    <i name="e_fr_energy">   -108.22742863 </i>
    <i name="e_wo_entrp">   -108.21815663 </i>
    <i name="e_0_energy">   -108.22279263 </i>
   </energy>
  </scstep>
  <scstep>
   <time name="dav">    1.35    1.35</time>
   <time name="total">    2.68    2.69</time>
   <energy>
    <i name="e_fr_energy">   -108.22787916 </i>
    <i name="e_wo_entrp">   -108.21801024 </i>
    <i name="e_0_energy">   -108.22294470 </i>
   </energy>
  </scstep>
  <scstep>
   <time name="dav">    1.25    1.25</time>
   <time name="total">    2.59    2.59</time>
   <energy>
    <i name="e_fr_energy">   -108.22835736 </i>
    <i name="e_wo_entrp">   -108.21891161 </i>
    <i name="e_0_energy">   -108.22363448 </i>
   </energy>
  </scstep>
  <scstep>
   <time name="dav">    1.35    1.35</time>
   <time name="total">    2.68    2.72</time>
   <energy>
    <i name="e_fr_energy">   -108.22895548 </i>
    <i name="e_wo_entrp">   -108.21939268 </i>
    <i name="e_0_energy">   -108.22417408 </i>
   </energy>
  </scstep>
  <scstep>
   <time name="dav">    1.35    1.35</time>
   <time name="total">    2.69    2.70</time>
   <energy>
    <i name="e_fr_energy">   -108.22935827 </i>
    <i name="e_wo_entrp">   -108.21993172 </i>
    <i name="e_0_energy">   -108.22464500 </i>
   </energy>
  </scstep>
  <scstep>
   <time name="dav">    1.25    1.25</time>
   <time name="total">    2.60    2.60</time>
   <energy>
    <i name="e_fr_energy">   -108.22975913 </i>
    <i name="e_wo_entrp">   -108.22033695 </i>
    <i name="e_0_energy">   -108.22504804 </i>
   </energy>
  </scstep>
  <scstep>
   <time name="dav">    1.25    1.25</time>
   <time name="total">    2.60    2.60</time>
   <energy>
    <i name="e_fr_energy">   -108.22994299 </i>
    <i name="e_wo_entrp">   -108.22044407 </i>
    <i name="e_0_energy">   -108.22519353 </i>
   </energy>
  </scstep>
  <scstep>
   <time name="dav">    1.35    1.35</time>
   <time name="total">    2.71    2.71</time>
   <energy>
    <i name="e_fr_energy">   -108.23010763 </i>
    <i name="e_wo_entrp">   -108.22051008 </i>
    <i name="e_0_energy">   -108.22530885 </i>
   </energy>
  </scstep>
  <scstep>
   <time name="dav">    1.17    1.17</time>
   <time name="total">    2.25    2.30</time>
   <energy>
    <i name="alphaZ">      2.09028485 </i>
    <i name="ewald">   4592.29830195 </i>
    <i name="hartreedc">  -6128.56671603 </i>
    <i name="XCdc">    129.39018686 </i>
    <i name="pawpsdc">   2589.16918684 </i>
    <i name="pawaedc">  -2576.04014925 </i>
    <i name="eentropy">     -0.00957498 </i>
    <i name="bandstr">   -589.50441495 </i>
    <i name="atom">   1872.94269914 </i>
    <i name="e_fr_energy">   -108.23019558 </i>
    <i name="e_wo_entrp">   -108.22062060 </i>
    <i name="e_0_energy">   -108.22540809 </i>
   </energy>
  </scstep>
  <structure>
   <crystal>
    <varray name="basis" >
     <v>      20.00000000       0.00000000       0.00000000 </v>
     <v>       0.00000000      20.00000000       0.00000000 </v>
     <v>       0.00000000       0.00000000      20.00000000 </v>
    </varray>
    <i name="volume">   8000.00000000 </i>
    <varray name="rec_basis" >
     <v>       0.05000000       0.00000000       0.00000000 </v>
     <v>       0.00000000       0.05000000       0.00000000 </v>
     <v>       0.00000000       0.00000000       0.05000000 </v>
    </varray>
   </crystal>
   <varray name="positions" >
    <v>       0.82404506       0.15731259       0.89734142 </v>
    <v>       0.80341451       0.21138322       0.98149139 </v>
    <v>       0.86247286       0.25901012       0.92738269 </v>
    <v>       0.83857434       0.12947911       0.00332489 </v>
    <v>       0.90967339       0.11804313       0.94712837 </v>
    <v>       0.92672944       0.19683125       0.90212290 </v>
    <v>       0.93117870       0.05728585       0.92739346 </v>
    <v>       0.79661341       0.07883308       0.01718135 </v>
    <v>       0.75039384       0.23990848       0.01649789 </v>
    <v>       0.83558548       0.29731070       0.88205900 </v>
    <v>       0.75940506       0.21073145       0.84062452 </v>
    <v>       0.84870968       0.09110818       0.82432263 </v>
    <v>       0.83459008       0.17871129       0.79710869 </v>
    <v>       0.78239791       0.06972987       0.88554600 </v>
    <v>       0.72494614       0.14235537       0.89431966 </v>
    <v>       0.69364768       0.15558114       0.94994720 </v>
    <v>       0.90918791       0.06391907       0.82513159 </v>
    <v>       0.78806589       0.02112769       0.93054594 </v>
    <v>       0.75453112       0.27354857       0.85888682 </v>
    <v>       0.88512363       0.21747176       0.78168489 </v>
    <v>       0.94946387       0.19736808       0.84045869 </v>
   </varray>
  </structure>
  <varray name="forces" >
   <v>       0.52764195       0.46638945      -0.00108669 </v>
   <v>       1.79127937      -0.39842130       0.61107808 </v>
   <v>      -0.49939861      -3.70890405      -0.32177215 </v>
   <v>       0.27615930       1.18553078      -2.99596787 </v>
   <v>      -1.87111024       1.38072109      -0.51750770 </v>
   <v>      -3.27874209      -0.71392275       0.64105072 </v>
   <v>      -1.18297852       4.08061242       1.55661121 </v>
   <v>       2.82028835       3.33483604      -0.74874126 </v>
   <v>       3.60217914      -1.83198545      -2.30374570 </v>
   <v>       2.05079650      -2.20747743       2.87590273 </v>
   <v>       1.56034923      -1.04759053       0.95766746 </v>
   <v>      -0.25828899       1.51226887       1.41045505 </v>
   <v>      -0.37125139      -0.60379057       2.33843968 </v>
   <v>       0.55439585       1.10189553       0.34622253 </v>
   <v>       2.00773615       0.56065713       0.30781488 </v>
   <v>       1.60860000      -1.03140849      -3.76839494 </v>
   <v>      -4.08362438       1.60731039      -0.41180334 </v>
   <v>      -0.59155696       2.89733378      -3.30622558 </v>
   <v>      -0.16542674      -4.05794490      -1.48082944 </v>
   <v>      -3.46884925      -2.41539657       0.62221686 </v>
   <v>      -1.02819869      -0.11071346       4.18861548 </v>
  </varray>
  <varray name="stress" >
   <v>      -9.16433218       2.66091045       6.12095012 </v>
   <v>       2.66091045     -12.70314383       2.96582719 </v>
   <v>       6.12095012       2.96582719      -6.75476155 </v>
  </varray>
  <energy>
   <i name="e_fr_energy">   -109.05092711 </i>
   <i name="e_wo_entrp">   -109.04613962 </i>
   <i name="e_0_energy">     -0.00957498 </i>
  </energy>
  <time name="totalsc">   61.77   62.92</time>
 </calculation>
 <calculation>
  <scstep>
   <time name="dav">    1.35    1.35</time>
   <time name="total">    2.72    2.72</time>
   <energy>
    <i name="alphaZ">      2.09028485 </i>
    <i name="ewald">   5055.23138547 </i>
    <i name="hartreedc">  -6549.02235598 </i>
    <i name="XCdc">    132.76657023 </i>
    <i name="pawpsdc">   2589.29814223 </i>
    <i name="pawaedc">  -2576.16939766 </i>
    <i name="eentropy">     -0.09016767 </i>
    <i name="bandstr">   -633.00337939 </i>
    <i name="atom">   1872.94269914 </i>
    <i name="e_fr_energy">   -105.95621877 </i>
    <i name="e_wo_entrp">   -105.86605111 </i>
    <i name="e_0_energy">   -105.91113494 </i>
   </energy>
  </scstep>
  <scstep>
   <time name="dav">    2.04    2.04</time>
   <time name="total">    3.35    4.01</time>
   <energy>
    <i name="e_fr_energy">   -113.02442184 </i>
    <i name="e_wo_entrp">   -112.99670105 </i>
    <i name="e_0_energy">   -113.01056144 </i>
   </energy>
  </scstep>
  <scstep>
   <time name="dav">    1.94    1.94</time>
   <time name="total">    3.27    3.27</time>
   <energy>
    <i name="e_fr_energy">   -110.59900974 </i>
    <i name="e_wo_entrp">   -110.55074127 </i>
    <i name="e_0_energy">   -110.57487551 </i>
   </energy>
  </scstep>
  <scstep>
   <time name="dav">    1.84    1.84</time>
   <time name="total">    3.15    3.16</time>
   <energy>
    <i name="e_fr_energy">   -109.83198536 </i>
    <i name="e_wo_entrp">   -109.78588162 </i>
    <i name="e_0_energy">   -109.80893349 </i>
   </energy>
  </scstep>
  <scstep>
   <time name="dav">    1.94    1.94</time>
   <time name="total">    3.27    3.27</time>
   <energy>
    <i name="e_fr_energy">   -109.48516293 </i>
    <i name="e_wo_entrp">   -109.41621291 </i>
    <i name="e_0_energy">   -109.45068792 </i>
   </energy>
  </scstep>
  <scstep>
   <time name="dav">    1.94    1.94</time>
   <time name="total">    3.27    3.27</time>
   <energy>
    <i name="e_fr_energy">   -109.40358502 </i>
    <i name="e_wo_entrp">   -109.29889902 </i>
    <i name="e_0_energy">   -109.35124202 </i>
   </energy>
  </scstep>
  <scstep>
   <time name="dav">    1.95    1.95</time>
   <time name="total">    3.28    3.28</time>
   <energy>
    <i name="e_fr_energy">   -109.39614387 </i>
    <i name="e_wo_entrp">   -109.29547766 </i>
    <i name="e_0_energy">   -109.34581076 </i>
   </energy>
  </scstep>
  <scstep>
   <time name="dav">    2.04    2.04</time>
   <time name="total">    3.37    3.37</time>
   <energy>
    <i name="e_fr_energy">   -109.39608003 </i>
    <i name="e_wo_entrp">   -109.29370984 </i>
    <i name="e_0_energy">   -109.34489494 </i>
   </energy>
  </scstep>
  <scstep>
   <time name="dav">    1.94    1.94</time>
   <time name="total">    3.27    3.27</time>
   <energy>
    <i name="e_fr_energy">   -109.39365946 </i>
    <i name="e_wo_entrp">   -109.29048833 </i>
    <i name="e_0_energy">   -109.34207389 </i>
   </energy>
  </scstep>
  <scstep>
   <time name="dav">    1.95    1.95</time>
   <time name="total">    3.27    3.31</time>
   <energy>
    <i name="e_fr_energy">   -109.39427565 </i>
    <i name="e_wo_entrp">   -109.29180804 </i>
    <i name="e_0_energy">   -109.34304184 </i>
   </energy>
  </scstep>
  <scstep>
   <time name="dav">    1.64    1.64</time>
   <time name="total">    2.98    2.98</time>
   <energy>
    <i name="e_fr_energy">   -109.39523059 </i>
    <i name="e_wo_entrp">   -109.29196351 </i>
    <i name="e_0_energy">   -109.34359705 </i>
   </energy>
  </scstep>
  <scstep>
   <time name="dav">    1.44    1.44</time>
   <time name="total">    2.78    2.78</time>
   <energy>
    <i name="e_fr_energy">   -109.39609421 </i>
    <i name="e_wo_entrp">   -109.29335723 </i>
    <i name="e_0_energy">   -109.34472572 </i>
   </energy>
  </scstep>
  <scstep>
   <time name="dav">    1.44    1.44</time>
   <time name="total">    2.79    2.79</time>
   <energy>
    <i name="e_fr_energy">   -109.39703444 </i>
    <i name="e_wo_entrp">   -109.29399168 </i>
    <i name="e_0_energy">   -109.34551306 </i>
   </energy>
  </scstep>
  <scstep>
   <time name="dav">    1.44    1.44</time>
   <time name="total">    2.78    2.79</time>
   <energy>
    <i name="e_fr_energy">   -109.39749229 </i>
    <i name="e_wo_entrp">   -109.29443878 </i>
    <i name="e_0_energy">   -109.34596553 </i>
   </energy>
  </scstep>
  <scstep>
   <time name="dav">    1.35    1.35</time>
   <time name="total">    2.69    2.69</time>
   <energy>
    <i name="e_fr_energy">   -109.39832742 </i>
    <i name="e_wo_entrp">   -109.29511106 </i>
    <i name="e_0_energy">   -109.34671924 </i>
   </energy>
  </scstep>
  <scstep>
   <time name="dav">    1.35    1.35</time>
   <time name="total">    2.69    2.69</time>
   <energy>
    <i name="e_fr_energy">   -109.39855135 </i>
    <i name="e_wo_entrp">   -109.29541350 </i>
    <i name="e_0_energy">   -109.34698242 </i>
   </energy>
  </scstep>
  <scstep>
   <time name="dav">    1.44    1.48</time>
   <time name="total">    2.79    2.83</time>
   <energy>
    <i name="e_fr_energy">   -109.39887207 </i>
    <i name="e_wo_entrp">   -109.29576513 </i>
    <i name="e_0_energy">   -109.34731860 </i>
   </energy>
  </scstep>
  <scstep>
   <time name="dav">    1.24    1.39</time>
   <time name="total">    2.58    2.76</time>
   <energy>
    <i name="e_fr_energy">   -109.39897871 </i>
    <i name="e_wo_entrp">   -109.29587710 </i>
    <i name="e_0_energy">   -109.34742790 </i>
   </energy>
  </scstep>
  <scstep>
   <time name="dav">    1.15    1.15</time>
   <time name="total">    2.18    2.26</time>
   <energy>
    <i name="alphaZ">      2.09028485 </i>
    <i name="ewald">   5055.23138547 </i>
    <i name="hartreedc">  -6570.93850398 </i>
    <i name="XCdc">    132.96445008 </i>
    <i name="pawpsdc">   3507.26317471 </i>
    <i name="pawaedc">  -3496.28608131 </i>
    <i name="eentropy">     -0.10310851 </i>
    <i name="bandstr">   -612.56330711 </i>
    <i name="atom">   1872.94269914 </i>
    <i name="e_fr_energy">   -109.39900667 </i>
    <i name="e_wo_entrp">   -109.29589816 </i>
    <i name="e_0_energy">   -109.34745241 </i>
   </energy>
  </scstep>
  <structure>
   <crystal>
    <varray name="basis" >
     <v>      20.00000000       0.00000000       0.00000000 </v>
     <v>       0.00000000      20.00000000       0.00000000 </v>
     <v>       0.00000000       0.00000000      20.00000000 </v>
    </varray>
    <i name="volume">   8000.00000000 </i>
    <varray name="rec_basis" >
     <v>       0.05000000       0.00000000       0.00000000 </v>
     <v>       0.00000000       0.05000000       0.00000000 </v>
     <v>       0.00000000       0.00000000       0.05000000 </v>
    </varray>
   </crystal>
   <varray name="positions" >
    <v>       0.82163464       0.15587785       0.89663155 </v>
    <v>       0.81108989       0.20559454       0.97519038 </v>
    <v>       0.86423007       0.25113082       0.93136880 </v>
    <v>       0.84359105       0.13627666      -0.00184049 </v>
    <v>       0.90339608       0.12662836       0.94729749 </v>
    <v>       0.91953093       0.19548439       0.90873071 </v>
    <v>       0.93127400       0.05775672       0.92779592 </v>
    <v>       0.79662334       0.07893162       0.01694538 </v>
    <v>       0.75146306       0.23984071       0.01638524 </v>
    <v>       0.83650041       0.29702241       0.88232486 </v>
    <v>       0.76348181       0.20186821       0.84127214 </v>
    <v>       0.84160762       0.09733480       0.82789400 </v>
    <v>       0.82925082       0.17390611       0.80363192 </v>
    <v>       0.78406259       0.07941609       0.88221058 </v>
    <v>       0.73253387       0.14228529       0.88911339 </v>
    <v>       0.69372001       0.15519690       0.94953783 </v>
    <v>       0.90880868       0.06400725       0.82485877 </v>
    <v>       0.78792955       0.02122225       0.92980239 </v>
    <v>       0.75381363       0.27295508       0.85861787 </v>
    <v>       0.88436355       0.21737680       0.78137749 </v>
    <v>       0.94984442       0.19693715       0.84135377 </v>
   </varray>
  </structure>
  <varray name="forces" >
   <v>       6.49160804       4.40503715       5.75647012 </v>
   <v>       0.50317499       2.51517435       4.23599496 </v>
   <v>      -0.79979829      -2.91587310      -1.76466410 </v>
   <v>      -0.60362110      -0.17089068      -2.17328527 </v>
   <v>       0.66502297      -0.50418019       0.30245867 </v>
   <v>      -1.63171068      -0.24878009      -0.60059557 </v>
   <v>      -1.44115819       4.31920673       1.42680086 </v>
   <v>       3.05465034       3.50365034      -0.91255835 </v>
   <v>       3.30271161      -1.93003095      -2.36093588 </v>
   <v>       2.09658901      -2.70828897       3.34130876 </v>
   <v>      -1.08177312       1.65630208      -1.25597153 </v>
   <v>       1.56859597      -0.73542639      -1.94606368 </v>
   <v>       0.12288778       0.44990999      -1.32618273 </v>
   <v>      -1.95579909      -4.94045568      -0.17248771 </v>
   <v>      -2.62041654       0.41128112       0.64676451 </v>
   <v>       2.07439909      -0.93615104      -4.13380156 </v>
   <v>      -4.34499997       1.88624121      -0.11928738 </v>
   <v>      -0.43677097       3.28269035      -3.17040934 </v>
   <v>       0.26224634      -4.50141872      -1.47352606 </v>
   <v>      -3.69976762      -2.77645457       1.11285069 </v>
   <v>      -1.52607058      -0.06154295       4.58712056 </v>
  </varray>
  <varray name="stress" >
   <v>      -5.48065527       2.39770378       6.19741322 </v>
   <v>       2.39770378      -9.21209567       3.27131290 </v>
   <v>       6.19741322       3.27131290      -3.03580518 </v>
  </varray>
  <energy>
   <i name="e_fr_energy">   -110.18481062 </i>
   <i name="e_wo_entrp">   -110.13325637 </i>
   <i name="e_0_energy">     -0.10310851 </i>
  </energy>
  <time name="totalsc">   62.41   63.45</time>
 </calculation>
 <calculation>
  <scstep>
   <time name="dav">    1.34    1.34</time>
   <time name="total">    2.70    2.71</time>
   <energy>
    <i name="alphaZ">      2.09028485 </i>
    <i name="ewald">   4858.57783605 </i>
    <i name="hartreedc">  -6394.22465612 </i>
    <i name="XCdc">    131.33628233 </i>
    <i name="pawpsdc">   3507.42974339 </i>
    <i name="pawaedc">  -3496.45170773 </i>
    <i name="eentropy">     -0.00543550 </i>
    <i name="bandstr">   -591.09824151 </i>
    <i name="atom">   1872.94269914 </i>
    <i name="e_fr_energy">   -109.40319510 </i>
    <i name="e_wo_entrp">   -109.39775960 </i>
    <i name="e_0_energy">   -109.40047735 </i>
   </energy>
  </scstep>
  <scstep>
   <time name="dav">    1.92    1.95</time>
   <time name="total">    3.27    3.31</time>
   <energy>
    <i name="e_fr_energy">   -110.08671718 </i>
    <i name="e_wo_entrp">   -109.99967946 </i>
    <i name="e_0_energy">   -110.04319832 </i>
   </energy>
  </scstep>
  <scstep>
   <time name="dav">    1.88    2.01</time>
   <time name="total">    3.20    3.42</time>
   <energy>
    <i name="e_fr_energy">   -109.81779718 </i>
    <i name="e_wo_entrp">   -109.76964225 </i>
    <i name="e_0_energy">   -109.79371971 </i>
   </energy>
  </scstep>
  <scstep>
   <time name="dav">    1.84    1.84</time>
   <time name="total">    3.17    3.21</time>
   <energy>
    <i name="e_fr_energy">   -110.08212740 </i>
    <i name="e_wo_entrp">   -109.98498562 </i>
    <i name="e_0_energy">   -110.03355651 </i>
   </energy>
  </scstep>
  <scstep>
   <time name="dav">    1.94    1.94</time>
   <time name="total">    3.29    3.29</time>
   <energy>
    <i name="e_fr_energy">   -109.80480865 </i>
    <i name="e_wo_entrp">   -109.76040092 </i>
    <i name="e_0_energy">   -109.78260479 </i>
   </energy>
  </scstep>
  <scstep>
   <time name="dav">    1.94    1.94</time>
   <time name="total">    3.29    3.29</time>
   <energy>
    <i name="e_fr_energy">   -109.79235353 </i>
    <i name="e_wo_entrp">   -109.72735851 </i>
    <i name="e_0_energy">   -109.75985602 </i>
   </energy>
  </scstep>
  <scstep>
   <time name="dav">    1.84    1.84</time>
   <time name="total">    3.19    3.19</time>
   <energy>
    <i name="e_fr_energy">   -109.79167434 </i>
    <i name="e_wo_entrp">   -109.72901732 </i>
    <i name="e_0_energy">   -109.76034583 </i>
   </energy>
  </scstep>
  <scstep>
   <time name="dav">    1.84    1.84</time>
   <time name="total">    3.18    3.19</time>
   <energy>
    <i name="e_fr_energy">   -109.79146298 </i>
    <i name="e_wo_entrp">   -109.72810435 </i>
    <i name="e_0_energy">   -109.75978367 </i>
   </energy>
  </scstep>
  <scstep>
   <time name="dav">    1.84    1.84</time>
   <time name="total">    3.18    3.19</time>
   <energy>
    <i name="e_fr_energy">   -109.79135674 </i>
    <i name="e_wo_entrp">   -109.72672833 </i>
    <i name="e_0_energy">   -109.75904253 </i>
   </energy>
  </scstep>
  <scstep>
   <time name="dav">    1.64    1.64</time>
   <time name="total">    2.99    2.99</time>
   <energy>
    <i name="e_fr_energy">   -109.79167486 </i>
    <i name="e_wo_entrp">   -109.72757251 </i>
    <i name="e_0_energy">   -109.75962369 </i>
   </energy>
  </scstep>
  <scstep>
   <time name="dav">    1.15    1.15</time>
   <time name="total">    2.49    2.54</time>
   <energy>
    <i name="e_fr_energy">   -109.79203436 </i>
    <i name="e_wo_entrp">   -109.72825561 </i>
    <i name="e_0_energy">   -109.76014499 </i>
   </energy>
  </scstep>
  <scstep>
   <time name="dav">    1.44    1.44</time>
   <time name="total">    2.79    2.79</time>
   <energy>
    <i name="e_fr_energy">   -109.79251401 </i>
    <i name="e_wo_entrp">   -109.72917255 </i>
    <i name="e_0_energy">   -109.76084328 </i>
   </energy>
  </scstep>
  <scstep>
   <time name="dav">    1.35    1.35</time>
   <time name="total">    2.69    2.70</time>
   <energy>
    <i name="e_fr_energy">   -109.79282037 </i>
    <i name="e_wo_entrp">   -109.72960638 </i>
    <i name="e_0_energy">   -109.76121337 </i>
   </energy>
  </scstep>
  <scstep>
   <time name="dav">    1.35    1.35</time>
   <time name="total">    2.70    2.70</time>
   <energy>
    <i name="e_fr_energy">   -109.79313425 </i>
    <i name="e_wo_entrp">   -109.72999583 </i>
    <i name="e_0_energy">   -109.76156504 </i>
   </energy>
  </scstep>
  <scstep>
   <time name="dav">    1.35    1.35</time>
   <time name="total">    2.70    2.70</time>
   <energy>
    <i name="e_fr_energy">   -109.79339852 </i>
    <i name="e_wo_entrp">   -109.73030125 </i>
    <i name="e_0_energy">   -109.76184989 </i>
   </energy>
  </scstep>
  <scstep>
   <time name="dav">    1.47    1.50</time>
   <time name="total">    2.81    2.85</time>
   <energy>
    <i name="e_fr_energy">   -109.79354525 </i>
    <i name="e_wo_entrp">   -109.73029456 </i>
    <i name="e_0_energy">   -109.76191990 </i>
   </energy>
  </scstep>
  <scstep>
   <time name="dav">    1.24    1.40</time>
   <time name="total">    2.32    2.50</time>
   <energy>
    <i name="alphaZ">      2.09028485 </i>
    <i name="ewald">   4858.57783605 </i>
    <i name="hartreedc">  -6387.82163674 </i>
    <i name="XCdc">    131.25641491 </i>
    <i name="pawpsdc">   3029.39138867 </i>
    <i name="pawaedc">  -3017.36326553 </i>
    <i name="eentropy">     -0.06325451 </i>
    <i name="bandstr">   -598.80409701 </i>
    <i name="atom">   1872.94269914 </i>
    <i name="e_fr_energy">   -109.79363017 </i>
    <i name="e_wo_entrp">   -109.73037566 </i>
    <i name="e_0_energy">   -109.76200292 </i>
   </energy>
  </scstep>
  <structure>
   <crystal>
    <varray name="basis" >
     <v>      20.00000000       0.00000000       0.00000000 </v>
     <v>       0.00000000      20.00000000       0.00000000 </v>
     <v>       0.00000000       0.00000000      20.00000000 </v>
    </varray>
    <i name="volume">   8000.00000000 </i>
    <varray name="rec_basis" >
     <v>       0.05000000       0.00000000       0.00000000 </v>
     <v>       0.00000000       0.05000000       0.00000000 </v>
     <v>       0.00000000       0.00000000       0.05000000 </v>
    </varray>
   </crystal>
   <varray name="positions" >
    <v>       0.82259315       0.15644838       0.89691383 </v>
    <v>       0.80803776       0.20789642       0.97769599 </v>
    <v>       0.86353131       0.25426404       0.92978372 </v>
    <v>       0.84159614       0.13357360       0.00021354 </v>
    <v>       0.90589227       0.12321442       0.94723024 </v>
    <v>       0.92239343       0.19601997       0.90610310 </v>
    <v>       0.93123611       0.05756948       0.92763588 </v>
    <v>       0.79661939       0.07889244       0.01703921 </v>
    <v>       0.75103788       0.23986766       0.01643003 </v>
    <v>       0.83613658       0.29713705       0.88221914 </v>
    <v>       0.76186068       0.20539270       0.84101461 </v>
    <v>       0.84443177       0.09485877       0.82647384 </v>
    <v>       0.83137399       0.17581690       0.80103795 </v>
    <v>       0.78340063       0.07556434       0.88353692 </v>
    <v>       0.72951659       0.14231316       0.89118368 </v>
    <v>       0.69369125       0.15534969       0.94970061 </v>
    <v>       0.90895948       0.06397219       0.82496726 </v>
    <v>       0.78798377       0.02118465       0.93009807 </v>
    <v>       0.75409894       0.27319108       0.85872482 </v>
    <v>       0.88466580       0.21741456       0.78149973 </v>
    <v>       0.94969309       0.19710851       0.84099784 </v>
   </varray>
  </structure>
  <varray name="forces" >
   <v>       3.45825469       2.48608443       2.35055521 </v>
   <v>       1.17288592       1.12179990       2.61284915 </v>
   <v>      -0.68581440      -3.35832576      -1.13980985 </v>
   <v>      -0.24034355       0.49461489      -2.67302075 </v>
   <v>      -0.60864518       0.36037585      -0.10578786 </v>
   <v>      -2.48648322      -0.50332371      -0.05920840 </v>
   <v>      -1.40171839       4.41095114       1.55724703 </v>
   <v>       3.09049745       3.61236024      -0.87637937 </v>
   <v>       3.56659654      -1.96605004      -2.43236188 </v>
   <v>       2.16245719      -2.61569634       3.27666617 </v>
   <v>       0.25433190       0.49123901      -0.01185414 </v>
   <v>       0.79391725       0.27204859      -0.17246550 </v>
   <v>       0.01724952       0.02329894       0.56570370 </v>
   <v>      -0.68957866      -2.04114743       0.21212849 </v>
   <v>      -0.31217625       0.43626142       0.74054963 </v>
   <v>       1.96716934      -1.03194091      -4.18667073 </v>
   <v>      -4.44808445       1.86308248      -0.26143544 </v>
   <v>      -0.53492043       3.30580947      -3.42696796 </v>
   <v>       0.08437090      -4.53128012      -1.53704316 </v>
   <v>      -3.76884187      -2.74572431       0.95348666 </v>
   <v>      -1.39112432      -0.08443776       4.61381898 </v>
  </varray>
  <varray name="stress" >
   <v>      -7.55869820       2.60349600       6.28284698 </v>
   <v>       2.60349599     -11.27410940       3.23263132 </v>
   <v>       6.28284698       3.23263132      -5.13540052 </v>
  </varray>
  <energy>
   <i name="e_fr_energy">   -110.59816154 </i>
   <i name="e_wo_entrp">   -110.56653428 </i>
   <i name="e_0_energy">     -0.06325451 </i>
  </energy>
  <time name="totalsc">   55.84   57.98</time>
 </calculation>
 <calculation>
  <scstep>
   <time name="dav">    1.35    1.35</time>
   <time name="total">    2.70    2.70</time>
   <energy>
    <i name="alphaZ">      2.09028485 </i>
    <i name="ewald">   5367.13217047 </i>
    <i name="hartreedc">  -6837.64571021 </i>
    <i name="XCdc">    136.48918404 </i>
    <i name="pawpsdc">   3029.49887768 </i>
    <i name="pawaedc">  -3017.47074990 </i>
    <i name="eentropy">     -0.11235877 </i>
    <i name="bandstr">   -667.11003557 </i>
    <i name="atom">   1872.94269914 </i>
    <i name="e_fr_energy">   -114.18563827 </i>
    <i name="e_wo_entrp">   -114.07327949 </i>
    <i name="e_0_energy">   -114.12945888 </i>
   </energy>
  </scstep>
  <scstep>
   <time name="dav">    1.84    1.84</time>
   <time name="total">    3.15    3.16</time>
   <energy>
    <i name="e_fr_energy">   -117.21958409 </i>
    <i name="e_wo_entrp">   -117.18694119 </i>
    <i name="e_0_energy">   -117.20326264 </i>
   </energy>
  </scstep>
  <scstep>
   <time name="dav">    1.84    1.84</time>
   <time name="total">    3.15    3.16</time>
   <energy>
    <i name="e_fr_energy">   -116.51473026 </i>
    <i name="e_wo_entrp">   -116.41936766 </i>
    <i name="e_0_energy">   -116.46704896 </i>
   </energy>
  </scstep>
  <scstep>
   <time name="dav">    2.04    2.04</time>
   <time name="total">    3.35    3.35</time>
   <energy>
    <i name="e_fr_energy">   -116.32114431 </i>
    <i name="e_wo_entrp">   -116.22132745 </i>
    <i name="e_0_energy">   -116.27123588 </i>
   </energy>
  </scstep>
  <scstep>
   <time name="dav">    1.94    1.94</time>
   <time name="total">    3.25    3.26</time>
   <energy>
    <i name="e_fr_energy">   -116.14463792 </i>
    <i name="e_wo_entrp">   -116.06640093 </i>
    <i name="e_0_energy">   -116.10551942 </i>
   </energy>
  </scstep>
  <scstep>
   <time name="dav">    1.93    1.93</time>
   <time name="total">    3.25    3.25</time>
   <energy>
    <i name="e_fr_energy">   -116.12810394 </i>
    <i name="e_wo_entrp">   -116.02129000 </i>
    <i name="e_0_energy">   -116.07469697 </i>
   </energy>
  </scstep>
  <scstep>
   <time name="dav">    1.95    1.95</time>
   <time name="total">    3.27    3.27</time>
   <energy>
    <i name="e_fr_energy">   -116.12805354 </i>
    <i name="e_wo_entrp">   -116.02533730 </i>
    <i name="e_0_energy">   -116.07669542 </i>
   </energy>
  </scstep>
  <scstep>
   <time name="dav">    1.94    1.94</time>
   <time name="total">    3.26    3.27</time>
   <energy>
    <i name="e_fr_energy">   -116.12189581 </i>
    <i name="e_wo_entrp">   -116.01605223 </i>
    <i name="e_0_energy">   -116.06897402 </i>
   </energy>
  </scstep>
  <scstep>
   <time name="dav">    1.93    1.94</time>
   <time name="total">    3.26    3.27</time>
   <energy>
    <i name="e_fr_energy">   -116.12235197 </i>
    <i name="e_wo_entrp">   -116.01477407 </i>
    <i name="e_0_energy">   -116.06856302 </i>
   </energy>
  </scstep>
  <scstep>
   <time name="dav">    1.94    1.94</time>
   <time name="total">    3.27    3.27</time>
   <energy>
    <i name="e_fr_energy">   -116.12299196 </i>
    <i name="e_wo_entrp">   -116.01647091 </i>
    <i name="e_0_energy">   -116.06973143 </i>
   </energy>
  </scstep>
  <scstep>
   <time name="dav">    1.34    1.34</time>
   <time name="total">    2.66    2.70</time>
   <energy>
    <i name="e_fr_energy">   -116.12389820 </i>
    <i name="e_wo_entrp">   -116.01628207 </i>
    <i name="e_0_energy">   -116.07009014 </i>
   </energy>
  </scstep>
  <scstep>
   <time name="dav">    1.34    1.34</time>
   <time name="total">    2.67    2.68</time>
   <energy>
    <i name="e_fr_energy">   -116.12497749 </i>
    <i name="e_wo_entrp">   -116.01853929 </i>
    <i name="e_0_energy">   -116.07175839 </i>
   </energy>
  </scstep>
  <scstep>
   <time name="dav">    1.35    1.35</time>
   <time name="total">    2.68    2.69</time>
   <energy>
    <i name="e_fr_energy">   -116.12551995 </i>
    <i name="e_wo_entrp">   -116.01863387 </i>
    <i name="e_0_energy">   -116.07207691 </i>
   </energy>
  </scstep>
  <scstep>
   <time name="dav">    1.34    1.35</time>
   <time name="total">    2.68    2.69</time>
   <energy>
    <i name="e_fr_energy">   -116.12602279 </i>
    <i name="e_wo_entrp">   -116.01935918 </i>
    <i name="e_0_energy">   -116.07269099 </i>
   </energy>
  </scstep>
  <scstep>
   <time name="dav">    1.35    1.35</time>
   <time name="total">    2.69    2.69</time>
   <energy>
    <i name="e_fr_energy">   -116.12673290 </i>
    <i name="e_wo_entrp">   -116.01986480 </i>
    <i name="e_0_energy">   -116.07329885 </i>
   </energy>
  </scstep>
  <scstep>
   <time name="dav">    1.35    1.35</time>
   <time name="total">    2.69    2.70</time>
   <energy>
    <i name="e_fr_energy">   -116.12688220 </i>
    <i name="e_wo_entrp">   -116.02003313 </i>
    <i name="e_0_energy">   -116.07345767 </i>
   </energy>
  </scstep>
  <scstep>
   <time name="dav">    1.17    1.19</time>
   <time name="total">    2.25    2.27</time>
   <energy>
    <i name="alphaZ">      2.09028485 </i>
    <i name="ewald">   5367.13217047 </i>
    <i name="hartreedc">  -6876.92934800 </i>
    <i name="XCdc">    137.48441993 </i>
    <i name="pawpsdc">   4208.41455587 </i>
    <i name="pawaedc">  -4198.37963545 </i>
    <i name="eentropy">     -0.10683037 </i>
    <i name="bandstr">   -628.77524708 </i>
    <i name="atom">   1872.94269914 </i>
    <i name="e_fr_energy">   -116.12693063 </i>
    <i name="e_wo_entrp">   -116.02010026 </i>
    <i name="e_0_energy">   -116.07351545 </i>
   </energy>
  </scstep>
  <structure>
   <crystal>
    <varray name="basis" >
     <v>      20.00000000       0.00000000       0.00000000 </v>
     <v>       0.00000000      20.00000000       0.00000000 </v>
     <v>       0.00000000       0.00000000      20.00000000 </v>
    </varray>
    <i name="volume">   8000.00000000 </i>
    <varray name="rec_basis" >
     <v>       0.05000000       0.00000000       0.00000000 </v>
     <v>       0.00000000       0.05000000       0.00000000 </v>
     <v>       0.00000000       0.00000000       0.05000000 </v>
    </varray>
   </crystal>
   <varray name="positions" >
    <v>       0.82593731       0.15906745       0.89985656 </v>
    <v>       0.81529789       0.20536981       0.97699132 </v>
    <v>       0.86379081       0.24364473       0.93098366 </v>
    <v>       0.84486146       0.13920365      -0.00744097 </v>
    <v>       0.90046986       0.12993664       0.94719675 </v>
    <v>       0.91354659       0.19430871       0.91078231 </v>
    <v>       0.92924466       0.06439217       0.93021496 </v>
    <v>       0.80116885       0.08427283       0.01558094 </v>
    <v>       0.75705117       0.23692915       0.01277378 </v>
    <v>       0.83997482       0.29308465       0.88722682 </v>
    <v>       0.76517506       0.19972162       0.84146432 </v>
    <v>       0.84047591       0.09974990       0.82879639 </v>
    <v>       0.82754812       0.17238516       0.80657462 </v>
    <v>       0.78358785       0.07955104       0.88144285 </v>
    <v>       0.73453082       0.14290381       0.88851681 </v>
    <v>       0.69663469       0.15355583       0.94325192 </v>
    <v>       0.90214831       0.06677408       0.82438623 </v>
    <v>       0.78709922       0.02611161       0.92452491 </v>
    <v>       0.75370541       0.26610309       0.85627173 </v>
    <v>       0.87857825       0.21331050       0.78267939 </v>
    <v>       0.94792296       0.19667357       0.84842468 </v>
   </varray>
  </structure>
  <varray name="forces" >
   <v>      -0.82218495       0.02738471       0.57719206 </v>
   <v>      -1.66825351       3.91526552       5.11238812 </v>
   <v>      -1.10543330       2.10449638      -0.98839738 </v>
   <v>      -1.60536958      -2.17709329       2.39874167 </v>
   <v>       4.57208598      -3.03283831       0.94347458 </v>
   <v>       3.76558038       0.18685969      -1.79065087 </v>
   <v>      -1.54823690       4.25783758       1.28707509 </v>
   <v>       2.98548612       3.47445525      -1.09341900 </v>
   <v>       3.59252999      -1.92779367      -2.19045801 </v>
   <v>       1.92372298      -2.84056592       3.18078673 </v>
   <v>      -1.98278063       1.67418838      -0.77897786 </v>
   <v>       1.22597872      -1.73694895      -1.45601760 </v>
   <v>       0.65921289       0.91746168      -2.66389552 </v>
   <v>      -0.96895387      -2.39022802      -0.08254391 </v>
   <v>      -1.63138282      -0.01796087       0.51039086 </v>
   <v>       2.10189524      -0.75069792      -3.89570022 </v>
   <v>      -4.20628070       2.03156305      -0.06505983 </v>
   <v>      -0.39845096       3.35440483      -3.09522985 </v>
   <v>       0.41615681      -4.32174738      -1.42874635 </v>
   <v>      -3.55199992      -2.68475668       1.16210745 </v>
   <v>      -1.75332198      -0.06328607       4.35693984 </v>
  </varray>
  <varray name="stress" >
   <v>      -2.44940841       1.97541791       6.05118014 </v>
   <v>       1.97541791      -6.63065757       3.03889782 </v>
   <v>       6.05118013       3.03889782      -0.02787390 </v>
  </varray>
  <energy>
   <i name="e_fr_energy">   -116.96318675 </i>
   <i name="e_wo_entrp">   -116.90977157 </i>
   <i name="e_0_energy">     -0.10683037 </i>
  </energy>
  <time name="totalsc">   56.09   56.43</time>
 </calculation>
 <calculation>
  <scstep>
   <time name="dav">    1.35    1.35</time>
   <time name="total">    2.69    2.70</time>
   <energy>
    <i name="alphaZ">      2.09028485 </i>
    <i name="ewald">   5452.96431315 </i>
    <i name="hartreedc">  -6950.94557758 </i>
    <i name="XCdc">    138.39998261 </i>
    <i name="pawpsdc">   4208.45006196 </i>
    <i name="pawaedc">  -4198.41459057 </i>
    <i name="eentropy">     -0.10969743 </i>
    <i name="bandstr">   -641.62465459 </i>
    <i name="atom">   1872.94269914 </i>
    <i name="e_fr_energy">   -116.24717846 </i>
    <i name="e_wo_entrp">   -116.13748103 </i>
    <i name="e_0_energy">   -116.19232975 </i>
   </energy>
  </scstep>
  <scstep>
   <time name="dav">    1.84    1.84</time>
   <time name="total">    3.17    3.18</time>
   <energy>
    <i name="e_fr_energy">   -116.28428023 </i>
    <i name="e_wo_entrp">   -116.17837744 </i>
    <i name="e_0_energy">   -116.23132883 </i>
   </energy>
  </scstep>
  <scstep>
   <time name="dav">    2.04    2.04</time>
   <time name="total">    3.37    3.37</time>
   <energy>
    <i name="e_fr_energy">   -116.29449241 </i>
    <i name="e_wo_entrp">   -116.18789714 </i>
    <i name="e_0_energy">   -116.24119478 </i>
   </energy>
  </scstep>
  <scstep>
   <time name="dav">    1.94    1.94</time>
   <time name="total">    3.27    3.27</time>
   <energy>
    <i name="e_fr_energy">   -116.28582871 </i>
    <i name="e_wo_entrp">   -116.17301854 </i>
    <i name="e_0_energy">   -116.22942363 </i>
   </energy>
  </scstep>
  <scstep>
   <time name="dav">    1.83    1.83</time>
   <time name="total">    3.16    3.17</time>
   <energy>
    <i name="e_fr_energy">   -116.26551595 </i>
    <i name="e_wo_entrp">   -116.15982507 </i>
    <i name="e_0_energy">   -116.21267051 </i>
   </energy>
  </scstep>
  <scstep>
   <time name="dav">    1.84    1.84</time>
   <time name="total">    3.16    3.17</time>
   <energy>
    <i name="e_fr_energy">   -116.26537817 </i>
    <i name="e_wo_entrp">   -116.15356311 </i>
    <i name="e_0_energy">   -116.20947064 </i>
   </energy>
  </scstep>
  <scstep>
   <time name="dav">    1.94    1.94</time>
   <time name="total">    3.26    3.27</time>
   <energy>
    <i name="e_fr_energy">   -116.26399723 </i>
    <i name="e_wo_entrp">   -116.15439072 </i>
    <i name="e_0_energy">   -116.20919397 </i>
   </energy>
  </scstep>
  <scstep>
   <time name="dav">    1.95    1.95</time>
   <time name="total">    3.28    3.28</time>
   <energy>
    <i name="e_fr_energy">   -116.26294081 </i>
    <i name="e_wo_entrp">   -116.15232780 </i>
    <i name="e_0_energy">   -116.20763431 </i>
   </energy>
  </scstep>
  <scstep>
   <time name="dav">    1.94    1.94</time>
   <time name="total">    3.27    3.28</time>
   <energy>
    <i name="e_fr_energy">   -116.26237341 </i>
    <i name="e_wo_entrp">   -116.15220236 </i>
    <i name="e_0_energy">   -116.20728788 </i>
   </energy>
  </scstep>
  <scstep>
   <time name="dav">    1.24    1.25</time>
   <time name="total">    2.58    2.58</time>
   <energy>
    <i name="e_fr_energy">   -116.26224531 </i>
    <i name="e_wo_entrp">   -116.15240545 </i>
    <i name="e_0_energy">   -116.20732538 </i>
   </energy>
  </scstep>
  <scstep>
   <time name="dav">    1.35    1.35</time>
   <time name="total">    2.42    2.42</time>
   <energy>
    <i name="alphaZ">      2.09028485 </i>
    <i name="ewald">   5452.96431315 </i>
    <i name="hartreedc">  -6957.90304731 </i>
    <i name="XCdc">    138.59189698 </i>
    <i name="pawpsdc">   4465.65235170 </i>
    <i name="pawaedc">  -4456.02210166 </i>
    <i name="eentropy">     -0.10934732 </i>
    <i name="bandstr">   -634.46928673 </i>
    <i name="atom">   1872.94269914 </i>
    <i name="e_fr_energy">   -116.26223719 </i>
    <i name="e_wo_entrp">   -116.15288987 </i>
    <i name="e_0_energy">   -116.20756353 </i>
   </energy>
  </scstep>
  <structure>
   <crystal>
    <varray name="basis" >
     <v>      20.00000000       0.00000000       0.00000000 </v>
     <v>       0.00000000      20.00000000       0.00000000 </v>
     <v>       0.00000000       0.00000000      20.00000000 </v>
    </varray>
    <i name="volume">   8000.00000000 </i>
    <varray name="rec_basis" >
     <v>       0.05000000       0.00000000       0.00000000 </v>
     <v>       0.00000000       0.05000000       0.00000000 </v>
     <v>       0.00000000       0.00000000       0.05000000 </v>
    </varray>
   </crystal>
   <varray name="positions" >
    <v>       0.82644946       0.15946855       0.90030723 </v>
    <v>       0.81640976       0.20498287       0.97688340 </v>
    <v>       0.86383055       0.24201841       0.93116743 </v>
    <v>       0.84536153       0.14006588      -0.00861324 </v>
    <v>       0.89963944       0.13096613       0.94719162 </v>
    <v>       0.91219171       0.19404663       0.91149891 </v>
    <v>       0.92893967       0.06543705       0.93060994 </v>
    <v>       0.80186558       0.08509682       0.01535761 </v>
    <v>       0.75797209       0.23647912       0.01221384 </v>
    <v>       0.84056264       0.29246404       0.88799374 </v>
    <v>       0.76568264       0.19885311       0.84153319 </v>
    <v>       0.83987008       0.10049897       0.82915208 </v>
    <v>       0.82696219       0.17185959       0.80742255 </v>
    <v>       0.78361652       0.08016159       0.88112215 </v>
    <v>       0.73529873       0.14299427       0.88810838 </v>
    <v>       0.69708547       0.15328111       0.94226432 </v>
    <v>       0.90110520       0.06720318       0.82429724 </v>
    <v>       0.78696375       0.02686616       0.92367140 </v>
    <v>       0.75364515       0.26501758       0.85589605 </v>
    <v>       0.87764596       0.21268198       0.78286006 </v>
    <v>       0.94765187       0.19660696       0.84956209 </v>
   </varray>
  </structure>
  <varray name="forces" >
   <v>      -2.22732290      -0.59284923      -0.36703624 </v>
   <v>      -2.49996807       4.63128212       5.70559389 </v>
   <v>      -1.37162409       3.89265448      -0.84463254 </v>
   <v>      -2.08045585      -2.97435671       3.90267851 </v>
   <v>       5.99296166      -4.04751727       1.05408668 </v>
   <v>       5.64223690       0.23172970      -2.41660276 </v>
   <v>      -1.55882442       4.20612104       1.23450500 </v>
   <v>       2.94784339       3.42459054      -1.12233251 </v>
   <v>       3.58498992      -1.91668752      -2.13967749 </v>
   <v>       1.87261165      -2.85822049       3.12974254 </v>
   <v>      -2.49807040       2.02857552      -0.83462421 </v>
   <v>       1.38987042      -2.28482391      -1.63810706 </v>
   <v>       0.94407001       1.18500578      -3.35265892 </v>
   <v>      -0.97322166      -2.52360080      -0.05914547 </v>
   <v>      -1.91910038      -0.10359897       0.60113813 </v>
   <v>       2.10952118      -0.70601955      -3.84057957 </v>
   <v>      -4.15770823       2.05823633      -0.03560237 </v>
   <v>      -0.38092130       3.34876964      -3.03652304 </v>
   <v>       0.47458383      -4.27501976      -1.40653245 </v>
   <v>      -3.49929853      -2.66411859       1.19419398 </v>
   <v>      -1.79217313      -0.06015237       4.27211593 </v>
  </varray>
  <varray name="stress" >
   <v>      -1.19171969       1.77975016       5.87199746 </v>
   <v>       1.77975016      -5.39573334       2.95750894 </v>
   <v>       5.87199746       2.95750894       1.08522520 </v>
  </varray>
  <energy>
   <i name="e_fr_energy">   -117.10333912 </i>
   <i name="e_wo_entrp">   -117.04866546 </i>
   <i name="e_0_energy">     -0.10934732 </i>
  </energy>
  <time name="totalsc">   39.44   39.55</time>
 </calculation>
 <calculation>
  <scstep>
   <time name="dav">    1.34    1.34</time>
   <time name="total">    2.68    2.68</time>
   <energy>
    <i name="alphaZ">      2.09028485 </i>
    <i name="ewald">   5567.20743812 </i>
    <i name="hartreedc">  -7052.25203612 </i>
    <i name="XCdc">    140.92174094 </i>
    <i name="pawpsdc">   4474.33948427 </i>
    <i name="pawaedc">  -4464.71352925 </i>
    <i name="eentropy">     -0.00255075 </i>
    <i name="bandstr">   -664.47825887 </i>
    <i name="atom">   1872.94269914 </i>
    <i name="e_fr_energy">   -123.94472768 </i>
    <i name="e_wo_entrp">   -123.94217693 </i>
    <i name="e_0_energy">   -123.94345231 </i>
   </energy>
  </scstep>
  <scstep>
   <time name="dav">    1.93    1.93</time>
   <time name="total">    3.25    3.26</time>
   <energy>
    <i name="e_fr_energy">   -124.12538040 </i>
    <i name="e_wo_entrp">   -124.01754515 </i>
    <i name="e_0_energy">   -124.07146278 </i>
   </energy>
  </scstep>
  <scstep>
   <time name="dav">    1.94    1.94</time>
   <time name="total">    3.25    3.26</time>
   <energy>
    <i name="e_fr_energy">   -124.05340761 </i>
    <i name="e_wo_entrp">   -124.02882874 </i>
    <i name="e_0_energy">   -124.04111817 </i>
   </energy>
  </scstep>
  <scstep>
   <time name="dav">    2.04    2.04</time>
   <time name="total">    3.36    3.37</time>
   <energy>
    <i name="e_fr_energy">   -123.95570382 </i>
    <i name="e_wo_entrp">   -123.84749854 </i>
    <i name="e_0_energy">   -123.90160118 </i>
   </energy>
  </scstep>
  <scstep>
   <time name="dav">    2.03    2.06</time>
   <time name="total">    3.35    3.39</time>
   <energy>
    <i name="e_fr_energy">   -123.94854832 </i>
    <i name="e_wo_entrp">   -123.87881998 </i>
    <i name="e_0_energy">   -123.91368415 </i>
   </energy>
  </scstep>
  <scstep>
   <time name="dav">    1.81    1.96</time>
   <time name="total">    3.11    3.31</time>
   <energy>
    <i name="e_fr_energy">   -123.93912894 </i>
    <i name="e_wo_entrp">   -123.84324473 </i>
    <i name="e_0_energy">   -123.89118683 </i>
   </energy>
  </scstep>
  <scstep>
   <time name="dav">    1.94    1.94</time>
   <time name="total">    3.27    3.27</time>
   <energy>
    <i name="e_fr_energy">   -123.93892407 </i>
    <i name="e_wo_entrp">   -123.85424606 </i>
    <i name="e_0_energy">   -123.89658507 </i>
   </energy>
  </scstep>
  <scstep>
   <time name="dav">    1.44    1.44</time>
   <time name="total">    2.78    2.78</time>
   <energy>
    <i name="e_fr_energy">   -123.93860635 </i>
    <i name="e_wo_entrp">   -123.84859235 </i>
    <i name="e_0_energy">   -123.89359935 </i>
   </energy>
  </scstep>
  <scstep>
   <time name="dav">    1.64    1.64</time>
   <time name="total">    2.98    2.98</time>
[...]
   <v>      -0.00033103      -0.00145392       0.00003761 </v>
   <v>      -0.00226108       0.00179509       0.01823162 </v>
   <v>      -0.00390171      -0.00156517      -0.00266412 </v>
   <v>       0.00612850       0.00440691      -0.01037412 </v>
   <v>       0.00486649      -0.00678118       0.00070812 </v>
   <v>      -0.00537353       0.01038945      -0.00671251 </v>
   <v>       0.00509523      -0.00034803      -0.00369776 </v>
   <v>       0.00604529       0.00193291      -0.00179259 </v>
   <v>      -0.00228947       0.00422483      -0.00170273 </v>
  </varray>
  <varray name="stress" >
   <v>      -0.37899373      -0.01606578      -0.03556306 </v>
   <v>      -0.01606578      -0.35815454      -0.02742374 </v>
   <v>      -0.03556306      -0.02742374      -0.40327253 </v>
  </varray>
  <energy>
   <i name="e_fr_energy">   -134.36443164 </i>
   <i name="e_wo_entrp">   -134.30913093 </i>
   <i name="e_0_energy">     -0.11060143 </i>
  </energy>
  <time name="totalsc">   10.08   10.10</time>
  <eigenvalues>
   <array>
    <dimension dim="1">band</dimension>
    <dimension dim="2">kpoint</dimension>
    <dimension dim="3">spin</dimension>
    <field>eigene</field>
    <field>occ</field>
    <set>
     <set comment="spin 1">
      <set comment="kpoint 1">
       <r>  -21.8713    1.0000 </r>
       <r>  -21.5070    1.0000 </r>
       <r>  -17.3672    1.0000 </r>
       <r>  -17.3639    1.0000 </r>
       <r>  -17.3025    1.0000 </r>
       <r>  -17.2982    1.0000 </r>
       <r>  -13.2039    1.0000 </r>
       <r>  -13.1625    1.0000 </r>
       <r>  -13.0533    1.0000 </r>
       <r>  -13.0298    1.0000 </r>
       <r>  -12.9157    1.0000 </r>
       <r>  -12.6628    1.0000 </r>
       <r>   -9.8998    1.0000 </r>
       <r>   -9.6606    1.0000 </r>
       <r>   -9.6327    1.0000 </r>
       <r>   -9.4519    1.0000 </r>
       <r>   -9.4388    1.0000 </r>
       <r>   -9.0059    1.0000 </r>
       <r>   -9.0018    1.0000 </r>
       <r>   -8.9328    1.0000 </r>
       <r>   -8.9052    1.0000 </r>
       <r>   -8.7545    1.0000 </r>
       <r>   -6.4327    1.0000 </r>
       <r>   -6.4280    1.0000 </r>
       <r>   -5.9291    1.0000 </r>
       <r>   -5.9160    1.0000 </r>
       <r>   -3.6946    0.9988 </r>
       <r>   -3.4954    0.5891 </r>
       <r>   -3.4637    0.4121 </r>
       <r>   -0.7980    0.0000 </r>
       <r>   -0.7752    0.0000 </r>
       <r>   -0.4389    0.0000 </r>
       <r>    0.0062    0.0000 </r>
       <r>    0.0113    0.0000 </r>
       <r>    0.1044    0.0000 </r>
       <r>    0.1888    0.0000 </r>
       <r>    0.3217    0.0000 </r>
       <r>    0.3731    0.0000 </r>
       <r>    0.4387    0.0000 </r>
       <r>    0.4505    0.0000 </r>
      </set>
     </set>
    </set>
   </array>
  </eigenvalues>
  <separator name="orbital magnetization" >
   <v name="MAGDIPOLOUT">      0.00000000      0.00000000      0.00000000</v>
  </separator>
  <dos>
   <i name="efermi">     -3.47944259 </i>
   <total>
    <array>
     <dimension dim="1">gridpoints</dimension>
     <dimension dim="2">spin</dimension>
     <field>energy</field>
     <field>total</field>
     <field>integrated</field>
     <set>
      <set comment="spin 1">
       <r>   -22.9874     0.0000     0.0000 </r>
       <r>   -22.9056     0.0000     0.0000 </r>
       <r>   -22.8237     0.0000     0.0000 </r>
       <r>   -22.7419     0.0000     0.0000 </r>
       <r>   -22.6601     0.0000     0.0000 </r>
       <r>   -22.5782     0.0000     0.0000 </r>
       <r>   -22.4964     0.0000     0.0000 </r>
       <r>   -22.4145     0.0000     0.0000 </r>
       <r>   -22.3327     0.0000     0.0000 </r>
       <r>   -22.2508     0.0000     0.0000 </r>
       <r>   -22.1690     0.0003     0.0000 </r>
       <r>   -22.0871     0.0275     0.0023 </r>
       <r>   -22.0053     0.6835     0.0582 </r>
       <r>   -21.9234     4.9258     0.4614 </r>
       <r>   -21.8416    10.5661     1.3262 </r>
       <r>   -21.7597     6.8384     1.8859 </r>
       <r>   -21.6779     1.5095     2.0094 </r>
       <r>   -21.5960     2.4227     2.2077 </r>
       <r>   -21.5142     8.6863     2.9187 </r>
       <r>   -21.4324     9.6532     3.7087 </r>
       <r>   -21.3505     3.2299     3.9731 </r>
       <r>   -21.2687     0.3196     3.9992 </r>
       <r>   -21.1868     0.0091     4.0000 </r>
       <r>   -21.1050     0.0001     4.0000 </r>
       <r>   -21.0231     0.0000     4.0000 </r>
       <r>   -20.9413     0.0000     4.0000 </r>
       <r>   -20.8594     0.0000     4.0000 </r>
       <r>   -20.7776     0.0000     4.0000 </r>
       <r>   -20.6957     0.0000     4.0000 </r>
       <r>   -20.6139     0.0000     4.0000 </r>
       <r>   -20.5320     0.0000     4.0000 </r>
       <r>   -20.4502     0.0000     4.0000 </r>
       <r>   -20.3683     0.0000     4.0000 </r>
       <r>   -20.2865     0.0000     4.0000 </r>
       <r>   -20.2047     0.0000     4.0000 </r>
       <r>   -20.1228     0.0000     4.0000 </r>
       <r>   -20.0410     0.0000     4.0000 </r>
       <r>   -19.9591     0.0000     4.0000 </r>
       <r>   -19.8773     0.0000     4.0000 </r>
       <r>   -19.7954     0.0000     4.0000 </r>
       <r>   -19.7136     0.0000     4.0000 </r>
       <r>   -19.6317     0.0000     4.0000 </r>
       <r>   -19.5499     0.0000     4.0000 </r>
       <r>   -19.4680     0.0000     4.0000 </r>
       <r>   -19.3862     0.0000     4.0000 </r>
       <r>   -19.3043     0.0000     4.0000 </r>
       <r>   -19.2225     0.0000     4.0000 </r>
       <r>   -19.1406     0.0000     4.0000 </r>
       <r>   -19.0588     0.0000     4.0000 </r>
       <r>   -18.9770     0.0000     4.0000 </r>
       <r>   -18.8951     0.0000     4.0000 </r>
       <r>   -18.8133     0.0000     4.0000 </r>
       <r>   -18.7314     0.0000     4.0000 </r>
       <r>   -18.6496     0.0000     4.0000 </r>
       <r>   -18.5677     0.0000     4.0000 </r>
       <r>   -18.4859     0.0000     4.0000 </r>
       <r>   -18.4040     0.0000     4.0000 </r>
       <r>   -18.3222     0.0000     4.0000 </r>
       <r>   -18.2403     0.0000     4.0000 </r>
       <r>   -18.1585     0.0000     4.0000 </r>
       <r>   -18.0766     0.0000     4.0000 </r>
       <r>   -17.9948     0.0000     4.0000 </r>
       <r>   -17.9129     0.0000     4.0000 </r>
       <r>   -17.8311     0.0000     4.0000 </r>
       <r>   -17.7493     0.0000     4.0000 </r>
       <r>   -17.6674     0.0005     4.0000 </r>
       <r>   -17.5856     0.0465     4.0038 </r>
       <r>   -17.5037     1.2925     4.1096 </r>
       <r>   -17.4219    11.1660     5.0235 </r>
       <r>   -17.3400    32.8703     7.7139 </r>
       <r>   -17.2582    35.7538    10.6402 </r>
       <r>   -17.1763    14.4880    11.8260 </r>
       <r>   -17.0945     2.0348    11.9925 </r>
       <r>   -17.0126     0.0902    11.9999 </r>
       <r>   -16.9308     0.0012    12.0000 </r>
       <r>   -16.8489     0.0000    12.0000 </r>
       <r>   -16.7671     0.0000    12.0000 </r>
       <r>   -16.6852     0.0000    12.0000 </r>
       <r>   -16.6034     0.0000    12.0000 </r>
       <r>   -16.5216     0.0000    12.0000 </r>
       <r>   -16.4397     0.0000    12.0000 </r>
       <r>   -16.3579     0.0000    12.0000 </r>
       <r>   -16.2760     0.0000    12.0000 </r>
       <r>   -16.1942     0.0000    12.0000 </r>
       <r>   -16.1123     0.0000    12.0000 </r>
       <r>   -16.0305     0.0000    12.0000 </r>
       <r>   -15.9486     0.0000    12.0000 </r>
       <r>   -15.8668     0.0000    12.0000 </r>
       <r>   -15.7849     0.0000    12.0000 </r>
       <r>   -15.7031     0.0000    12.0000 </r>
       <r>   -15.6212     0.0000    12.0000 </r>
       <r>   -15.5394     0.0000    12.0000 </r>
       <r>   -15.4575     0.0000    12.0000 </r>
       <r>   -15.3757     0.0000    12.0000 </r>
       <r>   -15.2939     0.0000    12.0000 </r>
       <r>   -15.2120     0.0000    12.0000 </r>
       <r>   -15.1302     0.0000    12.0000 </r>
       <r>   -15.0483     0.0000    12.0000 </r>
       <r>   -14.9665     0.0000    12.0000 </r>
       <r>   -14.8846     0.0000    12.0000 </r>
       <r>   -14.8028     0.0000    12.0000 </r>
       <r>   -14.7209     0.0000    12.0000 </r>
       <r>   -14.6391     0.0000    12.0000 </r>
       <r>   -14.5572     0.0000    12.0000 </r>
       <r>   -14.4754     0.0000    12.0000 </r>
       <r>   -14.3935     0.0000    12.0000 </r>
       <r>   -14.3117     0.0000    12.0000 </r>
       <r>   -14.2298     0.0000    12.0000 </r>
       <r>   -14.1480     0.0000    12.0000 </r>
       <r>   -14.0662     0.0000    12.0000 </r>
       <r>   -13.9843     0.0000    12.0000 </r>
       <r>   -13.9025     0.0000    12.0000 </r>
       <r>   -13.8206     0.0000    12.0000 </r>
       <r>   -13.7388     0.0000    12.0000 </r>
       <r>   -13.6569     0.0000    12.0000 </r>
       <r>   -13.5751     0.0000    12.0000 </r>
       <r>   -13.4932     0.0006    12.0000 </r>
       <r>   -13.4114     0.0455    12.0038 </r>
       <r>   -13.3295     1.1001    12.0938 </r>
       <r>   -13.2477     8.2830    12.7717 </r>
       <r>   -13.1658    21.5768    14.5377 </r>
       <r>   -13.0840    27.2494    16.7680 </r>
       <r>   -13.0021    27.6219    19.0288 </r>
       <r>   -12.9203    21.2309    20.7664 </r>
       <r>   -12.8385    11.7635    21.7292 </r>
       <r>   -12.7566     5.2634    22.1600 </r>
       <r>   -12.6748     8.6132    22.8650 </r>
       <r>   -12.5929     9.9209    23.6770 </r>
       <r>   -12.5111     3.5569    23.9681 </r>
       <r>   -12.4292     0.3779    23.9990 </r>
       <r>   -12.3474     0.0116    24.0000 </r>
       <r>   -12.2655     0.0001    24.0000 </r>
       <r>   -12.1837     0.0000    24.0000 </r>
       <r>   -12.1018     0.0000    24.0000 </r>
       <r>   -12.0200     0.0000    24.0000 </r>
       <r>   -11.9381     0.0000    24.0000 </r>
       <r>   -11.8563     0.0000    24.0000 </r>
       <r>   -11.7744     0.0000    24.0000 </r>
       <r>   -11.6926     0.0000    24.0000 </r>
       <r>   -11.6108     0.0000    24.0000 </r>
       <r>   -11.5289     0.0000    24.0000 </r>
       <r>   -11.4471     0.0000    24.0000 </r>
       <r>   -11.3652     0.0000    24.0000 </r>
       <r>   -11.2834     0.0000    24.0000 </r>
       <r>   -11.2015     0.0000    24.0000 </r>
       <r>   -11.1197     0.0000    24.0000 </r>
       <r>   -11.0378     0.0000    24.0000 </r>
       <r>   -10.9560     0.0000    24.0000 </r>
       <r>   -10.8741     0.0000    24.0000 </r>
       <r>   -10.7923     0.0000    24.0000 </r>
       <r>   -10.7104     0.0000    24.0000 </r>
       <r>   -10.6286     0.0000    24.0000 </r>
       <r>   -10.5467     0.0000    24.0000 </r>
       <r>   -10.4649     0.0000    24.0000 </r>
       <r>   -10.3831     0.0000    24.0000 </r>
       <r>   -10.3012     0.0000    24.0000 </r>
       <r>   -10.2194     0.0001    24.0000 </r>
       <r>   -10.1375     0.0094    24.0008 </r>
       <r>   -10.0557     0.3263    24.0275 </r>
       <r>    -9.9738     3.2690    24.2950 </r>
       <r>    -9.8920     9.7026    25.0892 </r>
       <r>    -9.8101     9.1950    25.8417 </r>
       <r>    -9.7283     8.0429    26.5000 </r>
       <r>    -9.6464    18.4978    28.0140 </r>
       <r>    -9.5646    20.3091    29.6762 </r>
       <r>    -9.4827    18.0120    31.1505 </r>
       <r>    -9.4009    21.8078    32.9353 </r>
       <r>    -9.3191    11.1654    33.8492 </r>
       <r>    -9.2372     1.7839    33.9952 </r>
       <r>    -9.1554     0.8711    34.0665 </r>
       <r>    -9.0735     7.9126    34.7141 </r>
       <r>    -8.9917    26.7366    36.9024 </r>
       <r>    -8.9098    36.1925    39.8647 </r>
       <r>    -8.8280    24.3886    41.8608 </r>
       <r>    -8.7461    14.6713    43.0616 </r>
       <r>    -8.6643     8.9910    43.7975 </r>
       <r>    -8.5824     2.2922    43.9851 </r>
       <r>    -8.5006     0.1785    43.9997 </r>
       <r>    -8.4187     0.0040    44.0000 </r>
       <r>    -8.3369     0.0000    44.0000 </r>
       <r>    -8.2550     0.0000    44.0000 </r>
       <r>    -8.1732     0.0000    44.0000 </r>
       <r>    -8.0914     0.0000    44.0000 </r>
       <r>    -8.0095     0.0000    44.0000 </r>
       <r>    -7.9277     0.0000    44.0000 </r>
       <r>    -7.8458     0.0000    44.0000 </r>
       <r>    -7.7640     0.0000    44.0000 </r>
       <r>    -7.6821     0.0000    44.0000 </r>
       <r>    -7.6003     0.0000    44.0000 </r>
       <r>    -7.5184     0.0000    44.0000 </r>
       <r>    -7.4366     0.0000    44.0000 </r>
       <r>    -7.3547     0.0000    44.0000 </r>
       <r>    -7.2729     0.0000    44.0000 </r>
       <r>    -7.1910     0.0000    44.0000 </r>
       <r>    -7.1092     0.0000    44.0000 </r>
       <r>    -7.0273     0.0000    44.0000 </r>
       <r>    -6.9455     0.0000    44.0000 </r>
       <r>    -6.8637     0.0000    44.0000 </r>
       <r>    -6.7818     0.0000    44.0000 </r>
       <r>    -6.7000     0.0034    44.0003 </r>
       <r>    -6.6181     0.1912    44.0159 </r>
       <r>    -6.5363     3.0905    44.2689 </r>
       <r>    -6.4544    14.6472    45.4677 </r>
       <r>    -6.3726    20.8223    47.1719 </r>
       <r>    -6.2907     8.9341    47.9032 </r>
       <r>    -6.2089     1.1420    47.9966 </r>
       <r>    -6.1270     0.1382    48.0079 </r>
       <r>    -6.0452     1.9604    48.1684 </r>
       <r>    -5.9633    11.7668    49.1315 </r>
       <r>    -5.8815    21.2860    50.8736 </r>
       <r>    -5.7996    11.7210    51.8330 </r>
       <r>    -5.7178     1.9446    51.9921 </r>
       <r>    -5.6360     0.0949    51.9999 </r>
       <r>    -5.5541     0.0013    52.0000 </r>
       <r>    -5.4723     0.0000    52.0000 </r>
       <r>    -5.3904     0.0000    52.0000 </r>
       <r>    -5.3086     0.0000    52.0000 </r>
       <r>    -5.2267     0.0000    52.0000 </r>
       <r>    -5.1449     0.0000    52.0000 </r>
       <r>    -5.0630     0.0000    52.0000 </r>
       <r>    -4.9812     0.0000    52.0000 </r>
       <r>    -4.8993     0.0000    52.0000 </r>
       <r>    -4.8175     0.0000    52.0000 </r>
       <r>    -4.7356     0.0000    52.0000 </r>
       <r>    -4.6538     0.0000    52.0000 </r>
       <r>    -4.5719     0.0000    52.0000 </r>
       <r>    -4.4901     0.0000    52.0000 </r>
       <r>    -4.4083     0.0000    52.0000 </r>
       <r>    -4.3264     0.0000    52.0000 </r>
       <r>    -4.2446     0.0000    52.0000 </r>
       <r>    -4.1627     0.0000    52.0000 </r>
       <r>    -4.0809     0.0000    52.0000 </r>
       <r>    -3.9990     0.0002    52.0000 </r>
       <r>    -3.9172     0.0199    52.0016 </r>
       <r>    -3.8353     0.5483    52.0465 </r>
       <r>    -3.7535     4.3807    52.4051 </r>
       <r>    -3.6716    10.5711    53.2703 </r>
       <r>    -3.5898    10.3579    54.1180 </r>
       <r>    -3.5079    15.4481    55.3824 </r>
       <r>    -3.4261    20.7177    57.0781 </r>
       <r>    -3.3442     9.7531    57.8763 </r>
       <r>    -3.2624     1.4449    57.9946 </r>
       <r>    -3.1806     0.0651    57.9999 </r>
       <r>    -3.0987     0.0009    58.0000 </r>
       <r>    -3.0169     0.0000    58.0000 </r>
       <r>    -2.9350     0.0000    58.0000 </r>
       <r>    -2.8532     0.0000    58.0000 </r>
       <r>    -2.7713     0.0000    58.0000 </r>
       <r>    -2.6895     0.0000    58.0000 </r>
       <r>    -2.6076     0.0000    58.0000 </r>
       <r>    -2.5258     0.0000    58.0000 </r>
       <r>    -2.4439     0.0000    58.0000 </r>
       <r>    -2.3621     0.0000    58.0000 </r>
       <r>    -2.2802     0.0000    58.0000 </r>
       <r>    -2.1984     0.0000    58.0000 </r>
       <r>    -2.1165     0.0000    58.0000 </r>
       <r>    -2.0347     0.0000    58.0000 </r>
       <r>    -1.9529     0.0000    58.0000 </r>
       <r>    -1.8710     0.0000    58.0000 </r>
       <r>    -1.7892     0.0000    58.0000 </r>
       <r>    -1.7073     0.0000    58.0000 </r>
       <r>    -1.6255     0.0000    58.0000 </r>
       <r>    -1.5436     0.0000    58.0000 </r>
       <r>    -1.4618     0.0000    58.0000 </r>
       <r>    -1.3799     0.0000    58.0000 </r>
       <r>    -1.2981     0.0000    58.0000 </r>
       <r>    -1.2162     0.0000    58.0000 </r>
       <r>    -1.1344     0.0000    58.0000 </r>
       <r>    -1.0525     0.0049    58.0004 </r>
       <r>    -0.9707     0.2431    58.0203 </r>
       <r>    -0.8888     3.5023    58.3070 </r>
       <r>    -0.8070    15.2097    59.5518 </r>
       <r>    -0.7252    20.3596    61.2182 </r>
       <r>    -0.6433     8.4897    61.9130 </r>
       <r>    -0.5615     2.0370    62.0798 </r>
       <r>    -0.4796     5.9270    62.5649 </r>
       <r>    -0.3978    10.6847    63.4394 </r>
       <r>    -0.3159     5.8485    63.9180 </r>
       <r>    -0.2341     0.9700    63.9974 </r>
       <r>    -0.1522     0.5940    64.0461 </r>
       <r>    -0.0704     6.0429    64.5406 </r>
       <r>     0.0115    21.0371    66.2625 </r>
       <r>     0.0933    28.4376    68.5900 </r>
       <r>     0.1752    23.7864    70.5368 </r>
       <r>     0.2570    19.2318    72.1109 </r>
       <r>     0.3389    23.7826    74.0574 </r>
       <r>     0.4207    33.6239    76.8094 </r>
       <r>     0.5025    27.9168    79.0943 </r>
       <r>     0.5844     9.8367    79.8994 </r>
       <r>     0.6662     1.1850    79.9964 </r>
       <r>     0.7481     0.0436    80.0000 </r>
       <r>     0.8299     0.0005    80.0000 </r>
       <r>     0.9118     0.0000    80.0000 </r>
       <r>     0.9936     0.0000    80.0000 </r>
       <r>     1.0755     0.0000    80.0000 </r>
       <r>     1.1573     0.0000    80.0000 </r>
       <r>     1.2392     0.0000    80.0000 </r>
       <r>     1.3210     0.0000    80.0000 </r>
       <r>     1.4029     0.0000    80.0000 </r>
       <r>     1.4847     0.0000    80.0000 </r>
       <r>     1.5666     0.0000    80.0000 </r>
      </set>
     </set>
    </array>
   </total>
  </dos>
 </calculation>
 <structure name="finalpos" >
  <crystal>
   <varray name="basis" >
    <v>      20.00000000       0.00000000       0.00000000 </v>
    <v>       0.00000000      20.00000000       0.00000000 </v>
    <v>       0.00000000       0.00000000      20.00000000 </v>
   </varray>
   <i name="volume">   8000.00000000 </i>
   <varray name="rec_basis" >
    <v>       0.05000000       0.00000000       0.00000000 </v>
    <v>       0.00000000       0.05000000       0.00000000 </v>
    <v>       0.00000000       0.00000000       0.05000000 </v>
   </varray>
  </crystal>
  <varray name="positions" >
   <v>       0.82785747       0.16029018       0.90235230 </v>
   <v>       0.83396721       0.21533046       0.99764937 </v>
   <v>       0.87486038       0.24696897       0.94881511 </v>
   <v>       0.85599000       0.14790594       0.00536054 </v>
   <v>       0.91162726       0.13738473       0.96082095 </v>
   <v>       0.92311879       0.19935390       0.92553824 </v>
   <v>       0.94091456       0.09180945       0.95626596 </v>
   <v>       0.83410824       0.11096851       0.03874229 </v>
   <v>       0.79107259       0.23783679       0.02241882 </v>
   <v>       0.86889330       0.29784288       0.93054734 </v>
   <v>       0.75546990       0.18791850       0.83068680 </v>
   <v>       0.82352002       0.09459148       0.81719562 </v>
   <v>       0.81528374       0.16351700       0.79834181 </v>
   <v>       0.76953538       0.07677128       0.86019556 </v>
   <v>       0.72777274       0.13376070       0.86881870 </v>
   <v>       0.68353948       0.13614500       0.90040815 </v>
   <v>       0.86432907       0.06195627       0.80218582 </v>
   <v>       0.76338663       0.02880843       0.88516106 </v>
   <v>       0.73426048       0.23775395       0.82588408 </v>
   <v>       0.84722311       0.19149347       0.76440058 </v>
   <v>       0.96201964       0.20864212       0.88871088 </v>
  </varray>
 </structure>
</modeling>
