basalPlane                              
           1
    20.000000    0.000000    0.000000
     0.000000   20.000000    0.000000
     0.000000    0.000000   20.000000
   Cr   C    H    C    H 
   1   5   4   5   6
Direct configuration=     1
   0.82730000  0.15925000  0.89830000
   0.79305000  0.21920000  0.99000000
   0.86010000  0.26965000  0.92200000
   0.83180000  0.12030000  0.01030000
   0.91815000  0.10645000  0.94690000
   0.93645000  0.19865000  0.89320000
   0.93105000  0.05665000  0.92685000
   0.79660000  0.07870000  0.01750000
   0.74895000  0.24000000  0.01665000
   0.83435000  0.29770000  0.88170000
   0.75390000  0.22270000  0.83975000
   0.85830000  0.08270000  0.81950000
   0.84180000  0.18520000  0.78830000
   0.78015000  0.05665000  0.89005000
   0.71470000  0.14245000  0.90135000
   0.69355000  0.15610000  0.95050000
   0.90970000  0.06380000  0.82550000
   0.78825000  0.02100000  0.93155000
   0.75550000  0.27435000  0.85925000
   0.88615000  0.21760000  0.78210000
   0.94895000  0.19795000  0.83925000
Direct configuration=     2
   0.82404506  0.15731259  0.89734142
   0.80341451  0.21138322  0.98149139
   0.86247286  0.25901012  0.92738269
   0.83857434  0.12947911  0.00332489
   0.90967339  0.11804313  0.94712837
   0.92672944  0.19683125  0.90212290
   0.93117870  0.05728585  0.92739346
   0.79661341  0.07883308  0.01718135
   0.75039384  0.23990848  0.01649789
   0.83558548  0.29731070  0.88205900
   0.75940506  0.21073145  0.84062452
   0.84870968  0.09110818  0.82432263
   0.83459008  0.17871129  0.79710869
   0.78239791  0.06972987  0.88554600
   0.72494614  0.14235537  0.89431966
   0.69364768  0.15558114  0.94994720
   0.90918791  0.06391907  0.82513159
   0.78806589  0.02112769  0.93054594
   0.75453112  0.27354857  0.85888682
   0.88512363  0.21747176  0.78168489
   0.94946387  0.19736808  0.84045869
Direct configuration=     3
   0.82163464  0.15587785  0.89663155
   0.81108989  0.20559454  0.97519038
   0.86423007  0.25113082  0.93136880
   0.84359105  0.13627666 -0.00184049
   0.90339608  0.12662836  0.94729749
   0.91953093  0.19548439  0.90873071
   0.93127400  0.05775672  0.92779592
   0.79662334  0.07893162  0.01694538
   0.75146306  0.23984071  0.01638524
   0.83650041  0.29702241  0.88232486
   0.76348181  0.20186821  0.84127214
   0.84160762  0.09733480  0.82789400
   0.82925082  0.17390611  0.80363192
   0.78406259  0.07941609  0.88221058
   0.73253387  0.14228529  0.88911339
   0.69372001  0.15519690  0.94953783
   0.90880868  0.06400725  0.82485877
   0.78792955  0.02122225  0.92980239
   0.75381363  0.27295508  0.85861787
   0.88436355  0.21737680  0.78137749
   0.94984442  0.19693715  0.84135377
Direct configuration=     4
   0.82259315  0.15644838  0.89691383
   0.80803776  0.20789642  0.97769599
   0.86353131  0.25426404  0.92978372
   0.84159614  0.13357360  0.00021354
   0.90589227  0.12321442  0.94723024
   0.92239343  0.19601997  0.90610310
   0.93123611  0.05756948  0.92763588
   0.79661939  0.07889244  0.01703921
   0.75103788  0.23986766  0.01643003
   0.83613658  0.29713705  0.88221914
   0.76186068  0.20539270  0.84101461
   0.84443177  0.09485877  0.82647384
   0.83137399  0.17581690  0.80103795
   0.78340063  0.07556434  0.88353692
   0.72951659  0.14231316  0.89118368
   0.69369125  0.15534969  0.94970061
   0.90895948  0.06397219  0.82496726
   0.78798377  0.02118465  0.93009807
   0.75409894  0.27319108  0.85872482
   0.88466580  0.21741456  0.78149973
   0.94969309  0.19710851  0.84099784
Direct configuration=     5
   0.82593731  0.15906745  0.89985656
   0.81529789  0.20536981  0.97699132
   0.86379081  0.24364473  0.93098366
   0.84486146  0.13920365 -0.00744097
   0.90046986  0.12993664  0.94719675
   0.91354659  0.19430871  0.91078231
   0.92924466  0.06439217  0.93021496
   0.80116885  0.08427283  0.01558094
   0.75705117  0.23692915  0.01277378
   0.83997482  0.29308465  0.88722682
   0.76517506  0.19972162  0.84146432
   0.84047591  0.09974990  0.82879639
   0.82754812  0.17238516  0.80657462
   0.78358785  0.07955104  0.88144285
   0.73453082  0.14290381  0.88851681
   0.69663469  0.15355583  0.94325192
   0.90214831  0.06677408  0.82438623
   0.78709922  0.02611161  0.92452491
   0.75370541  0.26610309  0.85627173
   0.87857825  0.21331050  0.78267939
   0.94792296  0.19667357  0.84842468
Direct configuration=     6
   0.82644946  0.15946855  0.90030723
   0.81640976  0.20498287  0.97688340
   0.86383055  0.24201841  0.93116743
   0.84536153  0.14006588 -0.00861324
   0.89963944  0.13096613  0.94719162
   0.91219171  0.19404663  0.91149891
   0.92893967  0.06543705  0.93060994
   0.80186558  0.08509682  0.01535761
   0.75797209  0.23647912  0.01221384
   0.84056264  0.29246404  0.88799374
   0.76568264  0.19885311  0.84153319
   0.83987008  0.10049897  0.82915208
   0.82696219  0.17185959  0.80742255
   0.78361652  0.08016159  0.88112215
   0.73529873  0.14299427  0.88810838
   0.69708547  0.15328111  0.94226432
   0.90110520  0.06720318  0.82429724
   0.78696375  0.02686616  0.92367140
   0.75364515  0.26501758  0.85589605
   0.87764596  0.21268198  0.78286006
   0.94765187  0.19660696  0.84956209
Direct configuration=     7
   0.82629010  0.16043306  0.90167385
   0.81827311  0.20789245  0.98187033
   0.86268416  0.23951615  0.93106728
   0.84529518  0.14053113 -0.00937935
   0.90215063  0.13105227  0.94816924
   0.91237677  0.19326921  0.91193801
   0.92630527  0.07338939  0.93327978
   0.80730372  0.09146988  0.01344662
   0.76486547  0.23295463  0.00806040
   0.84456943  0.28740017  0.89387081
   0.76524981  0.19746929  0.84100557
   0.83888099  0.10118615  0.82895512
   0.82562710  0.17098195  0.80747555
   0.78280491  0.08009616  0.87984664
   0.73640356  0.14324026  0.88712388
   0.70079526  0.15156850  0.93487558
   0.89320536  0.07078201  0.82392518
   0.78608826  0.03290341  0.91755318
   0.75386490  0.25684555  0.85313686
   0.87079039  0.20777163  0.78467676
   0.94492562  0.19629675  0.85792871
Direct configuration=     8
   0.82609333  0.16162399  0.90336128
   0.82057389  0.21148505  0.98802795
   0.86126866  0.23642646  0.93094361
   0.84521325  0.14110559 -0.01032530
   0.90525133  0.13115862  0.94937637
   0.91260526  0.19230930  0.91248020
   0.92305243  0.08320858  0.93657637
   0.81401848  0.09933904  0.01108703
   0.77337709  0.22860275  0.00293193
   0.84951683  0.28114753  0.90112755
   0.76471537  0.19576061  0.84035409
   0.83765971  0.10203465  0.82871193
   0.82397858  0.16989828  0.80754099
   0.78180279  0.08001537  0.87827169
   0.73776776  0.14354400  0.88590826
   0.70537592  0.14945386  0.92575231
   0.88345102  0.07520098  0.82346576
   0.78500724  0.04035794  0.90999869
   0.75413624  0.24675511  0.84972993
   0.86232545  0.20170856  0.78691993
   0.94155937  0.19591373  0.86825944
Direct configuration=     9
   0.82613546  0.16136898  0.90299995
   0.82008123  0.21071577  0.98670943
   0.86157176  0.23708805  0.93097009
   0.84523079  0.14098258 -0.01012275
   0.90458739  0.13113585  0.94911789
   0.91255633  0.19251484  0.91236410
   0.92374895  0.08110601  0.93587048
   0.81258066  0.09765403  0.01159229
   0.77155451  0.22953461  0.00403008
   0.84845745  0.28248640  0.89957368
   0.76482981  0.19612649  0.84049359
   0.83792122  0.10185296  0.82876400
   0.82433158  0.17013033  0.80752698
   0.78201737  0.08003267  0.87860893
   0.73747565  0.14347896  0.88616856
   0.70439507  0.14990666  0.92770586
   0.88553970  0.07425475  0.82356414
   0.78523872  0.03876171  0.91161632
   0.75407814  0.24891576  0.85045945
   0.86413804  0.20300684  0.78643960
   0.94228018  0.19599574  0.86604733
Direct configuration=    10
   0.82612297  0.16144459  0.90310709
   0.82022731  0.21094387  0.98710039
   0.86148188  0.23689188  0.93096224
   0.84522559  0.14101906 -0.01018281
   0.90478425  0.13114260  0.94919453
   0.91257084  0.19245390  0.91239852
   0.92354243  0.08172944  0.93607978
   0.81300699  0.09815365  0.01144247
   0.77209493  0.22925830  0.00370447
   0.84877157  0.28208941  0.90003442
   0.76479588  0.19601801  0.84045223
   0.83784368  0.10190683  0.82874856
   0.82422691  0.17006152  0.80753113
   0.78195374  0.08002754  0.87850893
   0.73756226  0.14349824  0.88609137
   0.70468591  0.14977240  0.92712661
   0.88492038  0.07453532  0.82353497
   0.78517008  0.03923501  0.91113668
   0.75409537  0.24827510  0.85024314
   0.86360059  0.20262189  0.78658203
   0.94206645  0.19597142  0.86670324
Direct configuration=    11
   0.82347994  0.15829360  0.90166096
   0.82311780  0.21081938  0.98804589
   0.86214325  0.24451251  0.93375571
   0.84471330  0.13928243 -0.00429234
   0.90628445  0.13093631  0.95123800
   0.91762109  0.19245402  0.91270714
   0.92326083  0.08409536  0.93706444
   0.81604426  0.10139729  0.01074939
   0.77395322  0.22845300  0.00283901
   0.85045933  0.28024179  0.90273809
   0.76249855  0.19472509  0.83912893
   0.83522038  0.10020743  0.82859227
   0.82366759  0.16979724  0.80535757
   0.78109222  0.08321768  0.87435131
   0.73717773  0.14087815  0.88278645
   0.70435392  0.14948214  0.92563147
   0.88241837  0.07554196  0.82298725
   0.78464523  0.03925676  0.91028702
   0.75378432  0.24629211  0.84881784
   0.86107686  0.20090730  0.78670472
   0.94173737  0.19625846  0.86934888
Direct configuration=    12
   0.82458773  0.15961430  0.90226709
   0.82190628  0.21087156  0.98764959
   0.86186605  0.24131842  0.93258486
   0.84492802  0.14001031 -0.00676126
   0.90565566  0.13102277  0.95038150
   0.91550434  0.19245397  0.91257779
   0.92337886  0.08310371  0.93665173
   0.81477122  0.10003776  0.01103989
   0.77317434  0.22879053  0.00320176
   0.84975193  0.28101620  0.90160488
   0.76346145  0.19526700  0.83968358
   0.83631990  0.10091971  0.82865778
   0.82390202  0.16990801  0.80626860
   0.78145332  0.08188057  0.87609393
   0.73733890  0.14197633  0.88417167
   0.70449307  0.14960380  0.92625814
   0.88346706  0.07512004  0.82321682
   0.78486521  0.03924764  0.91064314
   0.75391469  0.24712326  0.84941524
   0.86213465  0.20162595  0.78665330
   0.94187530  0.19613815  0.86823999
Direct configuration=    13
   0.82599185  0.15966981  0.90418406
   0.82459688  0.21024170  0.98737561
   0.86448982  0.24307057  0.93657292
   0.84701202  0.14121019 -0.00328451
   0.90549053  0.13247358  0.95279804
   0.91659412  0.19327091  0.91582945
   0.92408609  0.08312665  0.93705180
   0.81577287  0.10066779  0.01173807
   0.77392743  0.22859880  0.00315812
   0.85012633  0.28243801  0.90206122
   0.76146259  0.19381207  0.83769005
   0.83358439  0.09959889  0.82733487
   0.82233351  0.16890479  0.80461834
   0.77999126  0.08180758  0.87276360
   0.73496479  0.13945919  0.88061572
   0.70363990  0.14940690  0.92558046
   0.88244635  0.07515892  0.82263619
   0.78422380  0.03930926  0.90975250
   0.75326137  0.24692408  0.84835959
   0.86140486  0.20128952  0.78588943
   0.94334924  0.19661079  0.86777447
Direct configuration=    14
   0.82656938  0.15969264  0.90497253
   0.82570355  0.20998263  0.98726291
   0.86556900  0.24379125  0.93821324
   0.84786919  0.14170371 -0.00185450
   0.90542261  0.13307031  0.95379198
   0.91704236  0.19360693  0.91716688
   0.92437698  0.08313608  0.93721635
   0.81618485  0.10092693  0.01202524
   0.77423718  0.22851994  0.00314017
   0.85028032  0.28302281  0.90224892
   0.76064044  0.19321365  0.83687010
   0.83245926  0.09905562  0.82679075
   0.82168837  0.16849215  0.80393958
   0.77938991  0.08177756  0.87139381
   0.73398830  0.13842387  0.87915314
   0.70328899  0.14932591  0.92530172
   0.88202652  0.07517491  0.82239737
   0.78395998  0.03933460  0.90938617
   0.75299265  0.24684216  0.84792540
   0.86110469  0.20115115  0.78557525
   0.94395549  0.19680519  0.86758299
Direct configuration=    15
   0.82594445  0.16017440  0.90455701
   0.82502051  0.21117818  0.98960575
   0.86930084  0.24472141  0.94027938
   0.85123269  0.14356845  0.00080612
   0.90694817  0.13219169  0.95641070
   0.91891461  0.19587999  0.91865803
   0.92497357  0.08409104  0.93824351
   0.81663952  0.10086612  0.01356700
   0.77635061  0.22802512  0.00303461
   0.85086247  0.28417784  0.90371884
   0.75943893  0.19172893  0.83536864
   0.83120598  0.09879806  0.82416126
   0.81959804  0.16717995  0.80342020
   0.77721833  0.07910770  0.87010367
   0.73154453  0.13745288  0.87639515
   0.70283994  0.14856430  0.92342578
   0.88048716  0.07494082  0.82168832
   0.78293412  0.04027466  0.90725827
   0.75200493  0.24614480  0.84652995
   0.86038976  0.20078604  0.78439861
   0.94490085  0.19719761  0.86886920
Direct configuration=    16
   0.82598359  0.16014422  0.90458304
   0.82506329  0.21110330  0.98945900
   0.86906709  0.24466315  0.94014997
   0.85102201  0.14345165  0.00063946
   0.90685262  0.13224672  0.95624667
   0.91879734  0.19573762  0.91856463
   0.92493620  0.08403123  0.93817917
   0.81661104  0.10086993  0.01347043
   0.77621823  0.22805611  0.00304122
   0.85082601  0.28410549  0.90362677
   0.75951418  0.19182193  0.83546269
   0.83128449  0.09881419  0.82432596
   0.81972897  0.16726214  0.80345273
   0.77735435  0.07927493  0.87018448
   0.73169760  0.13751370  0.87656790
   0.70286806  0.14861200  0.92354329
   0.88058358  0.07495548  0.82173274
   0.78299837  0.04021578  0.90739155
   0.75206680  0.24618848  0.84661735
   0.86043454  0.20080891  0.78447231
   0.94484164  0.19717303  0.86878864
Direct configuration=    17
   0.82510839  0.16038358  0.90410362
   0.82647317  0.21175191  0.99033822
   0.87003962  0.24504363  0.94034962
   0.85163813  0.14357565  0.00190365
   0.90834616  0.13330116  0.95689857
   0.91991401  0.19586791  0.91916234
   0.92553354  0.08447168  0.93918369
   0.81771033  0.10170544  0.01472470
   0.77656223  0.22830850  0.00367852
   0.85182378  0.28419326  0.90570888
   0.75872681  0.19147472  0.83500462
   0.83042999  0.09856110  0.82327373
   0.81943289  0.16723578  0.80282419
   0.77631671  0.07915234  0.86899447
   0.73100279  0.13721677  0.87583927
   0.70257252  0.14777793  0.92150932
   0.87946360  0.07458578  0.82097079
   0.78210508  0.04003138  0.90625402
   0.75119851  0.24493956  0.84531938
   0.85910733  0.19991229  0.78375641
   0.94524441  0.19755963  0.87070199
Direct configuration=    18
   0.82405079  0.16067282  0.90352428
   0.82817686  0.21253570  0.99140067
   0.87121483  0.24550340  0.94059089
   0.85238266  0.14372550  0.00343130
   0.91015097  0.13457534  0.95768632
   0.92126340  0.19602536  0.91988461
   0.92625536  0.08500393  0.94039755
   0.81903871  0.10271508  0.01624037
   0.77697792  0.22861348  0.00444864
   0.85302948  0.28429932  0.90822491
   0.75777534  0.19105515  0.83445108
   0.82939742  0.09825526  0.82200222
   0.81907510  0.16720392  0.80206466
   0.77506282  0.07900421  0.86755646
   0.73016319  0.13685796  0.87495879
   0.70221539  0.14677004  0.91905148
   0.87811023  0.07413905  0.82005005
   0.78102562  0.03980855  0.90487943
   0.75014928  0.24343035  0.84375090
   0.85750353  0.19882881  0.78289131
   0.94573111  0.19802680  0.87301410
Direct configuration=    19
   0.82399727  0.16082408  0.90363950
   0.82907861  0.21281641  0.99184124
   0.87167973  0.24506281  0.94100380
   0.85300832  0.14422965  0.00353040
   0.91065244  0.13525038  0.95810572
   0.92134025  0.19602960  0.92072330
   0.92673918  0.08535846  0.94112825
   0.81974775  0.10316843  0.01723312
   0.77739095  0.22882699  0.00491260
   0.85368351  0.28468335  0.90944076
   0.75747535  0.19059185  0.83399944
   0.82869635  0.09820164  0.82153923
   0.81849476  0.16695542  0.80189189
   0.77457382  0.07914662  0.86676544
   0.73017207  0.13660784  0.87413362
   0.70162282  0.14625437  0.91807072
   0.87741325  0.07379892  0.81947076
   0.78036025  0.03955592  0.90411114
   0.74941946  0.24290562  0.84288992
   0.85685833  0.19846163  0.78220131
   0.94634552  0.19832002  0.87386783
Direct configuration=    20
   0.82385704  0.16122038  0.90394138
   0.83144125  0.21355188  0.99299556
   0.87289782  0.24390846  0.94208565
   0.85464760  0.14555057  0.00379006
   0.91196635  0.13701901  0.95920457
   0.92154161  0.19604072  0.92292074
   0.92800682  0.08628736  0.94304275
   0.82160548  0.10435625  0.01983420
   0.77847310  0.22938639  0.00612821
   0.85539713  0.28568955  0.91262639
   0.75668937  0.18937800  0.83281609
   0.82685950  0.09806115  0.82032616
   0.81697422  0.16630433  0.80143925
   0.77329262  0.07951975  0.86469291
   0.73019534  0.13595251  0.87197161
   0.70007026  0.14490328  0.91550106
   0.87558713  0.07290775  0.81795297
   0.77861693  0.03889404  0.90209819
   0.74750727  0.24153077  0.84063410
   0.85516786  0.19749959  0.78039347
   0.94795530  0.19908828  0.87610469
Direct configuration=    21
   0.82449577  0.16107279  0.90435594
   0.83132128  0.21371401  0.99357259
   0.87274689  0.24375275  0.94272906
   0.85513893  0.14605450  0.00342653
   0.91180625  0.13639977  0.95985055
   0.92173576  0.19634211  0.92304399
   0.92857847  0.08695324  0.94386734
   0.82248569  0.10488197  0.02090537
   0.77957869  0.22956920  0.00653776
   0.85615763  0.28634377  0.91363680
   0.75658669  0.18916352  0.83217224
   0.82658948  0.09792196  0.82015321
   0.81641105  0.16603242  0.80122163
   0.77323739  0.07911008  0.86442830
   0.73001883  0.13580670  0.87141868
   0.69907717  0.14440474  0.91480233
   0.87481007  0.07254529  0.81728263
   0.77782834  0.03873531  0.90108859
   0.74656195  0.24146494  0.83979145
   0.85475245  0.19737868  0.77948925
   0.94883120  0.19940226  0.87672576
Direct configuration=    22
   0.82556170  0.16082648  0.90504778
   0.83112108  0.21398460  0.99453555
   0.87249501  0.24349288  0.94380282
   0.85595888  0.14689548  0.00281985
   0.91153907  0.13536636  0.96092859
   0.92205977  0.19684508  0.92324967
   0.92953247  0.08806450  0.94524345
   0.82395462  0.10575932  0.02269299
   0.78142376  0.22987429  0.00722124
   0.85742679  0.28743556  0.91532301
   0.75641535  0.18880559  0.83109777
   0.82613886  0.09768969  0.81986458
   0.81547121  0.16557865  0.80085847
   0.77314522  0.07842641  0.86398669
   0.72972427  0.13556336  0.87049593
   0.69741985  0.14357275  0.91363628
   0.87351329  0.07194038  0.81616393
   0.77651230  0.03847041  0.89940372
   0.74498437  0.24135508  0.83838520
   0.85405919  0.19717689  0.77798025
   0.95029294  0.19992624  0.87776224
Direct configuration=    23
   0.82622948  0.16036407  0.90515710
   0.83126240  0.21383585  0.99489326
   0.87208399  0.24394819  0.94435014
   0.85566954  0.14680620  0.00312274
   0.91134600  0.13552634  0.96117145
   0.92217524  0.19666719  0.92355796
   0.93052132  0.08823431  0.94616637
   0.82526315  0.10660699  0.02398349
   0.78242352  0.23029833  0.00798057
   0.85844262  0.28829898  0.91652242
   0.75605557  0.18896055  0.83066945
   0.82600431  0.09747637  0.81988547
   0.81557678  0.16543384  0.80017151
   0.77316574  0.07842262  0.86369045
   0.72944717  0.13535087  0.87038457
   0.69606885  0.14295759  0.91272154
   0.87275817  0.07137425  0.81521014
   0.77551414  0.03782789  0.89840325
   0.74375640  0.24134053  0.83728289
   0.85341130  0.19694009  0.77689156
   0.95157430  0.20037895  0.87828366
Direct configuration=    24
   0.82752473  0.15946716  0.90536915
   0.83153651  0.21354734  0.99558706
   0.87128677  0.24483132  0.94541171
   0.85510833  0.14663305  0.00371023
   0.91097150  0.13583663  0.96164251
   0.92239921  0.19632215  0.92415592
   0.93243931  0.08856366  0.94795650
   0.82780121  0.10825115  0.02648658
   0.78436267  0.23112083  0.00945338
   0.86041293  0.28997370  0.91884883
   0.75535774  0.18926110  0.82983868
   0.82574335  0.09706261  0.81992598
   0.81578155  0.16515296  0.79883906
   0.77320555  0.07841527  0.86311586
   0.72890971  0.13493872  0.87016859
   0.69344841  0.14176442  0.91094730
   0.87129354  0.07027615  0.81336015
   0.77357807  0.03658167  0.89646272
   0.74137462  0.24131231  0.83514482
   0.85215465  0.19648077  0.77477991
   0.95405964  0.20125704  0.87929504
Direct configuration=    25
   0.82763368  0.15906831  0.90452343
   0.83241915  0.21311178  0.99551396
   0.87158625  0.24474954  0.94581399
   0.85492020  0.14693784  0.00424054
   0.91113937  0.13630592  0.96147228
   0.92227046  0.19654693  0.92437497
   0.93390566  0.08842708  0.94924772
   0.82889126  0.10845821  0.02882703
   0.78456171  0.23208912  0.01101153
   0.86160807  0.29152122  0.92025434
   0.75526903  0.18894647  0.82985543
   0.82571959  0.09727332  0.81968716
   0.81558830  0.16489476  0.79852259
   0.77276763  0.07885949  0.86303336
   0.72896787  0.13500909  0.87014252
   0.69159373  0.14091007  0.90965611
   0.87080857  0.06916223  0.81193448
   0.77225692  0.03525905  0.89533818
   0.73972005  0.24138167  0.83360663
   0.85156037  0.19629833  0.77310851
   0.95556213  0.20183958  0.88033524
Direct configuration=    26
   0.82773317  0.15870412  0.90375121
   0.83322509  0.21271407  0.99544720
   0.87185970  0.24467486  0.94618131
   0.85474841  0.14721614  0.00472477
   0.91129265  0.13673442  0.96131684
   0.92215291  0.19675217  0.92457499
   0.93524458  0.08830236  0.95042672
   0.82988658  0.10864727  0.03096407
   0.78474346  0.23297327  0.01243426
   0.86269934  0.29293425  0.92153770
   0.75518804  0.18865918  0.82987073
   0.82569790  0.09746573  0.81946909
   0.81541184  0.16465901  0.79823362
   0.77236777  0.07926511  0.86295802
   0.72902097  0.13507335  0.87011872
   0.68990023  0.14012998  0.90847714
   0.87036575  0.06814511  0.81063272
   0.77105058  0.03405138  0.89431138
   0.73820928  0.24144501  0.83220213
   0.85101773  0.19613175  0.77158236
   0.95693403  0.20237148  0.88128504
Direct configuration=    27
   0.82746992  0.15875894  0.90260483
   0.83256213  0.21337908  0.99573948
   0.87295313  0.24483777  0.94578250
   0.85534949  0.14694287  0.00496079
   0.91172692  0.13642707  0.96108516
   0.92237818  0.19751597  0.92414138
   0.93668535  0.08848878  0.95196034
   0.83064483  0.10835160  0.03390235
   0.78534021  0.23383885  0.01412548
   0.86393165  0.29428751  0.92323728
   0.75516929  0.18875960  0.83021329
   0.82593522  0.09733329  0.81902983
   0.81518601  0.16489706  0.79807425
   0.77185072  0.07896372  0.86329079
   0.72879861  0.13548966  0.87041864
   0.68811587  0.13919945  0.90683335
   0.86989858  0.06689243  0.80903341
   0.76963910  0.03287712  0.89286914
   0.73664917  0.24099036  0.83048242
   0.85033915  0.19582945  0.76977895
   0.95812647  0.20298942  0.88293634
Direct configuration=    28
   0.82732213  0.15878972  0.90196124
   0.83218994  0.21375242  0.99590356
   0.87356699  0.24492923  0.94555861
   0.85568694  0.14678945  0.00509330
   0.91197072  0.13625452  0.96095509
   0.92250465  0.19794477  0.92389796
   0.93749420  0.08859344  0.95282133
   0.83107052  0.10818560  0.03555193
   0.78567524  0.23432480  0.01507494
   0.86462348  0.29504724  0.92419144
   0.75515876  0.18881597  0.83040561
   0.82606845  0.09725893  0.81878322
   0.81505923  0.16503070  0.79798479
   0.77156044  0.07879452  0.86347760
   0.72867377  0.13572338  0.87058702
   0.68711412  0.13867705  0.90591052
   0.86963632  0.06618916  0.80813554
   0.76884668  0.03221789  0.89205945
   0.73577331  0.24073512  0.82951697
   0.84995818  0.19565974  0.76876650
   0.95879592  0.20333634  0.88386339
Direct configuration=    29
   0.82737827  0.15932709  0.90218911
   0.83215219  0.21395662  0.99544714
   0.87352346  0.24546776  0.94554127
   0.85579092  0.14639335  0.00506748
   0.91194731  0.13632077  0.96076355
   0.92274859  0.19761661  0.92398154
   0.93802659  0.08886155  0.95343460
   0.83155058  0.10834024  0.03643180
   0.78595717  0.23467942  0.01580620
   0.86517734  0.29512676  0.92495291
   0.75500075  0.18936094  0.83055118
   0.82579507  0.09672332  0.81882748
   0.81515072  0.16537198  0.79791823
   0.77170478  0.07856309  0.86330961
   0.72850670  0.13561651  0.87073879
   0.68653290  0.13841997  0.90517333
   0.86934199  0.06581180  0.80746956
   0.76828125  0.03193499  0.89140954
   0.73543054  0.24006127  0.82885293
   0.84948957  0.19538342  0.76818817
   0.95926330  0.20371252  0.88444558
Direct configuration=    30
   0.82739443  0.15948187  0.90225475
   0.83214132  0.21401543  0.99531568
   0.87351093  0.24562288  0.94553628
   0.85582086  0.14627926  0.00506004
   0.91194057  0.13633986  0.96070839
   0.92281885  0.19752209  0.92400562
   0.93817993  0.08893878  0.95361124
   0.83168885  0.10838478  0.03668523
   0.78603838  0.23478157  0.01601682
   0.86533686  0.29514966  0.92517223
   0.75495524  0.18951791  0.83059311
   0.82571633  0.09656905  0.81884023
   0.81517707  0.16547027  0.79789906
   0.77174635  0.07849643  0.86326122
   0.72845858  0.13558573  0.87078250
   0.68636550  0.13834593  0.90496100
   0.86925722  0.06570310  0.80727773
   0.76811840  0.03185351  0.89122234
   0.73533182  0.23986719  0.82866167
   0.84935460  0.19530384  0.76802160
   0.95939792  0.20382087  0.88461327
Direct configuration=    31
   0.82745089  0.16016839  0.90268503
   0.83229167  0.21385795  0.99487179
   0.87345963  0.24548946  0.94581108
   0.85566453  0.14635310  0.00484292
   0.91177763  0.13628100  0.96066916
   0.92278648  0.19735284  0.92431120
   0.93855472  0.08929612  0.95404497
   0.83220309  0.10870258  0.03708134
   0.78640958  0.23500765  0.01653270
   0.86574068  0.29532517  0.92560067
   0.75515290  0.18924795  0.83079734
   0.82526651  0.09641798  0.81879354
   0.81503876  0.16532847  0.79831055
   0.77183351  0.07851151  0.86294483
   0.72870094  0.13538720  0.87057566
   0.68590876  0.13821808  0.90447066
   0.86890785  0.06550763  0.80678840
   0.76770464  0.03169397  0.89071983
   0.73504067  0.23961135  0.82817556
   0.84902576  0.19511389  0.76755132
   0.95983080  0.20417771  0.88492143
Direct configuration=    32
   0.82747635  0.16047800  0.90287909
   0.83235948  0.21378692  0.99467160
   0.87343650  0.24542930  0.94593502
   0.85559402  0.14638640  0.00474500
   0.91170414  0.13625445  0.96065147
   0.92277189  0.19727652  0.92444902
   0.93872375  0.08945728  0.95424059
   0.83243501  0.10884591  0.03725999
   0.78657698  0.23510962  0.01676537
   0.86592281  0.29540432  0.92579389
   0.75524204  0.18912620  0.83088944
   0.82506364  0.09634985  0.81877249
   0.81497639  0.16526452  0.79849614
   0.77187282  0.07851831  0.86280213
   0.72881024  0.13529767  0.87048238
   0.68570278  0.13816043  0.90424951
   0.86875029  0.06541947  0.80656771
   0.76751804  0.03162201  0.89049320
   0.73490936  0.23949596  0.82795633
   0.84887745  0.19502822  0.76733922
   0.96002602  0.20433864  0.88506041
Direct configuration=    33
   0.82739117  0.16091079  0.90301511
   0.83203963  0.21364624  0.99495182
   0.87367117  0.24530161  0.94610175
   0.85536680  0.14660094  0.00454827
   0.91145461  0.13605108  0.96079435
   0.92290884  0.19746614  0.92449514
   0.93907534  0.08979263  0.95460422
   0.83296514  0.10928099  0.03742615
   0.78728041  0.23517281  0.01707401
   0.86630212  0.29553578  0.92614642
   0.75542240  0.18886047  0.83110876
   0.82496759  0.09639050  0.81844265
   0.81515529  0.16497853  0.79879722
   0.77170674  0.07835613  0.86267386
   0.72881551  0.13505850  0.87045406
   0.68552854  0.13803712  0.90365130
   0.86816646  0.06540372  0.80618029
   0.76717558  0.03158481  0.88995722
   0.73467566  0.23926913  0.82753066
   0.84840717  0.19468492  0.76705902
   0.96027384  0.20466717  0.88548772
Direct configuration=    34
   0.82736724  0.16103236  0.90305332
   0.83194978  0.21360672  0.99503054
   0.87373708  0.24526574  0.94614859
   0.85530298  0.14666120  0.00449301
   0.91138452  0.13599395  0.96083449
   0.92294731  0.19751941  0.92450810
   0.93917410  0.08988683  0.95470636
   0.83311406  0.10940320  0.03747283
   0.78747800  0.23519056  0.01716070
   0.86640867  0.29557271  0.92624545
   0.75547306  0.18878582  0.83117037
   0.82494061  0.09640192  0.81834999
   0.81520555  0.16489819  0.79888179
   0.77166009  0.07831057  0.86263783
   0.72881698  0.13499132  0.87044611
   0.68547960  0.13800248  0.90348326
   0.86800246  0.06539930  0.80607146
   0.76707938  0.03157436  0.88980666
   0.73461002  0.23920542  0.82741109
   0.84827506  0.19458848  0.76698032
   0.96034345  0.20475945  0.88560775
Direct configuration=    35
   0.82723410  0.16092915  0.90276114
   0.83214737  0.21364384  0.99528078
   0.87382813  0.24544162  0.94636834
   0.85519163  0.14673204  0.00457934
   0.91120549  0.13621070  0.96082924
   0.92299472  0.19756508  0.92458693
   0.93942141  0.08994717  0.95492739
   0.83337718  0.10966525  0.03751913
   0.78773541  0.23531729  0.01746741
   0.86667422  0.29552803  0.92649192
   0.75544475  0.18893508  0.83126269
   0.82483792  0.09635866  0.81824231
   0.81550540  0.16484056  0.79881353
   0.77155900  0.07829077  0.86244500
   0.72868293  0.13481359  0.87053939
   0.68545616  0.13789799  0.90307523
   0.86762701  0.06538481  0.80580879
   0.76689072  0.03142710  0.88951281
   0.73456534  0.23888557  0.82717376
   0.84789787  0.19424862  0.76690477
   0.96047323  0.20498709  0.88591009
Direct configuration=    36
   0.82721902  0.16091747  0.90272805
   0.83216974  0.21364804  0.99530911
   0.87383844  0.24546154  0.94639322
   0.85517902  0.14674006  0.00458912
   0.91118522  0.13623524  0.96082865
   0.92300008  0.19757025  0.92459585
   0.93944941  0.08995401  0.95495242
   0.83340697  0.10969492  0.03752437
   0.78776455  0.23533163  0.01750214
   0.86670428  0.29552297  0.92651983
   0.75544155  0.18895198  0.83127314
   0.82482630  0.09635376  0.81823012
   0.81553936  0.16483403  0.79880580
   0.77154756  0.07828852  0.86242317
   0.72866776  0.13479347  0.87054995
   0.68545351  0.13788616  0.90302903
   0.86758450  0.06538317  0.80577905
   0.76686936  0.03141043  0.88947954
   0.73456029  0.23884936  0.82714689
   0.84785516  0.19421014  0.76689621
   0.96048792  0.20501287  0.88594433
Direct configuration=    37