  93  93   0   0
  0.3967126E+02  0.9570947E-09  0.1276126E-08  0.3488026E-08  0.5000000E-15
  1.000000000000000E-004
  CAR 
 basalPlane                              
      2.25464637    -19.19908332  301     -0.68783830      1.00000000
    -19.199  0.0000E+00  0.0000E+00
    -19.128  0.0000E+00  0.0000E+00
    -19.056  0.0000E+00  0.0000E+00
    -18.985  0.0000E+00  0.0000E+00
    -18.913  0.0000E+00  0.0000E+00
    -18.842  0.0000E+00  0.0000E+00
    -18.770  0.9315E-18  0.6661E-19
    -18.698  0.2282E-14  0.1632E-15
    -18.627  0.2005E-11  0.1436E-12
    -18.555  0.6487E-09  0.4653E-10
    -18.484  0.7776E-07  0.5607E-08
    -18.412  0.3487E-05  0.2549E-06
    -18.341  0.5915E-04  0.4485E-05
    -18.269  0.3846E-03  0.3199E-04
    -18.198  0.9696E-03  0.1013E-03
    -18.126  0.9548E-03  0.1696E-03
    -18.055  0.3671E-03  0.1959E-03
    -17.983  0.5473E-04  0.1998E-03
    -17.912  0.3125E-05  0.2000E-03
    -17.840  0.6750E-07  0.2000E-03
    -17.769  0.5451E-09  0.2000E-03
    -17.697  0.1631E-11  0.2000E-03
    -17.626  0.1797E-14  0.2000E-03
    -17.554  0.3814E-14  0.2000E-03
    -17.483  0.3122E-11  0.2000E-03
    -17.411  0.9409E-09  0.2000E-03
    -17.340  0.1052E-06  0.2000E-03
    -17.268  0.4400E-05  0.2003E-03
    -17.197  0.6970E-04  0.2053E-03
    -17.125  0.4236E-03  0.2356E-03
    -17.054  0.9990E-03  0.3070E-03
    -16.982  0.9208E-03  0.3729E-03
    -16.911  0.3445E-03  0.3975E-03
    -16.839  0.1965E-03  0.4116E-03
    -16.768  0.6487E-03  0.4580E-03
    -16.696  0.1081E-02  0.5353E-03
    -16.625  0.7068E-03  0.5858E-03
    -16.553  0.1800E-03  0.5987E-03
    -16.482  0.1769E-04  0.6000E-03
    -16.410  0.6622E-06  0.6000E-03
    -16.339  0.9326E-08  0.6000E-03
    -16.267  0.5745E-10  0.6000E-03
    -16.196  0.2188E-08  0.6000E-03
    -16.124  0.2079E-06  0.6000E-03
    -16.053  0.7406E-05  0.6005E-03
    -15.981  0.1001E-03  0.6077E-03
    -15.910  0.5206E-03  0.6449E-03
    -15.838  0.1058E-02  0.7206E-03
    -15.766  0.9283E-03  0.7870E-03
    -15.695  0.7824E-03  0.8430E-03
    -15.623  0.1222E-02  0.9304E-03
    -15.552  0.1467E-02  0.1035E-02
    -15.480  0.1339E-02  0.1131E-02
    -15.409  0.7538E-03  0.1185E-02
    -15.337  0.1905E-03  0.1199E-02
    -15.266  0.3745E-04  0.1201E-02
    -15.194  0.2343E-03  0.1218E-02
    -15.123  0.1156E-02  0.1301E-02
    -15.051  0.2449E-02  0.1476E-02
    -14.980  0.3129E-02  0.1700E-02
    -14.908  0.3734E-02  0.1967E-02
    -14.837  0.3711E-02  0.2232E-02
    -14.765  0.3530E-02  0.2484E-02
    -14.694  0.4231E-02  0.2787E-02
    -14.622  0.5766E-02  0.3199E-02
    -14.551  0.5708E-02  0.3608E-02
    -14.479  0.3662E-02  0.3869E-02
    -14.408  0.2140E-02  0.4022E-02
    -14.336  0.2082E-02  0.4171E-02
    -14.265  0.3098E-02  0.4393E-02
    -14.193  0.5200E-02  0.4765E-02
    -14.122  0.9425E-02  0.5439E-02
    -14.050  0.1334E-01  0.6392E-02
    -13.979  0.1246E-01  0.7284E-02
    -13.907  0.9122E-02  0.7936E-02
    -13.836  0.7991E-02  0.8507E-02
    -13.764  0.8614E-02  0.9123E-02
    -13.693  0.8399E-02  0.9724E-02
    -13.621  0.6151E-02  0.1016E-01
    -13.550  0.2673E-02  0.1036E-01
    -13.478  0.5723E-03  0.1040E-01
    -13.407  0.5465E-04  0.1040E-01
    -13.335  0.2185E-05  0.1040E-01
    -13.264  0.3493E-07  0.1040E-01
    -13.192  0.2163E-09  0.1040E-01
    -13.121  0.5070E-12  0.1040E-01
    -13.049  0.4437E-15  0.1040E-01
    -12.978  0.0000E+00  0.1040E-01
    -12.906  0.0000E+00  0.1040E-01
    -12.834  0.0000E+00  0.1040E-01
    -12.763  0.0000E+00  0.1040E-01
    -12.691  0.0000E+00  0.1040E-01
    -12.620  0.7297E-17  0.1040E-01
    -12.548  0.1370E-13  0.1040E-01
    -12.477  0.9370E-11  0.1040E-01
    -12.405  0.2362E-08  0.1040E-01
    -12.334  0.2211E-06  0.1040E-01
    -12.262  0.7761E-05  0.1040E-01
    -12.191  0.1034E-03  0.1041E-01
    -12.119  0.5297E-03  0.1045E-01
    -12.048  0.1055E-02  0.1052E-01
    -11.976  0.8209E-03  0.1058E-01
    -11.905  0.2492E-03  0.1060E-01
    -11.833  0.2993E-04  0.1060E-01
    -11.762  0.1947E-04  0.1060E-01
    -11.690  0.1833E-03  0.1061E-01
    -11.619  0.7185E-03  0.1067E-01
    -11.547  0.1166E-02  0.1075E-01
    -11.476  0.1117E-02  0.1083E-01
    -11.404  0.1179E-02  0.1091E-01
    -11.333  0.8891E-03  0.1098E-01
    -11.261  0.3545E-03  0.1100E-01
    -11.190  0.4480E-03  0.1103E-01
    -11.118  0.9920E-03  0.1111E-01
    -11.047  0.9314E-03  0.1117E-01
    -10.975  0.3421E-03  0.1120E-01
    -10.904  0.4867E-04  0.1120E-01
    -10.832  0.2651E-05  0.1120E-01
    -10.761  0.5459E-07  0.1120E-01
    -10.689  0.4201E-09  0.1120E-01
    -10.618  0.1197E-11  0.1120E-01
    -10.546  0.1255E-14  0.1120E-01
    -10.475  0.6210E-18  0.1120E-01
    -10.403  0.0000E+00  0.1120E-01
    -10.332  0.0000E+00  0.1120E-01
    -10.260  0.0000E+00  0.1120E-01
    -10.189  0.0000E+00  0.1120E-01
    -10.117  0.0000E+00  0.1120E-01
    -10.045  0.0000E+00  0.1120E-01
     -9.974  0.0000E+00  0.1120E-01
     -9.902  0.0000E+00  0.1120E-01
     -9.831  0.5247E-16  0.1120E-01
     -9.759  0.7631E-13  0.1120E-01
     -9.688  0.4069E-10  0.1120E-01
     -9.616  0.8010E-08  0.1120E-01
     -9.545  0.5869E-06  0.1120E-01
     -9.473  0.1617E-04  0.1120E-01
     -9.402  0.1697E-03  0.1121E-01
     -9.330  0.6866E-03  0.1126E-01
     -9.259  0.1082E-02  0.1134E-01
     -9.187  0.6711E-03  0.1139E-01
     -9.116  0.2313E-03  0.1140E-01
     -9.044  0.4443E-03  0.1144E-01
     -8.973  0.1004E-02  0.1151E-01
     -8.901  0.9149E-03  0.1157E-01
     -8.830  0.3259E-03  0.1160E-01
     -8.758  0.4910E-04  0.1160E-01
     -8.687  0.6941E-04  0.1161E-01
     -8.615  0.4141E-03  0.1163E-01
     -8.544  0.9923E-03  0.1171E-01
     -8.472  0.9289E-03  0.1177E-01
     -8.401  0.3395E-03  0.1180E-01
     -8.329  0.4807E-04  0.1180E-01
     -8.258  0.2606E-05  0.1180E-01
     -8.186  0.5339E-07  0.1180E-01
     -8.115  0.4169E-09  0.1180E-01
     -8.043  0.2096E-08  0.1180E-01
     -7.972  0.2009E-06  0.1180E-01
     -7.900  0.7238E-05  0.1180E-01
     -7.829  0.9983E-04  0.1181E-01
     -7.757  0.5485E-03  0.1185E-01
     -7.686  0.1344E-02  0.1194E-01
     -7.614  0.1994E-02  0.1209E-01
     -7.543  0.2629E-02  0.1227E-01
     -7.471  0.2848E-02  0.1248E-01
     -7.400  0.2302E-02  0.1264E-01
     -7.328  0.2368E-02  0.1281E-01
     -7.257  0.3167E-02  0.1304E-01
     -7.185  0.3687E-02  0.1330E-01
     -7.113  0.4751E-02  0.1364E-01
     -7.042  0.8085E-02  0.1422E-01
     -6.970  0.1026E-01  0.1495E-01
     -6.899  0.8665E-02  0.1557E-01
     -6.827  0.8028E-02  0.1615E-01
     -6.756  0.1000E-01  0.1686E-01
     -6.684  0.1058E-01  0.1762E-01
     -6.613  0.9135E-02  0.1827E-01
     -6.541  0.6698E-02  0.1875E-01
     -6.470  0.4223E-02  0.1905E-01
     -6.398  0.3056E-02  0.1927E-01
     -6.327  0.2721E-02  0.1947E-01
     -6.255  0.1988E-02  0.1961E-01
     -6.184  0.1710E-02  0.1973E-01
     -6.112  0.1957E-02  0.1987E-01
     -6.041  0.2194E-02  0.2003E-01
     -5.969  0.3272E-02  0.2026E-01
     -5.898  0.4783E-02  0.2060E-01
     -5.826  0.5374E-02  0.2099E-01
     -5.755  0.6180E-02  0.2143E-01
     -5.683  0.1085E-01  0.2221E-01
     -5.612  0.1735E-01  0.2345E-01
     -5.540  0.1665E-01  0.2464E-01
     -5.469  0.9566E-02  0.2532E-01
     -5.397  0.5023E-02  0.2568E-01
     -5.326  0.4810E-02  0.2602E-01
     -5.254  0.5183E-02  0.2640E-01
     -5.183  0.4397E-02  0.2671E-01
     -5.111  0.4245E-02  0.2701E-01
     -5.040  0.5970E-02  0.2744E-01
     -4.968  0.8579E-02  0.2805E-01
     -4.897  0.8654E-02  0.2867E-01
     -4.825  0.7818E-02  0.2923E-01
     -4.754  0.8012E-02  0.2980E-01
     -4.682  0.7238E-02  0.3032E-01
     -4.611  0.6001E-02  0.3075E-01
     -4.539  0.5273E-02  0.3113E-01
     -4.468  0.5402E-02  0.3151E-01
     -4.396  0.6391E-02  0.3197E-01
     -4.324  0.7066E-02  0.3248E-01
     -4.253  0.6623E-02  0.3295E-01
     -4.181  0.5539E-02  0.3335E-01
     -4.110  0.4238E-02  0.3365E-01
     -4.038  0.2599E-02  0.3384E-01
     -3.967  0.2056E-02  0.3398E-01
     -3.895  0.2706E-02  0.3418E-01
     -3.824  0.3660E-02  0.3444E-01
     -3.752  0.4932E-02  0.3479E-01
     -3.681  0.6785E-02  0.3528E-01
     -3.609  0.9134E-02  0.3593E-01
     -3.538  0.1125E-01  0.3673E-01
     -3.466  0.1151E-01  0.3756E-01
     -3.395  0.1100E-01  0.3834E-01
     -3.323  0.1000E-01  0.3906E-01
     -3.252  0.8270E-02  0.3965E-01
     -3.180  0.8462E-02  0.4026E-01
     -3.109  0.1013E-01  0.4098E-01
     -3.037  0.9532E-02  0.4166E-01
     -2.966  0.5604E-02  0.4206E-01
     -2.894  0.2488E-02  0.4224E-01
     -2.823  0.2783E-02  0.4244E-01
     -2.751  0.5038E-02  0.4280E-01
     -2.680  0.6853E-02  0.4329E-01
     -2.608  0.6910E-02  0.4378E-01
     -2.537  0.5924E-02  0.4421E-01
     -2.465  0.5857E-02  0.4463E-01
     -2.394  0.6568E-02  0.4510E-01
     -2.322  0.6781E-02  0.4558E-01
     -2.251  0.6223E-02  0.4603E-01
     -2.179  0.4100E-02  0.4632E-01
     -2.108  0.2247E-02  0.4648E-01
     -2.036  0.2753E-02  0.4668E-01
     -1.965  0.3765E-02  0.4695E-01
     -1.893  0.3360E-02  0.4719E-01
     -1.822  0.3214E-02  0.4742E-01
     -1.750  0.4419E-02  0.4773E-01
     -1.679  0.4208E-02  0.4803E-01
     -1.607  0.2172E-02  0.4819E-01
     -1.536  0.1199E-02  0.4827E-01
     -1.464  0.1121E-02  0.4835E-01
     -1.392  0.7810E-03  0.4841E-01
     -1.321  0.9056E-03  0.4847E-01
     -1.249  0.1072E-02  0.4855E-01
     -1.178  0.5562E-03  0.4859E-01
     -1.106  0.1130E-03  0.4860E-01
     -1.035  0.9906E-05  0.4860E-01
     -0.963  0.2557E-04  0.4860E-01
     -0.892  0.2272E-03  0.4862E-01
     -0.820  0.7889E-03  0.4867E-01
     -0.749  0.1086E-02  0.4875E-01
     -0.677  0.7713E-03  0.4881E-01
     -0.606  0.1014E-02  0.4888E-01
     -0.534  0.1774E-02  0.4901E-01
     -0.463  0.1707E-02  0.4913E-01
     -0.391  0.8074E-03  0.4919E-01
     -0.320  0.1722E-03  0.4920E-01
     -0.248  0.1520E-04  0.4920E-01
     -0.177  0.8452E-06  0.4920E-01
     -0.105  0.1256E-04  0.4920E-01
     -0.034  0.1928E-03  0.4921E-01
      0.038  0.1204E-02  0.4930E-01
      0.109  0.3252E-02  0.4953E-01
      0.181  0.4345E-02  0.4984E-01
      0.252  0.4414E-02  0.5016E-01
      0.324  0.6218E-02  0.5060E-01
      0.395  0.1083E-01  0.5138E-01
      0.467  0.1451E-01  0.5242E-01
      0.538  0.1354E-01  0.5338E-01
      0.610  0.1253E-01  0.5428E-01
      0.681  0.1045E-01  0.5503E-01
      0.753  0.6515E-02  0.5549E-01
      0.824  0.4200E-02  0.5579E-01
      0.896  0.4928E-02  0.5615E-01
      0.967  0.7673E-02  0.5670E-01
      1.039  0.9815E-02  0.5740E-01
      1.110  0.1081E-01  0.5817E-01
      1.182  0.1103E-01  0.5896E-01
      1.253  0.8912E-02  0.5960E-01
      1.325  0.4411E-02  0.5991E-01
      1.396  0.1102E-02  0.5999E-01
      1.468  0.1247E-03  0.6000E-01
      1.540  0.5978E-05  0.6000E-01
      1.611  0.1157E-06  0.6000E-01
      1.683  0.8740E-09  0.6000E-01
      1.754  0.2515E-11  0.6000E-01
      1.826  0.2714E-14  0.6000E-01
      1.897  0.9315E-18  0.6000E-01
      1.969  0.0000E+00  0.6000E-01
      2.040  0.0000E+00  0.6000E-01
      2.112  0.0000E+00  0.6000E-01
      2.183  0.0000E+00  0.6000E-01
      2.255  0.0000E+00  0.6000E-01
