 running on   36 total cores
 distrk:  each k-point on   36 cores,    1 groups
 distr:  one band on    3 cores,   12 groups
 using from now: INCAR     
 vasp.5.4.1 05Feb16 (build Apr 21 2017 13:36:42) gamma-only                     
  
 POSCAR found :  5 types and      93 ions
 scaLAPACK will be used
 LDA part: xc-table for Pade appr. of Perdew
 POSCAR found :  5 types and      93 ions
 POSCAR, INCAR and KPOINTS ok, starting setup
 FFT: planning ...
 WAVECAR not read
 entering main loop
       N       E                     dE             d eps       ncg     rms          rms(c)
DAV:   1     0.444692632908E+04    0.44469E+04   -0.18097E+05   612   0.112E+03
DAV:   2     0.108512414491E+02   -0.44361E+04   -0.42673E+04   972   0.268E+02
DAV:   3    -0.658589198590E+03   -0.66944E+03   -0.65927E+03   720   0.115E+02
DAV:   4    -0.695703398002E+03   -0.37114E+02   -0.36838E+02   888   0.339E+01
DAV:   5    -0.696990091472E+03   -0.12867E+01   -0.12800E+01   924   0.553E+00    0.129E+02
DAV:   6    -0.678426356097E+03    0.18564E+02   -0.59330E+02   912   0.374E+01    0.973E+01
DAV:   7    -0.685838069072E+03   -0.74117E+01   -0.93843E+02   900   0.131E+02    0.489E+01
DAV:   8    -0.743526694977E+03   -0.57689E+02   -0.40475E+02   876   0.205E+01    0.744E+01
DAV:   9    -0.655178392860E+03    0.88348E+02   -0.34013E+02   912   0.161E+01    0.324E+01
DAV:  10    -0.640775222706E+03    0.14403E+02   -0.39611E+01   912   0.108E+01    0.201E+01
DAV:  11    -0.640736326330E+03    0.38896E-01   -0.10581E+01   864   0.456E+00    0.200E+01
DAV:  12    -0.643196054052E+03   -0.24597E+01   -0.39887E+01   924   0.695E+00    0.206E+01
DAV:  13    -0.642839714940E+03    0.35634E+00   -0.14944E+00   924   0.180E+00    0.199E+01
DAV:  14    -0.642717357183E+03    0.12236E+00   -0.19335E-01   804   0.803E-01    0.196E+01
DAV:  15    -0.643967688926E+03   -0.12503E+01   -0.45380E+00   912   0.421E+00    0.204E+01
DAV:  16    -0.643035167268E+03    0.93252E+00   -0.18247E+00   924   0.327E+00    0.194E+01
DAV:  17    -0.641025406264E+03    0.20098E+01   -0.12382E+00   972   0.432E+00    0.167E+01
DAV:  18    -0.640890183436E+03    0.13522E+00   -0.79657E-01   924   0.128E+00    0.158E+01
DAV:  19    -0.640848231028E+03    0.41952E-01   -0.89434E-02   792   0.369E-01    0.157E+01
DAV:  20    -0.640735478262E+03    0.11275E+00   -0.18439E-02   924   0.249E-01    0.152E+01
DAV:  21    -0.640311237277E+03    0.42424E+00   -0.27049E-01   816   0.757E-01    0.137E+01
DAV:  22    -0.639599526445E+03    0.71171E+00   -0.85915E-01   936   0.144E+00    0.100E+01
DAV:  23    -0.639575963034E+03    0.23563E-01   -0.44820E-02   876   0.258E-01    0.986E+00
DAV:  24    -0.639528762678E+03    0.47200E-01   -0.13189E-02   960   0.145E-01    0.947E+00
DAV:  25    -0.639428504840E+03    0.10026E+00   -0.30760E-02   924   0.271E-01    0.867E+00
DAV:  26    -0.639152751912E+03    0.27575E+00   -0.10920E+00   948   0.123E+00    0.421E+00
DAV:  27    -0.639138056805E+03    0.14695E-01   -0.14306E-01   888   0.244E-01    0.446E+00
DAV:  28    -0.639033830914E+03    0.10423E+00   -0.75553E-02   804   0.395E-01    0.381E+00
DAV:  29    -0.639067510282E+03   -0.33679E-01   -0.13259E+00   960   0.951E-01    0.641E+00
DAV:  30    -0.638987956569E+03    0.79554E-01   -0.30894E-01   936   0.231E-01    0.356E+00
DAV:  31    -0.638932382928E+03    0.55574E-01   -0.33912E-02   936   0.264E-01    0.379E+00
DAV:  32    -0.638914188724E+03    0.18194E-01   -0.24120E-02   852   0.180E-01    0.346E+00
DAV:  33    -0.638863848941E+03    0.50340E-01   -0.47320E-02   912   0.260E-01    0.241E+00
DAV:  34    -0.638856373467E+03    0.74755E-02   -0.19816E-02   816   0.181E-01    0.251E+00
DAV:  35    -0.638818173643E+03    0.38200E-01   -0.13397E-01   996   0.303E-01    0.654E-01
DAV:  36    -0.638817451040E+03    0.72260E-03   -0.14887E-02   888   0.130E-01    0.755E-01
DAV:  37    -0.638816218632E+03    0.12324E-02   -0.52351E-03   864   0.616E-02    0.620E-01
DAV:  38    -0.638821404117E+03   -0.51855E-02   -0.88119E-03   804   0.874E-02    0.881E-01
DAV:  39    -0.638812151779E+03    0.92523E-02   -0.17753E-02   876   0.180E-01    0.389E-01
DAV:  40    -0.638811684210E+03    0.46757E-03   -0.56840E-03   864   0.821E-02    0.362E-01
DAV:  41    -0.638811048252E+03    0.63596E-03   -0.12198E-03   924   0.509E-02    0.283E-01
DAV:  42    -0.638810648766E+03    0.39949E-03   -0.34885E-04   636   0.284E-02    0.224E-01
DAV:  43    -0.638809952160E+03    0.69661E-03   -0.36712E-03   852   0.777E-02    0.134E-01
DAV:  44    -0.638809902223E+03    0.49938E-04   -0.82020E-04   804   0.366E-02
   1 F= -.65472842E+03 E0= -.65471040E+03  d E =-.654728E+03
 curvature:   0.00 expect dE= 0.000E+00 dE for cont linesearch  0.000E+00
 trial: gam= 0.00000 g(F)=  0.287E+03 g(S)=  0.000E+00 ort = 0.000E+00 (trialstep = 0.100E+01)
 search vector abs. value=  0.287E+03
 bond charge predicted
       N       E                     dE             d eps       ncg     rms          rms(c)
DAV:   1    -0.500948330895E+03    0.13786E+03   -0.33499E+03   780   0.732E+01    0.169E+02
DAV:   2    -0.560338446311E+03   -0.59390E+02   -0.11388E+03   960   0.105E+02    0.692E+01
DAV:   3    -0.550598924495E+03    0.97395E+01   -0.48715E+02   996   0.420E+01    0.889E+01
DAV:   4    -0.525591989852E+03    0.25007E+02   -0.31202E+02   996   0.547E+01    0.304E+01
DAV:   5    -0.529150767460E+03   -0.35588E+01   -0.90512E+01  1032   0.159E+01    0.179E+01
DAV:   6    -0.528068744940E+03    0.10820E+01   -0.33200E+01   912   0.738E+00    0.156E+01
DAV:   7    -0.527184014594E+03    0.88473E+00   -0.14272E+01   912   0.552E+00    0.115E+01
DAV:   8    -0.527671453555E+03   -0.48744E+00   -0.16974E+01   900   0.379E+00    0.899E+00
DAV:   9    -0.527057750120E+03    0.61370E+00   -0.61161E+00   936   0.471E+00    0.454E+00
DAV:  10    -0.526952166821E+03    0.10558E+00   -0.21870E+00   948   0.362E+00    0.357E+00
DAV:  11    -0.526916184656E+03    0.35982E-01   -0.48539E-01   984   0.101E+00    0.211E+00
DAV:  12    -0.526922448993E+03   -0.62643E-02   -0.16824E-01   840   0.494E-01    0.194E+00
DAV:  13    -0.526914345814E+03    0.81032E-02   -0.10954E-01   840   0.364E-01    0.125E+00
DAV:  14    -0.526911534349E+03    0.28115E-02   -0.97408E-02   936   0.382E-01    0.848E-01
DAV:  15    -0.526909525056E+03    0.20093E-02   -0.24735E-02   924   0.226E-01    0.558E-01
DAV:  16    -0.526909623434E+03   -0.98378E-04   -0.49707E-03   912   0.112E-01    0.339E-01
DAV:  17    -0.526909803302E+03   -0.17987E-03   -0.12407E-03   936   0.743E-02    0.281E-01
DAV:  18    -0.526910066338E+03   -0.26304E-03   -0.91648E-04   732   0.377E-02    0.181E-01
DAV:  19    -0.526910365207E+03   -0.29887E-03   -0.44271E-04   684   0.383E-02    0.639E-02
DAV:  20    -0.526910504848E+03   -0.13964E-03   -0.11976E-04   420   0.205E-02    0.551E-02
DAV:  21    -0.526910616185E+03   -0.11134E-03   -0.36244E-05   384   0.116E-02    0.369E-02
DAV:  22    -0.526910724495E+03   -0.10831E-03   -0.11970E-05   348   0.887E-03    0.276E-02
DAV:  23    -0.526910840999E+03   -0.11650E-03   -0.19129E-05   336   0.671E-03    0.169E-02
DAV:  24    -0.526910937506E+03   -0.96507E-04   -0.99104E-06   336   0.641E-03
   2 F= -.54268078E+03 E0= -.54262101E+03  d E =0.112048E+03
 trial-energy change:  112.047631  1 .order -185.309775 -287.406992  -83.212558
 step:   1.4075(harm=  1.4075)  dis= 3.13719  next Energy=  -856.993428 (dE=-0.202E+03)
 bond charge predicted
       N       E                     dE             d eps       ncg     rms          rms(c)
DAV:   1    -0.571131481295E+03   -0.44221E+02   -0.19512E+03   828   0.675E+01    0.743E+01
DAV:   2    -0.729121914018E+03   -0.15799E+03   -0.12289E+03  1020   0.370E+01    0.126E+02
DAV:   3    -0.838154516753E+03   -0.10903E+03   -0.36915E+03  1068   0.491E+01    0.288E+02
DAV:   4    -0.698081434168E+03    0.14007E+03   -0.11614E+03   852   0.390E+01    0.104E+02
DAV:   5    -0.566781843401E+03    0.13130E+03   -0.10084E+03   888   0.179E+01    0.535E+01
DAV:   6    -0.575230944936E+03   -0.84491E+01   -0.28387E+02   936   0.161E+01    0.475E+01
DAV:   7    -0.588165733297E+03   -0.12935E+02   -0.78497E+01   924   0.179E+01    0.510E+01
DAV:   8    -0.580836502766E+03    0.73292E+01   -0.71397E+01   972   0.306E+01    0.416E+01
DAV:   9    -0.615726115295E+03   -0.34890E+02   -0.64667E+01   960   0.847E+00    0.531E+01
DAV:  10    -0.580780917779E+03    0.34945E+02   -0.69211E+01   888   0.111E+01    0.235E+01
DAV:  11    -0.582004975920E+03   -0.12241E+01   -0.28930E+01   888   0.798E+00    0.238E+01
DAV:  12    -0.582847677363E+03   -0.84270E+00   -0.90124E+00   864   0.547E+00    0.264E+01
DAV:  13    -0.579187784439E+03    0.36599E+01   -0.12816E+01   876   0.338E+00    0.170E+01
DAV:  14    -0.578237226211E+03    0.95056E+00   -0.26244E+00   924   0.204E+00    0.153E+01
DAV:  15    -0.577957368717E+03    0.27986E+00   -0.11246E+00   840   0.161E+00    0.146E+01
DAV:  16    -0.577202721783E+03    0.75465E+00   -0.97333E-01   828   0.115E+00    0.129E+01
DAV:  17    -0.576468342013E+03    0.73438E+00   -0.97636E-01   864   0.106E+00    0.115E+01
DAV:  18    -0.576002004274E+03    0.46634E+00   -0.39289E-01   924   0.900E-01    0.107E+01
DAV:  19    -0.575270133748E+03    0.73187E+00   -0.17334E-01   936   0.789E-01    0.973E+00
DAV:  20    -0.574480985648E+03    0.78915E+00   -0.29201E-01   948   0.709E-01    0.899E+00
DAV:  21    -0.574435633962E+03    0.45352E-01   -0.84594E-02   864   0.353E-01    0.898E+00
DAV:  22    -0.573890651380E+03    0.54498E+00   -0.11777E+00   948   0.501E-01    0.848E+00
DAV:  23    -0.573876712872E+03    0.13939E-01   -0.16669E-02   852   0.190E-01    0.853E+00
DAV:  24    -0.573880123957E+03   -0.34111E-02   -0.12413E-03   888   0.531E-02    0.851E+00
DAV:  25    -0.573832749761E+03    0.47374E-01   -0.95002E-03   924   0.183E-01    0.838E+00
DAV:  26    -0.573544937684E+03    0.28781E+00   -0.21686E-01   924   0.689E-01    0.801E+00
DAV:  27    -0.573469515303E+03    0.75422E-01   -0.90491E-02   804   0.369E-01    0.774E+00
DAV:  28    -0.573433294815E+03    0.36220E-01   -0.20611E-02   960   0.218E-01    0.760E+00
DAV:  29    -0.573419979961E+03    0.13315E-01   -0.38886E-03   972   0.897E-02    0.753E+00
DAV:  30    -0.573417147740E+03    0.28322E-02   -0.40434E-04   672   0.280E-02    0.750E+00
DAV:  31    -0.573399746635E+03    0.17401E-01   -0.14539E-03   828   0.620E-02    0.742E+00
DAV:  32    -0.573236838476E+03    0.16291E+00   -0.11229E-01   912   0.558E-01    0.660E+00
DAV:  33    -0.573149063314E+03    0.87775E-01   -0.11368E-01   888   0.500E-01    0.594E+00
DAV:  34    -0.573143210425E+03    0.58529E-02   -0.19793E-02   792   0.211E-01    0.579E+00
DAV:  35    -0.573137936711E+03    0.52737E-02   -0.26277E-03   996   0.799E-02    0.575E+00
DAV:  36    -0.573132943688E+03    0.49930E-02   -0.11072E-03   864   0.570E-02    0.565E+00
DAV:  37    -0.573105273382E+03    0.27670E-01   -0.26636E-02   924   0.293E-01    0.511E+00
DAV:  38    -0.573096734787E+03    0.85386E-02   -0.20794E-02   864   0.190E-01    0.479E+00
DAV:  39    -0.573097393368E+03   -0.65858E-03   -0.35842E-03   840   0.869E-02    0.468E+00
DAV:  40    -0.573096405405E+03    0.98796E-03   -0.64094E-04   792   0.438E-02    0.458E+00
DAV:  41    -0.573096037202E+03    0.36820E-03   -0.10675E-03   852   0.494E-02    0.441E+00
DAV:  42    -0.573097879462E+03   -0.18423E-02   -0.54132E-03   924   0.120E-01    0.400E+00
DAV:  43    -0.573102595629E+03   -0.47162E-02   -0.41299E-03   936   0.915E-02    0.363E+00
DAV:  44    -0.573103414918E+03   -0.81929E-03   -0.65822E-04   768   0.398E-02    0.353E+00
DAV:  45    -0.573103827836E+03   -0.41292E-03   -0.26569E-04   480   0.291E-02    0.346E+00
DAV:  46    -0.573105472093E+03   -0.16443E-02   -0.56342E-04   780   0.304E-02    0.329E+00
DAV:  47    -0.573163994272E+03   -0.58522E-01   -0.79708E-02   960   0.508E-01    0.103E+00
DAV:  48    -0.573164432735E+03   -0.43846E-03   -0.84331E-03   792   0.134E-01    0.105E+00
DAV:  49    -0.573164373075E+03    0.59660E-04   -0.53500E-04   768   0.393E-02
   3 F= -.58887784E+03 E0= -.58885970E+03  d E =0.658506E+02
 curvature:  -0.70 expect dE=-0.389E+04 dE for cont linesearch -0.181E+01
 trial: gam=19.12003 g(F)=  0.552E+04 g(S)=  0.000E+00 ort = 0.272E+02 (trialstep = 0.278E-02)
 search vector abs. value=  0.112E+06
 bond charge predicted
       N       E                     dE             d eps       ncg     rms          rms(c)
DAV:   1    -0.588666757703E+03   -0.15502E+02   -0.10492E+02   612   0.103E+01    0.128E+01
DAV:   2    -0.588989796001E+03   -0.32304E+00   -0.10290E+01   936   0.403E+00    0.101E+01
DAV:   3    -0.590119950055E+03   -0.11302E+01   -0.20526E+01   972   0.586E+00    0.141E+01
DAV:   4    -0.588824797758E+03    0.12952E+01   -0.18269E+01   984   0.797E+00    0.812E+00
DAV:   5    -0.589213711572E+03   -0.38891E+00   -0.46098E+00   936   0.295E+00    0.720E+00
DAV:   6    -0.588863162453E+03    0.35055E+00   -0.54570E+00   948   0.283E+00    0.478E+00
DAV:   7    -0.588739404735E+03    0.12376E+00   -0.68635E+00   900   0.119E+00    0.274E+00
DAV:   8    -0.588636182066E+03    0.10322E+00   -0.70657E-01   840   0.948E-01    0.153E+00
DAV:   9    -0.588609789682E+03    0.26392E-01   -0.24688E-01   876   0.635E-01    0.116E+00
DAV:  10    -0.588598315338E+03    0.11474E-01   -0.60504E-02   816   0.252E-01    0.739E-01
DAV:  11    -0.588595202196E+03    0.31131E-02   -0.18856E-02   900   0.156E-01    0.642E-01
DAV:  12    -0.588601420692E+03   -0.62185E-02   -0.32894E-02   960   0.199E-01    0.612E-01
DAV:  13    -0.588594375677E+03    0.70450E-02   -0.61339E-03   912   0.109E-01    0.262E-01
DAV:  14    -0.588593426712E+03    0.94896E-03   -0.84005E-03   828   0.817E-02    0.144E-01
DAV:  15    -0.588593445610E+03   -0.18898E-04   -0.85285E-04   792   0.456E-02
   4 F= -.60429213E+03 E0= -.60426111E+03  d E =-.154143E+02
 trial-energy change:  -15.414291  1 .order  -15.320743  -16.822941  -13.818545
 step:   0.0103(harm=  0.0156)  dis= 0.46612  next Energy=  -624.923449 (dE=-0.360E+02)
 bond charge predicted
       N       E                     dE             d eps       ncg     rms          rms(c)
DAV:   1    -0.613441076061E+03   -0.24848E+02   -0.57207E+02   684   0.248E+01    0.557E+01
DAV:   2    -0.618259468186E+03   -0.48184E+01   -0.80206E+01   912   0.998E+00    0.317E+01
DAV:   3    -0.619250507088E+03   -0.99104E+00   -0.92663E+01   984   0.165E+01    0.286E+01
DAV:   4    -0.613018835935E+03    0.62317E+01   -0.55030E+01   948   0.894E+00    0.261E+01
DAV:   5    -0.613429283600E+03   -0.41045E+00   -0.11604E+01   984   0.452E+00    0.245E+01
DAV:   6    -0.613050455753E+03    0.37883E+00   -0.52073E+00   924   0.279E+00    0.195E+01
DAV:   7    -0.613451808953E+03   -0.40135E+00   -0.51838E+00   876   0.240E+00    0.129E+01
DAV:   8    -0.613100901440E+03    0.35091E+00   -0.79329E+00   912   0.302E+00    0.515E+00
DAV:   9    -0.612835836767E+03    0.26506E+00   -0.19983E+00   852   0.158E+00    0.313E+00
DAV:  10    -0.612727836680E+03    0.10800E+00   -0.68338E-01   840   0.775E-01    0.247E+00
DAV:  11    -0.612696643128E+03    0.31194E-01   -0.14173E-01   912   0.417E-01    0.187E+00
DAV:  12    -0.612687305591E+03    0.93375E-02   -0.57466E-02   912   0.373E-01    0.135E+00
DAV:  13    -0.612682184115E+03    0.51215E-02   -0.35842E-02   924   0.309E-01    0.854E-01
DAV:  14    -0.612676364305E+03    0.58198E-02   -0.73886E-03   828   0.110E-01    0.705E-01
DAV:  15    -0.612676092612E+03    0.27169E-03   -0.17203E-02   948   0.204E-01    0.428E-01
DAV:  16    -0.612674641335E+03    0.14513E-02   -0.58423E-03   876   0.992E-02    0.250E-01
DAV:  17    -0.612674832264E+03   -0.19093E-03   -0.52164E-03   876   0.577E-02    0.157E-01
DAV:  18    -0.612675083848E+03   -0.25158E-03   -0.14722E-03   876   0.482E-02    0.653E-02
DAV:  19    -0.612675398631E+03   -0.31478E-03   -0.23317E-04   528   0.216E-02    0.418E-02
DAV:  20    -0.612675654555E+03   -0.25592E-03   -0.65832E-05   492   0.155E-02    0.289E-02
DAV:  21    -0.612675879025E+03   -0.22447E-03   -0.83696E-05   480   0.948E-03    0.183E-02
DAV:  22    -0.612676043600E+03   -0.16458E-03   -0.56065E-05   432   0.865E-03    0.151E-02
DAV:  23    -0.612676233887E+03   -0.19029E-03   -0.55948E-05   480   0.703E-03    0.777E-03
DAV:  24    -0.612676445241E+03   -0.21135E-03   -0.34928E-05   492   0.573E-03    0.565E-03
DAV:  25    -0.612676605946E+03   -0.16071E-03   -0.30402E-05   480   0.558E-03    0.418E-03
DAV:  26    -0.612676702486E+03   -0.96540E-04   -0.15352E-05   444   0.441E-03
   5 F= -.62832478E+03 E0= -.62826223E+03  d E =-.394469E+02
 curvature:  -0.12 expect dE=-0.288E+02 dE for cont linesearch -0.368E+01
 ZBRENT: increasing intervall
 opt :   0.0255  next Energy=  -609.308899 (dE=-0.204E+02)
 bond charge predicted
       N       E                     dE             d eps       ncg     rms          rms(c)
DAV:   1    -0.612463257003E+03    0.21335E+00   -0.11676E+03   648   0.349E+01    0.554E+01
DAV:   2    -0.637107273993E+03   -0.24644E+02   -0.25804E+02  1008   0.148E+01    0.319E+01
DAV:   3    -0.640781610002E+03   -0.36743E+01   -0.10941E+02   972   0.173E+01    0.442E+01
DAV:   4    -0.630543778576E+03    0.10238E+02   -0.48810E+01   960   0.240E+01    0.257E+01
DAV:   5    -0.631152101173E+03   -0.60832E+00   -0.16944E+01   948   0.625E+00    0.233E+01
DAV:   6    -0.629945823531E+03    0.12063E+01   -0.69565E+00   888   0.324E+00    0.166E+01
DAV:   7    -0.630725053059E+03   -0.77923E+00   -0.14976E+01  1008   0.207E+00    0.132E+01
DAV:   8    -0.629613816917E+03    0.11112E+01   -0.60262E+00   864   0.216E+00    0.708E+00
DAV:   9    -0.629502488416E+03    0.11133E+00   -0.12777E+00   840   0.112E+00    0.364E+00
DAV:  10    -0.629536621180E+03   -0.34133E-01   -0.81113E-01   876   0.866E-01    0.376E+00
DAV:  11    -0.629458755968E+03    0.77865E-01   -0.17817E-01   864   0.469E-01    0.221E+00
DAV:  12    -0.629442821547E+03    0.15934E-01   -0.10217E-01   840   0.255E-01    0.102E+00
DAV:  13    -0.629447510047E+03   -0.46885E-02   -0.99344E-02   888   0.324E-01    0.115E+00
DAV:  14    -0.629443122540E+03    0.43875E-02   -0.73873E-02   864   0.196E-01    0.613E-01
DAV:  15    -0.629442256172E+03    0.86637E-03   -0.33091E-02   864   0.138E-01    0.308E-01
DAV:  16    -0.629444235595E+03   -0.19794E-02   -0.37252E-03   828   0.659E-02    0.243E-01
DAV:  17    -0.629447290970E+03   -0.30554E-02   -0.56137E-03   780   0.533E-02    0.202E-01
DAV:  18    -0.629448930209E+03   -0.16392E-02   -0.19955E-03   708   0.374E-02    0.713E-02
DAV:  19    -0.629450311720E+03   -0.13815E-02   -0.50603E-04   528   0.234E-02    0.909E-02
DAV:  20    -0.629451441085E+03   -0.11294E-02   -0.47275E-04   516   0.199E-02    0.389E-02
DAV:  21    -0.629453170150E+03   -0.17291E-02   -0.39508E-04   528   0.173E-02    0.491E-02
DAV:  22    -0.629454493096E+03   -0.13229E-02   -0.43099E-04   552   0.155E-02    0.240E-02
DAV:  23    -0.629455239217E+03   -0.74612E-03   -0.12080E-04   492   0.107E-02    0.204E-02
DAV:  24    -0.629455802762E+03   -0.56355E-03   -0.10959E-04   516   0.911E-03    0.108E-02
DAV:  25    -0.629456088782E+03   -0.28602E-03   -0.47808E-05   456   0.718E-03    0.597E-03
DAV:  26    -0.629456226632E+03   -0.13785E-03   -0.20057E-05   336   0.574E-03    0.684E-03
DAV:  27    -0.629456314405E+03   -0.87773E-04   -0.22731E-05   444   0.479E-03
   6 F= -.64507529E+03 E0= -.64498827E+03  d E =-.561974E+02
 curvature:   0.62 expect dE= 0.419E+02 dE for cont linesearch  0.640E+00
 ZBRENT: extrapolating
 opt :   0.0289  next Energy=  -645.652744 (dE=-0.568E+02)
 bond charge predicted
       N       E                     dE             d eps       ncg     rms          rms(c)
DAV:   1    -0.629939667683E+03   -0.48344E+00   -0.10401E+02   600   0.987E+00    0.774E+00
DAV:   2    -0.633413608437E+03   -0.34739E+01   -0.36072E+01   900   0.526E+00    0.175E+01
DAV:   3    -0.632048469663E+03    0.13651E+01   -0.52561E+01   924   0.106E+01    0.117E+01
DAV:   4    -0.630771829230E+03    0.12766E+01   -0.92160E+00   912   0.453E+00    0.609E+00
DAV:   5    -0.630295331884E+03    0.47650E+00   -0.41436E+00   960   0.251E+00    0.406E+00
DAV:   6    -0.630214676666E+03    0.80655E-01   -0.74605E-01   804   0.838E-01    0.282E+00
DAV:   7    -0.630211951674E+03    0.27250E-02   -0.46135E-01   852   0.510E-01    0.258E+00
DAV:   8    -0.630186987685E+03    0.24964E-01   -0.18087E-01   900   0.403E-01    0.180E+00
DAV:   9    -0.630203458356E+03   -0.16471E-01   -0.16699E-01   888   0.326E-01    0.189E+00
DAV:  10    -0.630195725890E+03    0.77325E-02   -0.94160E-02   864   0.238E-01    0.103E+00
DAV:  11    -0.630194900753E+03    0.82514E-03   -0.25528E-02   888   0.193E-01    0.957E-01
DAV:  12    -0.630191393119E+03    0.35076E-02   -0.18973E-02   912   0.156E-01    0.770E-01
DAV:  13    -0.630187102371E+03    0.42907E-02   -0.88644E-03   936   0.119E-01    0.536E-01
DAV:  14    -0.630185747912E+03    0.13545E-02   -0.23867E-03   816   0.516E-02    0.460E-01
DAV:  15    -0.630184672078E+03    0.10758E-02   -0.12407E-03   852   0.464E-02    0.339E-01
DAV:  16    -0.630183991898E+03    0.68018E-03   -0.85355E-04   768   0.374E-02    0.242E-01
DAV:  17    -0.630183650438E+03    0.34146E-03   -0.96288E-04   792   0.388E-02    0.161E-01
DAV:  18    -0.630183582737E+03    0.67701E-04   -0.27185E-04   600   0.218E-02
   7 F= -.64579698E+03 E0= -.64571196E+03  d E =-.569191E+02
 curvature:  -0.56 expect dE=-0.445E+02 dE for cont linesearch -0.414E-01
 ZBRENT: extrapolating
 opt :   0.0302  next Energy=  -645.853429 (dE=-0.570E+02)
 bond charge predicted
       N       E                     dE             d eps       ncg     rms          rms(c)
DAV:   1    -0.630221427416E+03   -0.37777E-01   -0.15082E+01   600   0.368E+00    0.184E+00
DAV:   2    -0.630980888038E+03   -0.75946E+00   -0.76650E+00   900   0.206E+00    0.107E+01
DAV:   3    -0.630293541938E+03    0.68735E+00   -0.10504E+01   900   0.218E+00    0.226E+00
DAV:   4    -0.630268929071E+03    0.24613E-01   -0.57642E-01   864   0.541E-01    0.146E+00
DAV:   5    -0.630259197308E+03    0.97318E-02   -0.24323E-01   924   0.525E-01    0.123E+00
DAV:   6    -0.630251410797E+03    0.77865E-02   -0.11639E-01   936   0.433E-01    0.736E-01
DAV:   7    -0.630252120903E+03   -0.71011E-03   -0.58069E-02   924   0.248E-01    0.650E-01
DAV:   8    -0.630248794698E+03    0.33262E-02   -0.39925E-02   876   0.163E-01    0.378E-01
DAV:   9    -0.630249640752E+03   -0.84605E-03   -0.11999E-02   816   0.110E-01    0.319E-01
DAV:  10    -0.630249226139E+03    0.41461E-03   -0.81198E-03   876   0.905E-02    0.257E-01
DAV:  11    -0.630248608952E+03    0.61719E-03   -0.16168E-03   780   0.451E-02    0.163E-01
DAV:  12    -0.630248432144E+03    0.17681E-03   -0.46785E-04   684   0.287E-02    0.112E-01
DAV:  13    -0.630248405920E+03    0.26224E-04   -0.12184E-04   432   0.169E-02
   8 F= -.64585884E+03 E0= -.64577340E+03  d E =-.569810E+02
 curvature:  -0.76 expect dE=-0.669E+02 dE for cont linesearch -0.538E-04
 trial: gam= 0.08106 g(F)=  0.880E+02 g(S)=  0.000E+00 ort = 0.281E+01 (trialstep = 0.826E-02)
 search vector abs. value=  0.822E+03
 bond charge predicted
       N       E                     dE             d eps       ncg     rms          rms(c)
DAV:   1    -0.630947584862E+03   -0.69915E+00   -0.44538E+00   600   0.207E+00    0.104E+00
DAV:   2    -0.631255286494E+03   -0.30770E+00   -0.33464E+00   924   0.747E-01    0.639E+00
DAV:   3    -0.630986491652E+03    0.26879E+00   -0.46111E+00   900   0.948E-01    0.250E+00
DAV:   4    -0.630968067389E+03    0.18424E-01   -0.41364E-01   912   0.806E-01    0.139E+00
DAV:   5    -0.630954059105E+03    0.14008E-01   -0.15758E-01   924   0.531E-01    0.669E-01
DAV:   6    -0.630950182817E+03    0.38763E-02   -0.45642E-02   900   0.205E-01    0.386E-01
DAV:   7    -0.630949361579E+03    0.82124E-03   -0.94234E-03   828   0.858E-02    0.254E-01
DAV:   8    -0.630949273457E+03    0.88122E-04   -0.52537E-03   792   0.760E-02    0.210E-01
DAV:   9    -0.630949376279E+03   -0.10282E-03   -0.34892E-03   864   0.639E-02    0.140E-01
DAV:  10    -0.630949154125E+03    0.22215E-03   -0.20312E-03   780   0.439E-02    0.756E-02
DAV:  11    -0.630949119535E+03    0.34589E-04   -0.28030E-04   552   0.227E-02
   9 F= -.64655676E+03 E0= -.64647141E+03  d E =-.697916E+00
 ZBRENT: can't locate minimum, use default step
 trial-energy change:   -0.697916  1 .order   -0.697407   -0.729067   -0.665746
 step:   0.0330(harm=  0.0951)  dis= 0.13372  next Energy=  -650.056027 (dE=-0.420E+01)
 bond charge predicted
       N       E                     dE             d eps       ncg     rms          rms(c)
DAV:   1    -0.632658067240E+03   -0.17089E+01   -0.38144E+01   600   0.606E+00    0.325E+00
DAV:   2    -0.634301156293E+03   -0.16431E+01   -0.18270E+01   888   0.176E+00    0.125E+01
DAV:   3    -0.633136872506E+03    0.11643E+01   -0.26703E+01   912   0.241E+00    0.677E+00
DAV:   4    -0.632909710295E+03    0.22716E+00   -0.30532E+00   912   0.265E+00    0.476E+00
DAV:   5    -0.632731181666E+03    0.17853E+00   -0.15906E+00   936   0.192E+00    0.196E+00
DAV:   6    -0.632708756360E+03    0.22425E-01   -0.29450E-01   912   0.558E-01    0.131E+00
DAV:   7    -0.632702291867E+03    0.64645E-02   -0.10158E-01   840   0.273E-01    0.118E+00
DAV:   8    -0.632694227717E+03    0.80641E-02   -0.99945E-02   936   0.244E-01    0.777E-01
DAV:   9    -0.632693355627E+03    0.87209E-03   -0.28046E-02   876   0.219E-01    0.473E-01
DAV:  10    -0.632692472759E+03    0.88287E-03   -0.19498E-02   876   0.150E-01    0.352E-01
DAV:  11    -0.632691828843E+03    0.64392E-03   -0.78538E-03   792   0.998E-02    0.243E-01
DAV:  12    -0.632691391389E+03    0.43745E-03   -0.22019E-03   840   0.577E-02    0.211E-01
DAV:  13    -0.632691143147E+03    0.24824E-03   -0.46262E-04   588   0.257E-02    0.127E-01
DAV:  14    -0.632691022457E+03    0.12069E-03   -0.34898E-04   576   0.253E-02    0.996E-02
DAV:  15    -0.632691005342E+03    0.17115E-04   -0.27769E-04   576   0.213E-02
  10 F= -.64828982E+03 E0= -.64820285E+03  d E =-.243098E+01
 curvature:  -0.22 expect dE=-0.106E+02 dE for cont linesearch -0.941E+00
 ZBRENT: increasing intervall
 opt :   0.0826  next Energy=  -650.216194 (dE=-0.436E+01)
 bond charge predicted
       N       E                     dE             d eps       ncg     rms          rms(c)
DAV:   1    -0.634491733004E+03   -0.18007E+01   -0.13471E+02   600   0.111E+01    0.108E+01
DAV:   2    -0.636160008288E+03   -0.16683E+01   -0.20790E+01   924   0.286E+00    0.120E+01
DAV:   3    -0.639699068271E+03   -0.35391E+01   -0.12618E+02   936   0.419E+00    0.122E+01
DAV:   4    -0.637714304058E+03    0.19848E+01   -0.27259E+01   936   0.737E+00    0.150E+01
DAV:   5    -0.635737812675E+03    0.19765E+01   -0.92906E+00   948   0.712E+00    0.660E+00
DAV:   6    -0.635121799585E+03    0.61601E+00   -0.69281E-01   876   0.840E-01    0.520E+00
DAV:   7    -0.634887481694E+03    0.23432E+00   -0.54950E-01   912   0.595E-01    0.332E+00
DAV:   8    -0.634863291468E+03    0.24190E-01   -0.14492E-01   840   0.375E-01    0.315E+00
DAV:   9    -0.634921411011E+03   -0.58120E-01   -0.15588E+00   912   0.336E-01    0.418E+00
DAV:  10    -0.634888240959E+03    0.33170E-01   -0.43193E-02   876   0.177E-01    0.347E+00
DAV:  11    -0.634892830510E+03   -0.45896E-02   -0.11422E-01   948   0.183E-01    0.363E+00
DAV:  12    -0.634851365325E+03    0.41465E-01   -0.17996E-01   876   0.263E-01    0.214E+00
DAV:  13    -0.634834623293E+03    0.16742E-01   -0.12442E-01   852   0.252E-01    0.892E-01
DAV:  14    -0.634847610493E+03   -0.12987E-01   -0.85663E-02   924   0.171E-01    0.177E+00
DAV:  15    -0.634835658006E+03    0.11952E-01   -0.19907E-02   840   0.834E-02    0.107E+00
DAV:  16    -0.634833402839E+03    0.22552E-02   -0.42185E-03   900   0.629E-02    0.963E-01
DAV:  17    -0.634829348803E+03    0.40540E-02   -0.10004E-02   780   0.450E-02    0.494E-01
DAV:  18    -0.634828546629E+03    0.80217E-03   -0.18405E-03   684   0.361E-02    0.356E-01
DAV:  19    -0.634828089172E+03    0.45746E-03   -0.16261E-03   588   0.271E-02    0.140E-01
DAV:  20    -0.634828276824E+03   -0.18765E-03   -0.14660E-04   444   0.180E-02    0.130E-01
DAV:  21    -0.634828430953E+03   -0.15413E-03   -0.72986E-04   432   0.164E-02    0.344E-02
DAV:  22    -0.634828565309E+03   -0.13436E-03   -0.15536E-04   408   0.132E-02    0.365E-02
DAV:  23    -0.634828664145E+03   -0.98837E-04   -0.40242E-05   384   0.100E-02
  11 F= -.65040970E+03 E0= -.65031836E+03  d E =-.455086E+01
 curvature:  -0.44 expect dE=-0.990E+01 dE for cont linesearch -0.420E+00
 ZBRENT: increasing intervall
 opt :   0.1818  next Energy=  -650.019612 (dE=-0.416E+01)
 bond charge predicted
       N       E                     dE             d eps       ncg     rms          rms(c)
DAV:   1    -0.632897717553E+03    0.19308E+01   -0.40545E+02   600   0.183E+01    0.577E+01
DAV:   2    -0.642204888896E+03   -0.93072E+01   -0.10512E+02  1020   0.786E+00    0.284E+01
DAV:   3    -0.656009629110E+03   -0.13805E+02   -0.15135E+02   984   0.191E+01    0.500E+01
DAV:   4    -0.637048484901E+03    0.18961E+02   -0.60578E+01  1044   0.263E+01    0.220E+01
DAV:   5    -0.636699646142E+03    0.34884E+00   -0.30220E+01   984   0.727E+00    0.175E+01
DAV:   6    -0.635873791182E+03    0.82585E+00   -0.53464E+00   912   0.181E+00    0.151E+01
DAV:   7    -0.635984247017E+03   -0.11046E+00   -0.22518E+00   900   0.995E-01    0.150E+01
DAV:   8    -0.636139906683E+03   -0.15566E+00   -0.81334E+00   924   0.610E-01    0.149E+01
DAV:   9    -0.635802383131E+03    0.33752E+00   -0.21729E+00   924   0.905E-01    0.117E+01
DAV:  10    -0.635818621493E+03   -0.16238E-01   -0.79472E-02   900   0.290E-01    0.113E+01
DAV:  11    -0.635757909867E+03    0.60712E-01   -0.52757E-01   960   0.568E-01    0.689E+00
DAV:  12    -0.635756704181E+03    0.12057E-02   -0.44618E-01   936   0.634E-01    0.547E+00
DAV:  13    -0.635743504643E+03    0.13200E-01   -0.77213E-02   948   0.315E-01    0.430E+00
DAV:  14    -0.635797506730E+03   -0.54002E-01   -0.13758E-01   900   0.235E-01    0.455E+00
DAV:  15    -0.635739209590E+03    0.58297E-01   -0.84317E-02   948   0.246E-01    0.199E+00
DAV:  16    -0.635730290309E+03    0.89193E-02   -0.26372E-02   888   0.134E-01    0.132E+00
DAV:  17    -0.635730782323E+03   -0.49201E-03   -0.65237E-03   900   0.895E-02    0.127E+00
DAV:  18    -0.635725886190E+03    0.48961E-02   -0.15027E-02   888   0.641E-02    0.604E-01
DAV:  19    -0.635725943728E+03   -0.57538E-04   -0.17861E-03   852   0.545E-02    0.504E-01
DAV:  20    -0.635725402136E+03    0.54159E-03   -0.22858E-03   864   0.471E-02    0.230E-01
DAV:  21    -0.635725719433E+03   -0.31730E-03   -0.49042E-04   768   0.294E-02    0.193E-01
DAV:  22    -0.635725852735E+03   -0.13330E-03   -0.45146E-04   468   0.188E-02    0.965E-02
DAV:  23    -0.635726049783E+03   -0.19705E-03   -0.16504E-04   396   0.135E-02    0.132E-01
DAV:  24    -0.635726153250E+03   -0.10347E-03   -0.21126E-04   408   0.132E-02    0.670E-02
DAV:  25    -0.635726287822E+03   -0.13457E-03   -0.53431E-05   396   0.901E-03    0.594E-02
DAV:  26    -0.635726399426E+03   -0.11160E-03   -0.11885E-04   384   0.115E-02    0.505E-02
DAV:  27    -0.635726446163E+03   -0.46737E-04   -0.23085E-05   372   0.829E-03
  12 F= -.65126986E+03 E0= -.65116269E+03  d E =-.541101E+01
 curvature:   0.41 expect dE= 0.403E+01 dE for cont linesearch  0.133E-01
 ZBRENT: bracketing found
 ZBRENT: interpolating
 opt :   0.1663  next Energy=  -651.309687 (dE=-0.545E+01)
 bond charge predicted
       N       E                     dE             d eps       ncg     rms          rms(c)
DAV:   1    -0.635748115756E+03   -0.21716E-01   -0.12540E+01   600   0.312E+00    0.119E+00
DAV:   2    -0.635951533789E+03   -0.20342E+00   -0.17302E+00   852   0.738E-01    0.673E+00
DAV:   3    -0.635804192107E+03    0.14734E+00   -0.23158E+00   924   0.698E-01    0.249E+00
DAV:   4    -0.635807546854E+03   -0.33547E-02   -0.61339E-01   948   0.679E-01    0.228E+00
DAV:   5    -0.635788811752E+03    0.18735E-01   -0.40693E-01   924   0.674E-01    0.138E+00
DAV:   6    -0.635776880715E+03    0.11931E-01   -0.11348E-01   900   0.241E-01    0.372E-01
DAV:   7    -0.635777610259E+03   -0.72954E-03   -0.13624E-02   816   0.760E-02    0.518E-01
DAV:   8    -0.635777149769E+03    0.46049E-03   -0.58210E-03   876   0.770E-02    0.335E-01
DAV:   9    -0.635776895848E+03    0.25392E-03   -0.91324E-03   876   0.700E-02    0.241E-01
DAV:  10    -0.635776501921E+03    0.39393E-03   -0.22245E-03   684   0.374E-02    0.164E-01
DAV:  11    -0.635776472638E+03    0.29283E-04   -0.46135E-04   636   0.239E-02
  13 F= -.65132570E+03 E0= -.65122126E+03  d E =-.546685E+01
 curvature:  -1.23 expect dE=-0.128E+02 dE for cont linesearch -0.587E-02
 trial: gam=-0.05997 g(F)=  0.104E+02 g(S)=  0.000E+00 ort =-0.198E+01 (trialstep = 0.399E-01)
 search vector abs. value=  0.136E+02
 bond charge predicted
       N       E                     dE             d eps       ncg     rms          rms(c)
DAV:   1    -0.636181036463E+03   -0.40453E+00   -0.19910E+00   600   0.173E+00    0.966E-01
DAV:   2    -0.636854395698E+03   -0.67336E+00   -0.46753E+00   912   0.125E+00    0.676E+00
DAV:   3    -0.636207785963E+03    0.64661E+00   -0.16100E+00   924   0.138E+00    0.213E+00
DAV:   4    -0.636184926414E+03    0.22860E-01   -0.37143E-01   972   0.655E-01    0.747E-01
DAV:   5    -0.636186611519E+03   -0.16851E-02   -0.79095E-02   900   0.229E-01    0.672E-01
DAV:   6    -0.636184059463E+03    0.25521E-02   -0.43927E-02   876   0.104E-01    0.428E-01
DAV:   7    -0.636183422646E+03    0.63682E-03   -0.13969E-02   828   0.741E-02    0.226E-01
DAV:   8    -0.636183382644E+03    0.40002E-04   -0.36004E-03   828   0.665E-02    0.183E-01
DAV:   9    -0.636183049260E+03    0.33338E-03   -0.17001E-03   780   0.453E-02    0.537E-02
DAV:  10    -0.636183052405E+03   -0.31446E-05   -0.23485E-04   456   0.178E-02
  14 F= -.65173018E+03 E0= -.65162904E+03  d E =-.404484E+00
 ZBRENT: can't locate minimum, use default step
 trial-energy change:   -0.404484  1 .order   -0.404642   -0.418569   -0.390716
 step:   0.1595(harm=  0.5991)  dis= 0.04299  next Energy=  -654.470793 (dE=-0.315E+01)
 bond charge predicted
       N       E                     dE             d eps       ncg     rms          rms(c)
DAV:   1    -0.637213843592E+03   -0.10308E+01   -0.17960E+01   600   0.517E+00    0.257E+00
DAV:   2    -0.639454924268E+03   -0.22411E+01   -0.23080E+01   888   0.285E+00    0.102E+01
DAV:   3    -0.637676926132E+03    0.17780E+01   -0.97159E+00   936   0.363E+00    0.622E+00
DAV:   4    -0.637248090126E+03    0.42884E+00   -0.24965E+00   948   0.196E+00    0.169E+00
DAV:   5    -0.637309302298E+03   -0.61212E-01   -0.11223E+00   936   0.500E-01    0.355E+00
DAV:   6    -0.637235205622E+03    0.74097E-01   -0.51998E-01   900   0.362E-01    0.960E-01
DAV:   7    -0.637233984603E+03    0.12210E-02   -0.53500E-02   816   0.258E-01    0.573E-01
DAV:   8    -0.637236638994E+03   -0.26544E-02   -0.36471E-02   816   0.203E-01    0.806E-01
DAV:   9    -0.637232157379E+03    0.44816E-02   -0.28229E-02   876   0.177E-01    0.401E-01
DAV:  10    -0.637231293321E+03    0.86406E-03   -0.50500E-03   816   0.770E-02    0.122E-01
DAV:  11    -0.637231456329E+03   -0.16301E-03   -0.11354E-03   696   0.347E-02    0.142E-01
DAV:  12    -0.637231379065E+03    0.77265E-04   -0.85240E-04   480   0.200E-02
  15 F= -.65277286E+03 E0= -.65267890E+03  d E =-.144717E+01
 curvature:  -0.15 expect dE=-0.863E+00 dE for cont linesearch -0.634E+00
 ZBRENT: increasing intervall
 opt :   0.3987  next Energy=  -654.077381 (dE=-0.275E+01)
 bond charge predicted
       N       E                     dE             d eps       ncg     rms          rms(c)
DAV:   1    -0.638415223103E+03   -0.11838E+01   -0.72474E+01   600   0.104E+01    0.391E+00
DAV:   2    -0.640941658779E+03   -0.25264E+01   -0.29929E+01   876   0.345E+00    0.992E+00
DAV:   3    -0.639142876074E+03    0.17988E+01   -0.13443E+01   924   0.478E+00    0.886E+00
DAV:   4    -0.638562825107E+03    0.58005E+00   -0.40483E+00   948   0.382E+00    0.209E+00
DAV:   5    -0.638585141734E+03   -0.22317E-01   -0.11238E+00   816   0.658E-01    0.343E+00
DAV:   6    -0.638566328744E+03    0.18813E-01   -0.17111E+00   900   0.356E-01    0.235E+00
DAV:   7    -0.638539083433E+03    0.27245E-01   -0.37038E-01   852   0.467E-01    0.149E+00
DAV:   8    -0.638518948020E+03    0.20135E-01   -0.13076E-01   840   0.299E-01    0.530E-01
DAV:   9    -0.638517654086E+03    0.12939E-02   -0.32654E-02   888   0.200E-01    0.253E-01
DAV:  10    -0.638517187101E+03    0.46699E-03   -0.63287E-03   840   0.916E-02    0.134E-01
DAV:  11    -0.638517311832E+03   -0.12473E-03   -0.21429E-03   840   0.534E-02    0.169E-01
DAV:  12    -0.638517157388E+03    0.15444E-03   -0.12228E-03   780   0.384E-02    0.803E-02
DAV:  13    -0.638517192878E+03   -0.35490E-04   -0.68837E-04   600   0.243E-02
  16 F= -.65405005E+03 E0= -.65396202E+03  d E =-.272436E+01
 curvature:  -0.30 expect dE=-0.113E+01 dE for cont linesearch -0.196E+00
 ZBRENT: increasing intervall
 opt :   0.8771  next Energy=  -653.231888 (dE=-0.191E+01)
 bond charge predicted
       N       E                     dE             d eps       ncg     rms          rms(c)
DAV:   1    -0.636631450174E+03    0.18857E+01   -0.29521E+02   600   0.212E+01    0.837E+00
DAV:   2    -0.639343899933E+03   -0.27124E+01   -0.32644E+01   840   0.558E+00    0.973E+00
DAV:   3    -0.640977487999E+03   -0.16336E+01   -0.34039E+01   924   0.769E+00    0.209E+01
DAV:   4    -0.637543024320E+03    0.34345E+01   -0.26441E+01   984   0.837E+00    0.370E+00
DAV:   5    -0.637451167242E+03    0.91857E-01   -0.18837E+00   948   0.181E+00    0.369E+00
DAV:   6    -0.637601114256E+03   -0.14995E+00   -0.32984E+00   948   0.149E+00    0.491E+00
DAV:   7    -0.637421466427E+03    0.17965E+00   -0.40422E+00   924   0.873E-01    0.214E+00
DAV:   8    -0.637373730617E+03    0.47736E-01   -0.20682E-01   852   0.540E-01    0.143E+00
DAV:   9    -0.637355252363E+03    0.18478E-01   -0.17581E-01   864   0.471E-01    0.910E-01
DAV:  10    -0.637347811386E+03    0.74410E-02   -0.54138E-02   840   0.286E-01    0.487E-01
DAV:  11    -0.637345963529E+03    0.18479E-02   -0.19828E-02   888   0.169E-01    0.287E-01
DAV:  12    -0.637345851604E+03    0.11193E-03   -0.11543E-02   828   0.752E-02    0.221E-01
DAV:  13    -0.637345736149E+03    0.11545E-03   -0.35758E-03   792   0.451E-02    0.112E-01
DAV:  14    -0.637345800852E+03   -0.64703E-04   -0.79601E-04   516   0.285E-02
  17 F= -.65286774E+03 E0= -.65278581E+03  d E =-.154205E+01
 curvature:   1.27 expect dE= 0.310E+02 dE for cont linesearch  0.688E+01
 ZBRENT: bracketing found
 ZBRENT: interpolating
 opt :   0.5214  next Energy=  -654.231552 (dE=-0.291E+01)
 bond charge predicted
       N       E                     dE             d eps       ncg     rms          rms(c)
DAV:   1    -0.638708346211E+03   -0.13626E+01   -0.16731E+02   600   0.160E+01    0.857E+00
DAV:   2    -0.656261666353E+03   -0.17553E+02   -0.20983E+02   912   0.138E+01    0.307E+01
DAV:   3    -0.641442619147E+03    0.14819E+02   -0.43566E+01  1020   0.198E+01    0.143E+01
DAV:   4    -0.639173414475E+03    0.22692E+01   -0.32821E+01   972   0.308E+00    0.617E+00
DAV:   5    -0.638851233092E+03    0.32218E+00   -0.71738E+00   936   0.220E+00    0.376E+00
DAV:   6    -0.638772461715E+03    0.78771E-01   -0.59362E-01   876   0.799E-01    0.282E+00
DAV:   7    -0.638855038882E+03   -0.82577E-01   -0.11262E+00   936   0.120E+00    0.390E+00
DAV:   8    -0.638768790857E+03    0.86248E-01   -0.29437E-01   972   0.659E-01    0.235E+00
DAV:   9    -0.638761339368E+03    0.74515E-02   -0.30845E-01   888   0.535E-01    0.179E+00
DAV:  10    -0.638747227285E+03    0.14112E-01   -0.10792E-01   816   0.329E-01    0.148E+00
DAV:  11    -0.638739183344E+03    0.80439E-02   -0.87806E-02   876   0.242E-01    0.892E-01
DAV:  12    -0.638734427842E+03    0.47555E-02   -0.21618E-02   864   0.101E-01    0.781E-01
DAV:  13    -0.638732567611E+03    0.18602E-02   -0.56776E-02   924   0.132E-01    0.821E-01
DAV:  14    -0.638728149497E+03    0.44181E-02   -0.89350E-03   840   0.737E-02    0.492E-01
DAV:  15    -0.638728005621E+03    0.14388E-03   -0.18862E-03   924   0.467E-02    0.515E-01
DAV:  16    -0.638727230401E+03    0.77522E-03   -0.12471E-03   756   0.352E-02    0.384E-01
DAV:  17    -0.638726571108E+03    0.65929E-03   -0.17803E-03   828   0.404E-02    0.214E-01
DAV:  18    -0.638726490909E+03    0.80199E-04   -0.56656E-04   756   0.280E-02
  18 F= -.65425606E+03 E0= -.65416915E+03  d E =-.293037E+01
 curvature:  -0.03 expect dE=-0.173E+00 dE for cont linesearch -0.265E-03
 trial: gam= 0.49155 g(F)=  0.515E+01 g(S)=  0.000E+00 ort = 0.328E+00 (trialstep = 0.136E+00)
 search vector abs. value=  0.875E+01
 bond charge predicted
       N       E                     dE             d eps       ncg     rms          rms(c)
DAV:   1    -0.639353402995E+03   -0.62683E+00   -0.13724E+01   600   0.476E+00    0.195E+00
DAV:   2    -0.640668598477E+03   -0.13152E+01   -0.13004E+01   936   0.293E+00    0.861E+00
DAV:   3    -0.639409505522E+03    0.12591E+01   -0.38712E+00   912   0.284E+00    0.269E+00
DAV:   4    -0.639380888682E+03    0.28617E-01   -0.11654E+00   960   0.135E+00    0.159E+00
DAV:   5    -0.639375167030E+03    0.57217E-02   -0.47431E-01   876   0.413E-01    0.203E+00
DAV:   6    -0.639354813791E+03    0.20353E-01   -0.18052E-01   912   0.164E-01    0.518E-01
DAV:   7    -0.639354238958E+03    0.57483E-03   -0.14883E-02   876   0.159E-01    0.449E-01
DAV:   8    -0.639353565675E+03    0.67328E-03   -0.14270E-02   888   0.147E-01    0.232E-01
DAV:   9    -0.639353084078E+03    0.48160E-03   -0.67064E-03   888   0.952E-02    0.166E-01
DAV:  10    -0.639352956274E+03    0.12780E-03   -0.11556E-03   780   0.404E-02    0.114E-01
DAV:  11    -0.639352891911E+03    0.64363E-04   -0.52610E-04   456   0.230E-02
  19 F= -.65488145E+03 E0= -.65479595E+03  d E =-.625387E+00
 trial-energy change:   -0.625387  1 .order   -0.622451   -0.723609   -0.521292
 step:   0.4136(harm=  0.4870)  dis= 0.07012  next Energy=  -655.437388 (dE=-0.118E+01)
 bond charge predicted
       N       E                     dE             d eps       ncg     rms          rms(c)
DAV:   1    -0.639926256540E+03   -0.57330E+00   -0.56626E+01   600   0.975E+00    0.344E+00
DAV:   2    -0.641668724855E+03   -0.17425E+01   -0.19560E+01   936   0.479E+00    0.958E+00
DAV:   3    -0.640096174837E+03    0.15726E+01   -0.74801E+00   924   0.407E+00    0.395E+00
DAV:   4    -0.640060113661E+03    0.36061E-01   -0.27038E+00   960   0.227E+00    0.326E+00
DAV:   5    -0.640038486741E+03    0.21627E-01   -0.77856E-01   924   0.869E-01    0.330E+00
DAV:   6    -0.640008468528E+03    0.30018E-01   -0.14840E+00   888   0.340E-01    0.179E+00
DAV:   7    -0.639982913977E+03    0.25555E-01   -0.13732E-01   924   0.350E-01    0.110E+00
DAV:   8    -0.639974108419E+03    0.88056E-02   -0.72171E-02   900   0.233E-01    0.296E-01
DAV:   9    -0.639973715664E+03    0.39276E-03   -0.95249E-03   864   0.118E-01    0.173E-01
DAV:  10    -0.639973700748E+03    0.14916E-04   -0.32134E-03   888   0.679E-02    0.200E-01
DAV:  11    -0.639973648064E+03    0.52684E-04   -0.82823E-04   804   0.391E-02
  20 F= -.65550126E+03 E0= -.65541801E+03  d E =-.124520E+01
 curvature:  -0.38 expect dE=-0.785E+00 dE for cont linesearch -0.167E-01
 ZBRENT: extrapolating
 opt :   0.4669  next Energy=  -655.517682 (dE=-0.126E+01)
 bond charge predicted
       N       E                     dE             d eps       ncg     rms          rms(c)
DAV:   1    -0.639988104131E+03   -0.14403E-01   -0.21049E+00   600   0.189E+00    0.777E-01
DAV:   2    -0.640322494878E+03   -0.33439E+00   -0.24417E+00   924   0.140E+00    0.623E+00
DAV:   3    -0.640003675186E+03    0.31882E+00   -0.17130E+00   936   0.114E+00    0.846E-01
DAV:   4    -0.639992692362E+03    0.10983E-01   -0.12258E-01   924   0.345E-01    0.748E-01
DAV:   5    -0.639990481532E+03    0.22108E-02   -0.34472E-02   948   0.229E-01    0.420E-01
DAV:   6    -0.639989438398E+03    0.10431E-02   -0.23414E-02   864   0.104E-01    0.256E-01
DAV:   7    -0.639989298714E+03    0.13968E-03   -0.70254E-03   840   0.575E-02    0.222E-01
DAV:   8    -0.639989302290E+03   -0.35755E-05   -0.49978E-03   828   0.608E-02    0.117E-01
DAV:   9    -0.639989209461E+03    0.92829E-04   -0.94469E-04   708   0.368E-02
  21 F= -.65551684E+03 E0= -.65543389E+03  d E =-.126078E+01
 curvature:  -0.38 expect dE=-0.926E+00 dE for cont linesearch -0.316E-04
 trial: gam= 0.45772 g(F)=  0.245E+01 g(S)=  0.000E+00 ort =-0.270E-01 (trialstep = 0.202E+00)
 search vector abs. value=  0.426E+01
 bond charge predicted
       N       E                     dE             d eps       ncg     rms          rms(c)
DAV:   1    -0.640393181601E+03   -0.40388E+00   -0.15082E+01   600   0.493E+00    0.193E+00
DAV:   2    -0.641802062181E+03   -0.14089E+01   -0.14089E+01   948   0.390E+00    0.927E+00
DAV:   3    -0.640422566817E+03    0.13795E+01   -0.24406E+00   912   0.283E+00    0.154E+00
DAV:   4    -0.640446337467E+03   -0.23771E-01   -0.11661E+00   912   0.771E-01    0.200E+00
DAV:   5    -0.640399846868E+03    0.46491E-01   -0.40494E-01   876   0.444E-01    0.862E-01
DAV:   6    -0.640396024490E+03    0.38224E-02   -0.30903E-02   864   0.175E-01    0.490E-01
DAV:   7    -0.640398427751E+03   -0.24033E-02   -0.35813E-02   924   0.180E-01    0.882E-01
DAV:   8    -0.640397756172E+03    0.67158E-03   -0.96249E-02   948   0.295E-01    0.671E-01
DAV:   9    -0.640395286496E+03    0.24697E-02   -0.19268E-02   888   0.107E-01    0.130E-01
DAV:  10    -0.640395095031E+03    0.19147E-03   -0.14602E-03   744   0.430E-02    0.171E-01
DAV:  11    -0.640395029289E+03    0.65742E-04   -0.11730E-03   552   0.325E-02    0.563E-02
DAV:  12    -0.640395083946E+03   -0.54657E-04   -0.26036E-04   492   0.231E-02
  22 F= -.65592453E+03 E0= -.65584241E+03  d E =-.407689E+00
 trial-energy change:   -0.407689  1 .order   -0.407376   -0.492855   -0.321896
 step:   0.5833(harm=  0.5833)  dis= 0.07511  next Energy=  -656.227265 (dE=-0.710E+00)
 bond charge predicted
       N       E                     dE             d eps       ncg     rms          rms(c)
DAV:   1    -0.640630650545E+03   -0.23562E+00   -0.53077E+01   600   0.929E+00    0.328E+00
DAV:   2    -0.643038009669E+03   -0.24074E+01   -0.25593E+01   936   0.635E+00    0.116E+01
DAV:   3    -0.640716618175E+03    0.23214E+01   -0.48049E+00   888   0.395E+00    0.280E+00
DAV:   4    -0.640854128715E+03   -0.13751E+00   -0.35549E+00   900   0.983E-01    0.367E+00
DAV:   5    -0.640686088815E+03    0.16804E+00   -0.12926E+00   864   0.630E-01    0.130E+00
DAV:   6    -0.640672975224E+03    0.13114E-01   -0.95947E-02   900   0.399E-01    0.118E+00
DAV:   7    -0.640679290786E+03   -0.63156E-02   -0.20695E-01   948   0.464E-01    0.137E+00
DAV:   8    -0.640673058527E+03    0.62323E-02   -0.19851E-01   924   0.391E-01    0.906E-01
DAV:   9    -0.640671094477E+03    0.19640E-02   -0.11269E-01   948   0.330E-01    0.768E-01
DAV:  10    -0.640667831290E+03    0.32632E-02   -0.19157E-02   900   0.118E-01    0.205E-01
DAV:  11    -0.640667806114E+03    0.25176E-04   -0.22182E-03   876   0.522E-02    0.289E-01
DAV:  12    -0.640667583054E+03    0.22306E-03   -0.15452E-03   768   0.391E-02    0.138E-01
DAV:  13    -0.640667636008E+03   -0.52954E-04   -0.33062E-04   576   0.243E-02
  23 F= -.65620119E+03 E0= -.65612069E+03  d E =-.684344E+00
 curvature:  -0.51 expect dE=-0.128E+01 dE for cont linesearch -0.338E-02
 trial: gam= 0.93986 g(F)=  0.252E+01 g(S)=  0.000E+00 ort =-0.168E+00 (trialstep = 0.199E+00)
 search vector abs. value=  0.596E+01
 bond charge predicted
       N       E                     dE             d eps       ncg     rms          rms(c)
DAV:   1    -0.640990999014E+03   -0.32342E+00   -0.17787E+01   600   0.536E+00    0.204E+00
DAV:   2    -0.642350958059E+03   -0.13600E+01   -0.12623E+01   900   0.394E+00    0.949E+00
DAV:   3    -0.641036331969E+03    0.13146E+01   -0.19989E+00   888   0.280E+00    0.117E+00
DAV:   4    -0.641027226187E+03    0.91058E-02   -0.33134E-01   876   0.536E-01    0.114E+00
DAV:   5    -0.641025293901E+03    0.19323E-02   -0.28810E-01   840   0.311E-01    0.143E+00
DAV:   6    -0.641019479635E+03    0.58143E-02   -0.18401E-01   900   0.179E-01    0.807E-01
DAV:   7    -0.641019214842E+03    0.26479E-03   -0.96332E-02   948   0.259E-01    0.870E-01
DAV:   8    -0.641018782718E+03    0.43212E-03   -0.10464E-01   924   0.310E-01    0.740E-01
DAV:   9    -0.641015940827E+03    0.28419E-02   -0.16275E-02   900   0.119E-01    0.235E-01
DAV:  10    -0.641015754186E+03    0.18664E-03   -0.10993E-03   804   0.454E-02    0.299E-01
DAV:  11    -0.641015515524E+03    0.23866E-03   -0.69366E-04   468   0.265E-02    0.172E-01
DAV:  12    -0.641015490033E+03    0.25491E-04   -0.20644E-04   432   0.174E-02
  24 F= -.65655128E+03 E0= -.65647227E+03  d E =-.350087E+00
 trial-energy change:   -0.350087  1 .order   -0.351361   -0.469460   -0.233263
 step:   0.4092(harm=  0.3952)  dis= 0.05449  next Energy=  -656.673170 (dE=-0.472E+00)
 bond charge predicted
       N       E                     dE             d eps       ncg     rms          rms(c)
DAV:   1    -0.641097435797E+03   -0.81920E-01   -0.19801E+01   600   0.570E+00    0.215E+00
DAV:   2    -0.642486711909E+03   -0.13893E+01   -0.13232E+01   912   0.412E+00    0.972E+00
DAV:   3    -0.641149091560E+03    0.13376E+01   -0.20613E+00   900   0.287E+00    0.104E+00
DAV:   4    -0.641132443375E+03    0.16648E-01   -0.14778E-01   924   0.475E-01    0.102E+00
DAV:   5    -0.641131382190E+03    0.10612E-02   -0.73587E-02   936   0.292E-01    0.664E-01
DAV:   6    -0.641142562859E+03   -0.11181E-01   -0.15862E-01   972   0.249E-01    0.173E+00
DAV:   7    -0.641138492552E+03    0.40703E-02   -0.32134E-01   912   0.175E-01    0.992E-01
DAV:   8    -0.641131286247E+03    0.72063E-02   -0.45628E-02   912   0.225E-01    0.512E-01
DAV:   9    -0.641130049436E+03    0.12368E-02   -0.44176E-03   936   0.950E-02    0.390E-01
DAV:  10    -0.641129564353E+03    0.48508E-03   -0.15729E-03   792   0.388E-02    0.270E-01
DAV:  11    -0.641129285676E+03    0.27868E-03   -0.14018E-03   552   0.450E-02    0.815E-02
DAV:  12    -0.641129321578E+03   -0.35902E-04   -0.16557E-04   420   0.236E-02
  25 F= -.65666770E+03 E0= -.65659048E+03  d E =-.466509E+00
 curvature:  -0.50 expect dE=-0.817E+00 dE for cont linesearch -0.243E-03
 trial: gam= 0.48756 g(F)=  0.165E+01 g(S)=  0.000E+00 ort =-0.541E-01 (trialstep = 0.241E+00)
 search vector abs. value=  0.301E+01
 bond charge predicted
       N       E                     dE             d eps       ncg     rms          rms(c)
DAV:   1    -0.641400454663E+03   -0.27117E+00   -0.13007E+01   624   0.464E+00    0.148E+00
DAV:   2    -0.641493651961E+03   -0.93197E-01   -0.11926E+00   912   0.118E+00    0.401E+00
DAV:   3    -0.641579341794E+03   -0.85690E-01   -0.39986E+00   900   0.140E+00    0.387E+00
DAV:   4    -0.641441148324E+03    0.13819E+00   -0.77281E-01   948   0.104E+00    0.869E-01
DAV:   5    -0.641431841697E+03    0.93066E-02   -0.13555E-01   912   0.374E-01    0.751E-01
DAV:   6    -0.641428975334E+03    0.28664E-02   -0.75083E-02   912   0.253E-01    0.626E-01
DAV:   7    -0.641431380872E+03   -0.24055E-02   -0.74383E-02   876   0.167E-01    0.948E-01
DAV:   8    -0.641427137637E+03    0.42432E-02   -0.23884E-02   888   0.142E-01    0.207E-01
DAV:   9    -0.641426842813E+03    0.29482E-03   -0.29743E-03   936   0.737E-02    0.251E-01
DAV:  10    -0.641426579594E+03    0.26322E-03   -0.13965E-03   720   0.406E-02    0.559E-02
DAV:  11    -0.641426603654E+03   -0.24060E-04   -0.20618E-04   420   0.216E-02
  26 F= -.65696846E+03 E0= -.65689318E+03  d E =-.300764E+00
 trial-energy change:   -0.300764  1 .order   -0.300158   -0.389930   -0.210387
 step:   0.5231(harm=  0.5231)  dis= 0.07696  next Energy=  -657.091119 (dE=-0.423E+00)
 bond charge predicted
       N       E                     dE             d eps       ncg     rms          rms(c)
DAV:   1    -0.641507466230E+03   -0.80887E-01   -0.17727E+01   624   0.542E+00    0.180E+00
DAV:   2    -0.641668785360E+03   -0.16132E+00   -0.19370E+00   900   0.141E+00    0.528E+00
DAV:   3    -0.641737306255E+03   -0.68521E-01   -0.56913E+00   912   0.170E+00    0.425E+00
DAV:   4    -0.641563492893E+03    0.17381E+00   -0.10761E+00   924   0.122E+00    0.104E+00
DAV:   5    -0.641550874461E+03    0.12618E-01   -0.16958E-01   924   0.451E-01    0.875E-01
DAV:   6    -0.641548326375E+03    0.25481E-02   -0.10080E-01   912   0.297E-01    0.766E-01
DAV:   7    -0.641552121969E+03   -0.37956E-02   -0.10905E-01   876   0.207E-01    0.123E+00
DAV:   8    -0.641545029709E+03    0.70923E-02   -0.32620E-02   840   0.170E-01    0.218E-01
DAV:   9    -0.641544708491E+03    0.32122E-03   -0.49673E-03   924   0.879E-02    0.368E-01
DAV:  10    -0.641544174983E+03    0.53351E-03   -0.26092E-03   780   0.540E-02    0.577E-02
DAV:  11    -0.641544225003E+03   -0.50020E-04   -0.56642E-04   576   0.279E-02
  27 F= -.65709084E+03 E0= -.65701860E+03  d E =-.423143E+00
 curvature:  -0.49 expect dE=-0.536E+00 dE for cont linesearch -0.427E-04
 trial: gam= 0.67652 g(F)=  0.110E+01 g(S)=  0.000E+00 ort =-0.163E-01 (trialstep = 0.297E+00)
 search vector abs. value=  0.246E+01
 bond charge predicted
       N       E                     dE             d eps       ncg     rms          rms(c)
DAV:   1    -0.641769957319E+03   -0.22578E+00   -0.13483E+01   600   0.479E+00    0.193E+00
DAV:   2    -0.642326185993E+03   -0.55623E+00   -0.56546E+00   912   0.221E+00    0.819E+00
DAV:   3    -0.641932004131E+03    0.39418E+00   -0.62065E+00   912   0.230E+00    0.374E+00
DAV:   4    -0.641820106511E+03    0.11190E+00   -0.12958E+00   936   0.115E+00    0.176E+00
DAV:   5    -0.641800077194E+03    0.20029E-01   -0.22355E-01   900   0.489E-01    0.100E+00
DAV:   6    -0.641796808782E+03    0.32684E-02   -0.74948E-02   900   0.259E-01    0.598E-01
DAV:   7    -0.641803951350E+03   -0.71426E-02   -0.82397E-02   912   0.201E-01    0.144E+00
DAV:   8    -0.641794092459E+03    0.98589E-02   -0.27596E-02   792   0.145E-01    0.177E-01
DAV:   9    -0.641793898833E+03    0.19363E-03   -0.52543E-03   912   0.886E-02    0.479E-01
DAV:  10    -0.641793065312E+03    0.83352E-03   -0.21917E-03   828   0.512E-02    0.115E-01
DAV:  11    -0.641793107052E+03   -0.41739E-04   -0.38009E-04   660   0.280E-02
  28 F= -.65734128E+03 E0= -.65727439E+03  d E =-.250439E+00
 trial-energy change:   -0.250439  1 .order   -0.249215   -0.324326   -0.174104
 step:   0.6105(harm=  0.6419)  dis= 0.06876  next Energy=  -657.434396 (dE=-0.344E+00)
 bond charge predicted
       N       E                     dE             d eps       ncg     rms          rms(c)
DAV:   1    -0.641868006963E+03   -0.74942E-01   -0.14948E+01   600   0.503E+00    0.201E+00
DAV:   2    -0.642432186223E+03   -0.56418E+00   -0.59364E+00   912   0.222E+00    0.853E+00
DAV:   3    -0.642030967162E+03    0.40122E+00   -0.64032E+00   924   0.232E+00    0.376E+00
DAV:   4    -0.641925302164E+03    0.10566E+00   -0.13451E+00   936   0.121E+00    0.193E+00
DAV:   5    -0.641901643928E+03    0.23658E-01   -0.24146E-01   912   0.518E-01    0.104E+00
DAV:   6    -0.641897688899E+03    0.39550E-02   -0.71109E-02   876   0.241E-01    0.601E-01
DAV:   7    -0.641903882170E+03   -0.61933E-02   -0.62633E-02   912   0.203E-01    0.137E+00
DAV:   8    -0.641894938108E+03    0.89441E-02   -0.19969E-02   768   0.144E-01    0.196E-01
DAV:   9    -0.641894781458E+03    0.15665E-03   -0.37572E-03   912   0.823E-02    0.458E-01
DAV:  10    -0.641894079470E+03    0.70199E-03   -0.13886E-03   816   0.472E-02    0.127E-01
DAV:  11    -0.641894145860E+03   -0.66390E-04   -0.32761E-04   684   0.283E-02
  29 F= -.65744469E+03 E0= -.65738447E+03  d E =-.353850E+00
 curvature:  -0.72 expect dE=-0.692E+00 dE for cont linesearch -0.120E-02
 trial: gam= 0.82814 g(F)=  0.966E+00 g(S)=  0.000E+00 ort = 0.642E-01 (trialstep = 0.321E+00)
 search vector abs. value=  0.276E+01
 bond charge predicted
       N       E                     dE             d eps       ncg     rms          rms(c)
DAV:   1    -0.642163840512E+03   -0.26976E+00   -0.16166E+01   600   0.489E+00    0.253E+00
DAV:   2    -0.643045680247E+03   -0.88184E+00   -0.98625E+00   912   0.286E+00    0.982E+00
DAV:   3    -0.642323702915E+03    0.72198E+00   -0.73064E+00   924   0.291E+00    0.401E+00
DAV:   4    -0.642238924054E+03    0.84779E-01   -0.17194E+00   936   0.163E+00    0.236E+00
DAV:   5    -0.642196976160E+03    0.41948E-01   -0.40099E-01   900   0.645E-01    0.100E+00
DAV:   6    -0.642191688216E+03    0.52879E-02   -0.46889E-02   876   0.217E-01    0.570E-01
DAV:   7    -0.642190410766E+03    0.12774E-02   -0.14016E-02   888   0.148E-01    0.395E-01
DAV:   8    -0.642190270950E+03    0.13982E-03   -0.11750E-02   852   0.132E-01    0.266E-01
DAV:   9    -0.642189952660E+03    0.31829E-03   -0.77930E-03   864   0.815E-02    0.333E-01
DAV:  10    -0.642189488814E+03    0.46385E-03   -0.16740E-03   744   0.462E-02    0.107E-01
DAV:  11    -0.642189695919E+03   -0.20711E-03   -0.87784E-04   612   0.352E-02    0.219E-01
DAV:  12    -0.642189552445E+03    0.14347E-03   -0.28485E-04   432   0.244E-02    0.610E-02
DAV:  13    -0.642189649933E+03   -0.97488E-04   -0.87246E-05   408   0.148E-02
  30 F= -.65774074E+03 E0= -.65769263E+03  d E =-.296045E+00
 trial-energy change:   -0.296045  1 .order   -0.293832   -0.326852   -0.260812
 step:   1.0772(harm=  1.5879)  dis= 0.15031  next Energy=  -658.077172 (dE=-0.632E+00)
 bond charge predicted
       N       E                     dE             d eps       ncg     rms          rms(c)
DAV:   1    -0.642369941420E+03   -0.18039E+00   -0.89811E+01   600   0.116E+01    0.686E+00
DAV:   2    -0.643805965976E+03   -0.14360E+01   -0.17338E+01   912   0.447E+00    0.119E+01
DAV:   3    -0.643495881504E+03    0.31008E+00   -0.26045E+01   924   0.607E+00    0.997E+00
DAV:   4    -0.642799610093E+03    0.69627E+00   -0.87049E+00   960   0.617E+00    0.392E+00
DAV:   5    -0.642611357769E+03    0.18825E+00   -0.14421E+00   876   0.142E+00    0.239E+00
DAV:   6    -0.642578660504E+03    0.32697E-01   -0.20479E-01   912   0.556E-01    0.144E+00
DAV:   7    -0.642577913723E+03    0.74678E-03   -0.12228E-01   912   0.420E-01    0.142E+00
DAV:   8    -0.642577557385E+03    0.35634E-03   -0.68347E-02   900   0.359E-01    0.909E-01
DAV:   9    -0.642572837516E+03    0.47199E-02   -0.35735E-02   828   0.236E-01    0.389E-01
DAV:  10    -0.642570858860E+03    0.19787E-02   -0.15902E-02   888   0.177E-01    0.308E-01
DAV:  11    -0.642570244673E+03    0.61419E-03   -0.24255E-03   876   0.800E-02    0.117E-01
DAV:  12    -0.642570480818E+03   -0.23615E-03   -0.72001E-04   780   0.422E-02    0.149E-01
DAV:  13    -0.642570612099E+03   -0.13128E-03   -0.39805E-04   576   0.288E-02    0.603E-02
DAV:  14    -0.642570750868E+03   -0.13877E-03   -0.13927E-04   504   0.233E-02    0.530E-02
DAV:  15    -0.642570859879E+03   -0.10901E-03   -0.59331E-05   408   0.136E-02    0.229E-02
DAV:  16    -0.642570978007E+03   -0.11813E-03   -0.40993E-05   384   0.115E-02    0.179E-02
DAV:  17    -0.642571140200E+03   -0.16219E-03   -0.31836E-05   396   0.109E-02    0.675E-03
DAV:  18    -0.642571212485E+03   -0.72284E-04   -0.15487E-05   372   0.746E-03
  31 F= -.65812747E+03 E0= -.65809166E+03  d E =-.682777E+00
 curvature:  -1.80 expect dE=-0.462E+01 dE for cont linesearch -0.191E-01
 trial: gam= 2.55847 g(F)=  0.256E+01 g(S)=  0.000E+00 ort = 0.171E+00 (trialstep = 0.606E-01)
 search vector abs. value=  0.215E+02
 bond charge predicted
       N       E                     dE             d eps       ncg     rms          rms(c)
DAV:   1    -0.642737288360E+03   -0.16615E+00   -0.42976E+00   600   0.242E+00    0.137E+00
DAV:   2    -0.642902741901E+03   -0.16545E+00   -0.16015E+00   888   0.128E+00    0.610E+00
DAV:   3    -0.642792461742E+03    0.11028E+00   -0.20839E+00   936   0.135E+00    0.215E+00
DAV:   4    -0.642763968474E+03    0.28493E-01   -0.46675E-01   948   0.784E-01    0.143E+00
DAV:   5    -0.642748089613E+03    0.15879E-01   -0.91585E-02   912   0.388E-01    0.439E-01
DAV:   6    -0.642746902502E+03    0.11871E-02   -0.14624E-02   900   0.135E-01    0.315E-01
DAV:   7    -0.642746251588E+03    0.65091E-03   -0.29234E-03   804   0.735E-02    0.137E-01
DAV:   8    -0.642746273008E+03   -0.21420E-04   -0.76665E-04   816   0.474E-02
  32 F= -.65830445E+03 E0= -.65827011E+03  d E =-.176982E+00
 ZBRENT: can't locate minimum, use default step
 trial-energy change:   -0.176982  1 .order   -0.176857   -0.181857   -0.171857
 step:   0.2423(harm=  1.1017)  dis= 0.10735  next Energy=  -659.781067 (dE=-0.165E+01)
 bond charge predicted
       N       E                     dE             d eps       ncg     rms          rms(c)
DAV:   1    -0.643082502398E+03   -0.33625E+00   -0.38967E+01   600   0.728E+00    0.571E+00
DAV:   2    -0.643403751641E+03   -0.32125E+00   -0.34915E+00   864   0.233E+00    0.645E+00
DAV:   3    -0.644597323499E+03   -0.11936E+01   -0.18336E+01   924   0.558E+00    0.116E+01
DAV:   4    -0.643357402001E+03    0.12399E+01   -0.56956E+00   948   0.580E+00    0.244E+00
DAV:   5    -0.643219342539E+03    0.13806E+00   -0.46308E-01   852   0.113E+00    0.167E+00
DAV:   6    -0.643196765057E+03    0.22577E-01   -0.13679E-01   900   0.538E-01    0.930E-01
DAV:   7    -0.643192355407E+03    0.44097E-02   -0.32909E-02   792   0.266E-01    0.741E-01
DAV:   8    -0.643189671736E+03    0.26837E-02   -0.15861E-02   864   0.189E-01    0.422E-01
DAV:   9    -0.643189540402E+03    0.13133E-03   -0.88031E-03   876   0.135E-01    0.226E-01
DAV:  10    -0.643189371398E+03    0.16900E-03   -0.67576E-03   864   0.107E-01    0.192E-01
DAV:  11    -0.643189172303E+03    0.19909E-03   -0.17309E-03   804   0.586E-02    0.849E-02
DAV:  12    -0.643189312836E+03   -0.14053E-03   -0.62096E-04   588   0.373E-02    0.104E-01
DAV:  13    -0.643189313473E+03   -0.63799E-06   -0.23826E-04   468   0.267E-02
  33 F= -.65875470E+03 E0= -.65872357E+03  d E =-.627228E+00
 curvature:  -1.26 expect dE=-0.239E+01 dE for cont linesearch -0.243E+00
 ZBRENT: increasing intervall
 opt :   0.6058  next Energy=  -659.204253 (dE=-0.108E+01)
 bond charge predicted
       N       E                     dE             d eps       ncg     rms          rms(c)
DAV:   1    -0.642676627603E+03    0.51269E+00   -0.16021E+02   600   0.148E+01    0.265E+01
DAV:   2    -0.643337907664E+03   -0.66128E+00   -0.82431E+00   840   0.380E+00    0.467E+00
DAV:   3    -0.643466510101E+03   -0.12860E+00   -0.21962E+00   876   0.160E+00    0.678E+00
DAV:   4    -0.643433774465E+03    0.32736E-01   -0.39286E+00   924   0.216E+00    0.524E+00
DAV:   5    -0.643327960183E+03    0.10581E+00   -0.10263E+00   912   0.167E+00    0.299E+00
DAV:   6    -0.643266668116E+03    0.61292E-01   -0.22883E-01   816   0.779E-01    0.168E+00
DAV:   7    -0.643250514549E+03    0.16154E-01   -0.10018E-01   840   0.428E-01    0.810E-01
DAV:   8    -0.643247335079E+03    0.31795E-02   -0.28885E-02   828   0.241E-01    0.531E-01
DAV:   9    -0.643247177439E+03    0.15764E-03   -0.83368E-03   840   0.136E-01    0.346E-01
DAV:  10    -0.643246873011E+03    0.30443E-03   -0.43355E-03   876   0.110E-01    0.197E-01
DAV:  11    -0.643246857528E+03    0.15483E-04   -0.19027E-03   828   0.640E-02    0.101E-01
DAV:  12    -0.643246967004E+03   -0.10948E-03   -0.67045E-04   768   0.372E-02    0.613E-02
DAV:  13    -0.643247165902E+03   -0.19890E-03   -0.16101E-04   516   0.208E-02    0.361E-02
DAV:  14    -0.643247321221E+03   -0.15532E-03   -0.55124E-05   420   0.151E-02    0.211E-02
DAV:  15    -0.643247560112E+03   -0.23889E-03   -0.38841E-05   420   0.100E-02    0.123E-02
DAV:  16    -0.643247690712E+03   -0.13060E-03   -0.19280E-05   372   0.860E-03    0.103E-02
DAV:  17    -0.643247837056E+03   -0.14634E-03   -0.17195E-05   384   0.642E-03    0.679E-03
DAV:  18    -0.643248006081E+03   -0.16902E-03   -0.19307E-05   372   0.626E-03    0.455E-03
DAV:  19    -0.643248119495E+03   -0.11341E-03   -0.14883E-05   336   0.529E-03    0.338E-03
DAV:  20    -0.643248167519E+03   -0.48024E-04   -0.82043E-06   336   0.426E-03
  34 F= -.65883294E+03 E0= -.65880407E+03  d E =-.705477E+00
 curvature:  -2.33 expect dE=-0.718E+01 dE for cont linesearch -0.724E+00
 ZBRENT: bracketing found
 ZBRENT: interpolating
 opt :   0.4025  next Energy=  -658.917825 (dE=-0.790E+00)
 bond charge predicted
       N       E                     dE             d eps       ncg     rms          rms(c)
DAV:   1    -0.643208410040E+03    0.39709E-01   -0.51296E+01   600   0.854E+00    0.514E+00
DAV:   2    -0.643449085670E+03   -0.24068E+00   -0.28690E+00   840   0.217E+00    0.351E+00
DAV:   3    -0.643659724712E+03   -0.21064E+00   -0.13428E+00   924   0.201E+00    0.585E+00
DAV:   4    -0.643434662460E+03    0.22506E+00   -0.18043E+00   912   0.215E+00    0.325E+00
DAV:   5    -0.643425368393E+03    0.92941E-02   -0.12712E-01   792   0.475E-01    0.236E+00
DAV:   6    -0.643443570823E+03   -0.18202E-01   -0.33940E-01   840   0.696E-01    0.152E+00
DAV:   7    -0.643414548193E+03    0.29023E-01   -0.23205E-01   876   0.597E-01    0.517E-01
DAV:   8    -0.643410839668E+03    0.37085E-02   -0.24745E-02   804   0.206E-01    0.276E-01
DAV:   9    -0.643410801420E+03    0.38248E-04   -0.26042E-03   888   0.812E-02    0.170E-01
DAV:  10    -0.643411103523E+03   -0.30210E-03   -0.17087E-03   864   0.666E-02    0.213E-01
DAV:  11    -0.643411030131E+03    0.73393E-04   -0.11219E-03   732   0.547E-02    0.710E-02
DAV:  12    -0.643411106653E+03   -0.76523E-04   -0.26569E-04   576   0.227E-02
  35 F= -.65898439E+03 E0= -.65895420E+03  d E =-.856919E+00
 curvature:  -0.52 expect dE=-0.935E+00 dE for cont linesearch -0.121E-01
 ZBRENT: interpolating
 opt :   0.4691  next Energy=  -659.012895 (dE=-0.885E+00)
 bond charge predicted
       N       E                     dE             d eps       ncg     rms          rms(c)
DAV:   1    -0.643409561638E+03    0.14685E-02   -0.54473E+00   600   0.273E+00    0.241E+00
DAV:   2    -0.643430332113E+03   -0.20770E-01   -0.26182E-01   816   0.682E-01    0.544E-01
DAV:   3    -0.643430597359E+03   -0.26525E-03   -0.23868E-02   852   0.232E-01    0.664E-01
DAV:   4    -0.643439997871E+03   -0.94005E-02   -0.71775E-02   924   0.440E-01    0.133E+00
DAV:   5    -0.643430255510E+03    0.97424E-02   -0.68152E-02   924   0.399E-01    0.392E-01
DAV:   6    -0.643428261222E+03    0.19943E-02   -0.11429E-02   804   0.144E-01    0.142E-01
DAV:   7    -0.643428241974E+03    0.19248E-04   -0.32606E-03   816   0.693E-02    0.139E-01
DAV:   8    -0.643428083545E+03    0.15843E-03   -0.96737E-04   744   0.443E-02    0.642E-02
DAV:   9    -0.643428074004E+03    0.95407E-05   -0.93840E-05   432   0.180E-02
  36 F= -.65900497E+03 E0= -.65897532E+03  d E =-.877507E+00
 curvature:  -1.23 expect dE=-0.234E+01 dE for cont linesearch -0.104E-02
 trial: gam= 0.24922 g(F)=  0.190E+01 g(S)=  0.000E+00 ort =-0.134E+00 (trialstep = 0.142E+00)
 search vector abs. value=  0.317E+01
 bond charge predicted
       N       E                     dE             d eps       ncg     rms          rms(c)
DAV:   1    -0.643640305430E+03   -0.21222E+00   -0.45945E+00   600   0.279E+00    0.138E+00
DAV:   2    -0.643701406392E+03   -0.61101E-01   -0.40239E-01   900   0.104E+00    0.243E+00
DAV:   3    -0.643731867290E+03   -0.30461E-01   -0.88117E-01   924   0.151E+00    0.374E+00
DAV:   4    -0.643670255601E+03    0.61612E-01   -0.28783E-01   912   0.822E-01    0.899E-01
DAV:   5    -0.643653370842E+03    0.16885E-01   -0.38059E-02   816   0.238E-01    0.322E-01
DAV:   6    -0.643652270287E+03    0.11006E-02   -0.55231E-03   876   0.114E-01    0.193E-01
DAV:   7    -0.643652523524E+03   -0.25324E-03   -0.37716E-03   864   0.840E-02    0.189E-01
DAV:   8    -0.643652263660E+03    0.25986E-03   -0.29535E-03   840   0.692E-02    0.116E-01
DAV:   9    -0.643652146679E+03    0.11698E-03   -0.72669E-04   720   0.371E-02    0.547E-02
DAV:  10    -0.643652127372E+03    0.19306E-04   -0.80667E-05   408   0.189E-02
  37 F= -.65922932E+03 E0= -.65919907E+03  d E =-.224349E+00
 trial-energy change:   -0.224349  1 .order   -0.224461   -0.265617   -0.183306
 step:   0.4592(harm=  0.4592)  dis= 0.05387  next Energy=  -659.433549 (dE=-0.429E+00)
 bond charge predicted
       N       E                     dE             d eps       ncg     rms          rms(c)
DAV:   1    -0.643799128720E+03   -0.14698E+00   -0.22706E+01   600   0.619E+00    0.369E+00
DAV:   2    -0.644194151384E+03   -0.39502E+00   -0.26081E+00   912   0.276E+00    0.573E+00
DAV:   3    -0.644264343311E+03   -0.70192E-01   -0.81136E+00   936   0.474E+00    0.744E+00
DAV:   4    -0.643986054862E+03    0.27829E+00   -0.29207E+00   900   0.210E+00    0.181E+00
DAV:   5    -0.643874244861E+03    0.11181E+00   -0.19837E-01   816   0.644E-01    0.976E-01
DAV:   6    -0.643861159677E+03    0.13085E-01   -0.40424E-02   888   0.359E-01    0.579E-01
DAV:   7    -0.643859104637E+03    0.20550E-02   -0.30824E-02   804   0.245E-01    0.388E-01
DAV:   8    -0.643858111559E+03    0.99308E-03   -0.92423E-03   828   0.162E-01    0.183E-01
DAV:   9    -0.643858202875E+03   -0.91316E-04   -0.44118E-03   840   0.976E-02    0.156E-01
DAV:  10    -0.643857948092E+03    0.25478E-03   -0.15890E-03   804   0.575E-02    0.679E-02
DAV:  11    -0.643857952240E+03   -0.41485E-05   -0.24941E-04   540   0.297E-02
  38 F= -.65943628E+03 E0= -.65940668E+03  d E =-.431310E+00
 curvature:  -0.39 expect dE=-0.499E+00 dE for cont linesearch -0.593E-04
 trial: gam= 0.48858 g(F)=  0.128E+01 g(S)=  0.000E+00 ort = 0.220E-01 (trialstep = 0.206E+00)
 search vector abs. value=  0.206E+01
 bond charge predicted
       N       E                     dE             d eps       ncg     rms          rms(c)
DAV:   1    -0.644062922006E+03   -0.20497E+00   -0.57854E+00   600   0.319E+00    0.154E+00
DAV:   2    -0.644096087276E+03   -0.33165E-01   -0.31604E-01   876   0.853E-01    0.141E+00
DAV:   3    -0.644287278621E+03   -0.19119E+00   -0.16677E+00   924   0.163E+00    0.603E+00
DAV:   4    -0.644112040342E+03    0.17524E+00   -0.98029E-01   912   0.117E+00    0.919E-01
DAV:   5    -0.644084326225E+03    0.27714E-01   -0.40695E-02   924   0.270E-01    0.408E-01
DAV:   6    -0.644083222312E+03    0.11039E-02   -0.62023E-03   900   0.112E-01    0.284E-01
DAV:   7    -0.644083671565E+03   -0.44925E-03   -0.87812E-03   840   0.137E-01    0.249E-01
DAV:   8    -0.644082876578E+03    0.79499E-03   -0.51201E-03   792   0.844E-02    0.122E-01
DAV:   9    -0.644082835562E+03    0.41016E-04   -0.50300E-04   672   0.357E-02
  39 F= -.65965800E+03 E0= -.65962766E+03  d E =-.221716E+00
 trial-energy change:   -0.221716  1 .order   -0.221562   -0.265399   -0.177724
 step:   0.6226(harm=  0.6226)  dis= 0.06820  next Energy=  -659.837976 (dE=-0.402E+00)
 bond charge predicted
       N       E                     dE             d eps       ncg     rms          rms(c)
DAV:   1    -0.644186247376E+03   -0.10337E+00   -0.23802E+01   600   0.647E+00    0.310E+00
DAV:   2    -0.644359369598E+03   -0.17312E+00   -0.14702E+00   888   0.196E+00    0.335E+00
DAV:   3    -0.644847476758E+03   -0.48811E+00   -0.75129E+00   936   0.368E+00    0.877E+00
DAV:   4    -0.644341913567E+03    0.50556E+00   -0.40970E+00   912   0.203E+00    0.152E+00
DAV:   5    -0.644270828101E+03    0.71085E-01   -0.12541E-01   888   0.542E-01    0.865E-01
DAV:   6    -0.644267667528E+03    0.31606E-02   -0.28005E-02   888   0.259E-01    0.607E-01
DAV:   7    -0.644270312078E+03   -0.26445E-02   -0.27053E-02   828   0.221E-01    0.500E-01
DAV:   8    -0.644267709612E+03    0.26025E-02   -0.18648E-02   876   0.185E-01    0.236E-01
DAV:   9    -0.644267046581E+03    0.66303E-03   -0.47076E-03   840   0.970E-02    0.136E-01
DAV:  10    -0.644266878514E+03    0.16807E-03   -0.92424E-04   828   0.498E-02    0.789E-02
DAV:  11    -0.644266903187E+03   -0.24673E-04   -0.31196E-04   660   0.270E-02
  40 F= -.65983622E+03 E0= -.65980865E+03  d E =-.399939E+00
 curvature:  -0.50 expect dE=-0.449E+00 dE for cont linesearch -0.256E-04
 trial: gam= 0.76582 g(F)=  0.905E+00 g(S)=  0.000E+00 ort =-0.103E-01 (trialstep = 0.284E+00)
 search vector abs. value=  0.210E+01
 bond charge predicted
       N       E                     dE             d eps       ncg     rms          rms(c)
DAV:   1    -0.644418293126E+03   -0.15141E+00   -0.10463E+01   600   0.414E+00    0.202E+00
DAV:   2    -0.644506406735E+03   -0.88114E-01   -0.75439E-01   912   0.147E+00    0.292E+00
DAV:   3    -0.644646368826E+03   -0.13996E+00   -0.13857E+00   936   0.211E+00    0.429E+00
DAV:   4    -0.644480114608E+03    0.16625E+00   -0.96704E-01   924   0.161E+00    0.108E+00
DAV:   5    -0.644460971722E+03    0.19143E-01   -0.40482E-02   864   0.355E-01    0.632E-01
DAV:   6    -0.644461221800E+03   -0.25008E-03   -0.29224E-02   924   0.291E-01    0.638E-01
DAV:   7    -0.644461213150E+03    0.86503E-05   -0.21969E-02   816   0.198E-01    0.376E-01
DAV:   8    -0.644460334840E+03    0.87831E-03   -0.54815E-03   876   0.116E-01    0.238E-01
DAV:   9    -0.644459741108E+03    0.59373E-03   -0.25089E-03   840   0.720E-02    0.153E-01
DAV:  10    -0.644459529087E+03    0.21202E-03   -0.10081E-03   792   0.498E-02    0.647E-02
DAV:  11    -0.644459550055E+03   -0.20968E-04   -0.34685E-04   672   0.298E-02
  41 F= -.66002623E+03 E0= -.66000171E+03  d E =-.190011E+00
 trial-energy change:   -0.190011  1 .order   -0.190063   -0.254491   -0.125634
 step:   0.5605(harm=  0.5605)  dis= 0.06350  next Energy=  -660.087532 (dE=-0.251E+00)
 bond charge predicted
       N       E                     dE             d eps       ncg     rms          rms(c)
DAV:   1    -0.644486010702E+03   -0.26482E-01   -0.99379E+00   600   0.403E+00    0.194E+00
DAV:   2    -0.644562488614E+03   -0.76478E-01   -0.69440E-01   912   0.143E+00    0.254E+00
DAV:   3    -0.644691311672E+03   -0.12882E+00   -0.12377E+00   936   0.208E+00    0.404E+00
DAV:   4    -0.644539909030E+03    0.15140E+00   -0.87614E-01   936   0.156E+00    0.957E-01
DAV:   5    -0.644525848015E+03    0.14061E-01   -0.37077E-02   876   0.331E-01    0.559E-01
DAV:   6    -0.644526740524E+03   -0.89251E-03   -0.24220E-02   924   0.262E-01    0.588E-01
DAV:   7    -0.644526075584E+03    0.66494E-03   -0.19126E-02   864   0.197E-01    0.287E-01
DAV:   8    -0.644525367799E+03    0.70779E-03   -0.39304E-03   912   0.951E-02    0.172E-01
DAV:   9    -0.644525104970E+03    0.26283E-03   -0.15934E-03   804   0.582E-02    0.117E-01
DAV:  10    -0.644524984499E+03    0.12047E-03   -0.56618E-04   696   0.404E-02    0.516E-02
DAV:  11    -0.644525003104E+03   -0.18605E-04   -0.21490E-04   600   0.253E-02
  42 F= -.66008936E+03 E0= -.66006791E+03  d E =-.253141E+00
 curvature:  -0.65 expect dE=-0.401E+00 dE for cont linesearch -0.543E-04
 trial: gam= 0.65694 g(F)=  0.613E+00 g(S)=  0.000E+00 ort = 0.132E-01 (trialstep = 0.339E+00)
 search vector abs. value=  0.153E+01
 bond charge predicted
       N       E                     dE             d eps       ncg     rms          rms(c)
DAV:   1    -0.644668736229E+03   -0.14375E+00   -0.10228E+01   600   0.384E+00    0.165E+00
DAV:   2    -0.644712557986E+03   -0.43822E-01   -0.50703E-01   864   0.101E+00    0.120E+00
DAV:   3    -0.644816925798E+03   -0.10437E+00   -0.61924E-01   948   0.146E+00    0.432E+00
DAV:   4    -0.644719656872E+03    0.97269E-01   -0.37809E-01   912   0.113E+00    0.818E-01
DAV:   5    -0.644704352686E+03    0.15304E-01   -0.26775E-02   912   0.240E-01    0.454E-01
DAV:   6    -0.644702945544E+03    0.14071E-02   -0.63607E-03   876   0.135E-01    0.250E-01
DAV:   7    -0.644702960581E+03   -0.15038E-04   -0.42535E-03   828   0.957E-02    0.153E-01
DAV:   8    -0.644702697199E+03    0.26338E-03   -0.17294E-03   816   0.643E-02    0.617E-02
DAV:   9    -0.644702682368E+03    0.14830E-04   -0.32133E-04   624   0.293E-02
  43 F= -.66026550E+03 E0= -.66024662E+03  d E =-.176133E+00
 trial-energy change:   -0.176133  1 .order   -0.175931   -0.210801   -0.141060
 step:   1.0250(harm=  1.0250)  dis= 0.12593  next Energy=  -660.407950 (dE=-0.319E+00)
 bond charge predicted
       N       E                     dE             d eps       ncg     rms          rms(c)
DAV:   1    -0.644703308948E+03   -0.61175E-03   -0.41863E+01   600   0.774E+00    0.384E+00
DAV:   2    -0.644943040667E+03   -0.23973E+00   -0.24510E+00   864   0.258E+00    0.352E+00
DAV:   3    -0.645443846555E+03   -0.50081E+00   -0.75956E+00   948   0.415E+00    0.894E+00
DAV:   4    -0.644933027503E+03    0.51082E+00   -0.60335E+00   900   0.238E+00    0.155E+00
DAV:   5    -0.644858687330E+03    0.74340E-01   -0.15201E-01   912   0.585E-01    0.119E+00
DAV:   6    -0.644849498076E+03    0.91893E-02   -0.29090E-02   912   0.328E-01    0.867E-01
DAV:   7    -0.644849569739E+03   -0.71664E-04   -0.33221E-02   948   0.257E-01    0.590E-01
DAV:   8    -0.644847574826E+03    0.19949E-02   -0.17300E-02   840   0.186E-01    0.315E-01
DAV:   9    -0.644846510100E+03    0.10647E-02   -0.48474E-03   864   0.111E-01    0.152E-01
DAV:  10    -0.644846348904E+03    0.16120E-03   -0.20871E-03   912   0.710E-02    0.802E-02
DAV:  11    -0.644846384401E+03   -0.35497E-04   -0.53083E-04   696   0.356E-02
  44 F= -.66040601E+03 E0= -.66038957E+03  d E =-.316646E+00
 curvature:  -1.27 expect dE=-0.112E+01 dE for cont linesearch -0.569E-04
 trial: gam= 1.49584 g(F)=  0.887E+00 g(S)=  0.000E+00 ort =-0.831E-02 (trialstep = 0.170E+00)
 search vector abs. value=  0.430E+01
 bond charge predicted
       N       E                     dE             d eps       ncg     rms          rms(c)
DAV:   1    -0.644953329033E+03   -0.10698E+00   -0.71598E+00   600   0.315E+00    0.146E+00
DAV:   2    -0.644999936935E+03   -0.46608E-01   -0.42653E-01   876   0.108E+00    0.162E+00
DAV:   3    -0.645071137546E+03   -0.71201E-01   -0.64466E-01   948   0.170E+00    0.377E+00
DAV:   4    -0.644991702003E+03    0.79436E-01   -0.26644E-01   912   0.110E+00    0.664E-01
DAV:   5    -0.644978731582E+03    0.12970E-01   -0.22898E-02   864   0.226E-01    0.376E-01
DAV:   6    -0.644977725915E+03    0.10057E-02   -0.63585E-03   912   0.147E-01    0.230E-01
DAV:   7    -0.644978031432E+03   -0.30552E-03   -0.56665E-03   816   0.101E-01    0.179E-01
DAV:   8    -0.644977638993E+03    0.39244E-03   -0.20326E-03   804   0.674E-02    0.754E-02
DAV:   9    -0.644977594455E+03    0.44538E-04   -0.45043E-04   732   0.351E-02
  45 F= -.66053745E+03 E0= -.66052125E+03  d E =-.131444E+00
 ZBRENT: can't locate minimum, use default step
 trial-energy change:   -0.131444  1 .order   -0.131418   -0.148819   -0.114017
 step:   0.6806(harm=  0.7276)  dis= 0.15061  next Energy=  -660.724199 (dE=-0.318E+00)
 bond charge predicted
       N       E                     dE             d eps       ncg     rms          rms(c)
DAV:   1    -0.644933053172E+03    0.44586E-01   -0.64320E+01   600   0.951E+00    0.638E+00
DAV:   2    -0.645435373250E+03   -0.50232E+00   -0.44471E+00   864   0.388E+00    0.557E+00
DAV:   3    -0.646436389992E+03   -0.10010E+01   -0.16537E+01   948   0.780E+00    0.111E+01
DAV:   4    -0.645305583875E+03    0.11308E+01   -0.10775E+01   912   0.335E+00    0.203E+00
DAV:   5    -0.645184492185E+03    0.12109E+00   -0.34110E-01   852   0.853E-01    0.145E+00
DAV:   6    -0.645166664927E+03    0.17827E-01   -0.67774E-02   912   0.482E-01    0.115E+00
[...]
DAV:   1    -0.651737419808E+03   -0.10104E-03   -0.24417E-02   600   0.189E-01    0.496E-02
DAV:   2    -0.651737516142E+03   -0.96333E-04   -0.91492E-04   852   0.536E-02
 481 F= -.66717814E+03 E0= -.66716164E+03  d E =-.470022E-03
 curvature:  -2.57 expect dE=-0.419E-02 dE for cont linesearch -0.833E-06
 trial: gam= 0.69993 g(F)=  0.163E-02 g(S)=  0.000E+00 ort =-0.920E-04 (trialstep = 0.262E+00)
 search vector abs. value=  0.143E-01
 bond charge predicted
       N       E                     dE             d eps       ncg     rms          rms(c)
DAV:   1    -0.651737426310E+03   -0.65021E-05   -0.60253E-02   600   0.295E-01    0.928E-02
DAV:   2    -0.651738078123E+03   -0.65181E-03   -0.35106E-03   948   0.938E-02    0.239E-01
DAV:   3    -0.651737639344E+03    0.43878E-03   -0.37711E-03   852   0.101E-01    0.112E-01
DAV:   4    -0.651737537601E+03    0.10174E-03   -0.41437E-04   552   0.325E-02    0.269E-02
DAV:   5    -0.651737532604E+03    0.49971E-05   -0.51523E-05   360   0.119E-02
 482 F= -.66717837E+03 E0= -.66716112E+03  d E =-.225799E-03
 trial-energy change:   -0.000226  1 .order   -0.000309   -0.000411   -0.000206
 step:   0.5256(harm=  0.5256)  dis= 0.00442  next Energy=  -667.178554 (dE=-0.413E-03)
 bond charge predicted
       N       E                     dE             d eps       ncg     rms          rms(c)
DAV:   1    -0.651737332253E+03    0.20535E-03   -0.60229E-02   600   0.291E-01    0.881E-02
DAV:   2    -0.651737580970E+03   -0.24872E-03   -0.19766E-03   912   0.693E-02    0.144E-01
DAV:   3    -0.651737579244E+03    0.17260E-05   -0.22986E-03   768   0.748E-02    0.140E-01
DAV:   4    -0.651737413375E+03    0.16587E-03   -0.58959E-04   588   0.412E-02    0.289E-02
DAV:   5    -0.651737417661E+03   -0.42858E-05   -0.90591E-05   420   0.139E-02
 483 F= -.66717846E+03 E0= -.66716108E+03  d E =-.321348E-03
 curvature:  -2.39 expect dE=-0.230E-02 dE for cont linesearch -0.320E-06
 trial: gam= 0.49832 g(F)=  0.962E-03 g(S)=  0.000E+00 ort = 0.437E-04 (trialstep = 0.315E+00)
 search vector abs. value=  0.455E-02
 bond charge predicted
       N       E                     dE             d eps       ncg     rms          rms(c)
DAV:   1    -0.651737348770E+03    0.64605E-04   -0.30334E-02   600   0.205E-01    0.499E-02
DAV:   2    -0.651737460416E+03   -0.11165E-03   -0.94961E-04   792   0.519E-02    0.879E-02
DAV:   3    -0.651737434700E+03    0.25717E-04   -0.69017E-04   636   0.453E-02
 484 F= -.66717869E+03 E0= -.66716062E+03  d E =-.224405E-03
 trial-energy change:   -0.000224  1 .order   -0.000206   -0.000310   -0.000102
 step:   0.4692(harm=  0.4692)  dis= 0.00210  next Energy=  -667.178694 (dE=-0.231E-03)
 bond charge predicted
       N       E                     dE             d eps       ncg     rms          rms(c)
DAV:   1    -0.651737298341E+03    0.16208E-03   -0.73921E-03   636   0.104E-01    0.359E-02
DAV:   2    -0.651737318737E+03   -0.20396E-04   -0.30890E-04   492   0.280E-02
 485 F= -.66717867E+03 E0= -.66716186E+03  d E =-.210178E-03
 curvature:  -1.08 expect dE=-0.858E-03 dE for cont linesearch -0.180E-05
 trial: gam= 0.90449 g(F)=  0.791E-03 g(S)=  0.000E+00 ort =-0.868E-04 (trialstep = 0.346E+00)
 search vector abs. value=  0.436E-02
 bond charge predicted
       N       E                     dE             d eps       ncg     rms          rms(c)
DAV:   1    -0.651737336949E+03   -0.38608E-04   -0.34647E-02   600   0.225E-01    0.765E-02
DAV:   2    -0.651737816780E+03   -0.47983E-03   -0.22763E-03   912   0.756E-02    0.213E-01
DAV:   3    -0.651737414293E+03    0.40249E-03   -0.22619E-03   804   0.801E-02    0.729E-02
DAV:   4    -0.651737376607E+03    0.37686E-04   -0.23399E-04   516   0.262E-02
 486 F= -.66717885E+03 E0= -.66716147E+03  d E =-.174962E-03
 trial-energy change:   -0.000175  1 .order   -0.000203   -0.000246   -0.000160
 step:   0.9865(harm=  0.9865)  dis= 0.00445  next Energy=  -667.179025 (dE=-0.352E-03)
 bond charge predicted
       N       E                     dE             d eps       ncg     rms          rms(c)
DAV:   1    -0.651736985110E+03    0.42918E-03   -0.11765E-01   600   0.412E-01    0.110E-01
DAV:   2    -0.651737175616E+03   -0.19051E-03   -0.26395E-03   936   0.833E-02    0.728E-02
DAV:   3    -0.651737228307E+03   -0.52691E-04   -0.45035E-04   624   0.401E-02
 487 F= -.66717892E+03 E0= -.66716011E+03  d E =-.243303E-03
 curvature:  -3.02 expect dE=-0.536E-02 dE for cont linesearch -0.384E-04
 ZBRENT: interpolating
 opt :   0.7705  next Energy=  -667.178942 (dE=-0.269E-03)
 bond charge predicted
       N       E                     dE             d eps       ncg     rms          rms(c)
DAV:   1    -0.651737240175E+03   -0.64559E-04   -0.14157E-02   660   0.148E-01    0.617E-02
DAV:   2    -0.651737797298E+03   -0.55712E-03   -0.21788E-03   852   0.804E-02    0.248E-01
DAV:   3    -0.651737296191E+03    0.50111E-03   -0.22230E-03   756   0.767E-02    0.454E-02
DAV:   4    -0.651737274828E+03    0.21362E-04   -0.19326E-04   504   0.233E-02
 488 F= -.66717889E+03 E0= -.66716166E+03  d E =-.216856E-03
 curvature:  -2.00 expect dE=-0.199E-02 dE for cont linesearch -0.125E-04
 ZBRENT: bisectioning
 opt :   0.5581  next Energy=  -667.178918 (dE=-0.245E-03)
 bond charge predicted
       N       E                     dE             d eps       ncg     rms          rms(c)
DAV:   1    -0.651737327550E+03   -0.31359E-04   -0.13026E-02   600   0.138E-01    0.351E-02
DAV:   2    -0.651737352205E+03   -0.24655E-04   -0.31358E-04   600   0.318E-02
 489 F= -.66717890E+03 E0= -.66716136E+03  d E =-.222429E-03
 curvature:  -4.43 expect dE=-0.271E-02 dE for cont linesearch -0.266E-04
 ZBRENT: interpolating
 opt :   0.6632  next Energy=  -667.178904 (dE=-0.231E-03)
 bond charge predicted
       N       E                     dE             d eps       ncg     rms          rms(c)
DAV:   1    -0.651737317077E+03    0.10472E-04   -0.32191E-03   600   0.704E-02    0.325E-02
DAV:   2    -0.651737564166E+03   -0.24709E-03   -0.10825E-03   756   0.534E-02    0.169E-01
DAV:   3    -0.651737321949E+03    0.24222E-03   -0.91214E-04   648   0.498E-02    0.171E-02
DAV:   4    -0.651737316997E+03    0.49522E-05   -0.38025E-05   372   0.975E-03
 490 F= -.66717890E+03 E0= -.66716162E+03  d E =-.222775E-03
 curvature:  -1.42 expect dE=-0.103E-02 dE for cont linesearch -0.562E-06
 trial: gam= 0.81988 g(F)=  0.726E-03 g(S)=  0.000E+00 ort =-0.416E-04 (trialstep = 0.409E+00)
 search vector abs. value=  0.359E-02
 bond charge predicted
       N       E                     dE             d eps       ncg     rms          rms(c)
DAV:   1    -0.651737273049E+03    0.48900E-04   -0.39813E-02   600   0.237E-01    0.577E-02
DAV:   2    -0.651737440150E+03   -0.16710E-03   -0.14073E-03   912   0.690E-02    0.111E-01
DAV:   3    -0.651737397150E+03    0.43000E-04   -0.98704E-04   744   0.507E-02
 491 F= -.66717910E+03 E0= -.66716076E+03  d E =-.203949E-03
 trial-energy change:   -0.000204  1 .order   -0.000170   -0.000283   -0.000057
 step:   0.5117(harm=  0.5117)  dis= 0.00208  next Energy=  -667.179073 (dE=-0.177E-03)
 bond charge predicted
       N       E                     dE             d eps       ncg     rms          rms(c)
DAV:   1    -0.651737306284E+03    0.13387E-03   -0.26246E-03   696   0.661E-02    0.329E-02
DAV:   2    -0.651737336947E+03   -0.30663E-04   -0.18438E-04   492   0.236E-02
 492 F= -.66717907E+03 E0= -.66716084E+03  d E =-.174786E-03
 curvature:  -1.33 expect dE=-0.957E-03 dE for cont linesearch -0.599E-05
 trial: gam= 1.09752 g(F)=  0.722E-03 g(S)=  0.000E+00 ort =-0.127E-03 (trialstep = 0.324E+00)
 search vector abs. value=  0.476E-02
 bond charge predicted
       N       E                     dE             d eps       ncg     rms          rms(c)
DAV:   1    -0.651737155953E+03    0.15033E-03   -0.30727E-02   600   0.212E-01    0.580E-02
DAV:   2    -0.651737247039E+03   -0.91086E-04   -0.11001E-03   876   0.558E-02    0.755E-02
DAV:   3    -0.651737264585E+03   -0.17546E-04   -0.52317E-04   636   0.365E-02
 493 F= -.66717918E+03 E0= -.66716079E+03  d E =-.113124E-03
 trial-energy change:   -0.000113  1 .order   -0.000144   -0.000188   -0.000100
 step:   0.6882(harm=  0.6882)  dis= 0.00308  next Energy=  -667.179271 (dE=-0.200E-03)
 bond charge predicted
       N       E                     dE             d eps       ncg     rms          rms(c)
DAV:   1    -0.651736900175E+03    0.34686E-03   -0.38497E-02   600   0.237E-01    0.681E-02
DAV:   2    -0.651737002255E+03   -0.10208E-03   -0.13264E-03   900   0.623E-02    0.868E-02
DAV:   3    -0.651737007168E+03   -0.49131E-05   -0.49527E-04   636   0.349E-02
 494 F= -.66717914E+03 E0= -.66716077E+03  d E =-.650042E-04
 curvature:  -2.81 expect dE=-0.365E-02 dE for cont linesearch -0.880E-05
 trial: gam= 1.51549 g(F)=  0.130E-02 g(S)=  0.000E+00 ort =-0.122E-03 (trialstep = 0.159E+00)
 search vector abs. value=  0.119E-01
 bond charge predicted
       N       E                     dE             d eps       ncg     rms          rms(c)
DAV:   1    -0.651736954660E+03    0.47595E-04   -0.18735E-02   636   0.170E-01    0.693E-02
DAV:   2    -0.651737419150E+03   -0.46449E-03   -0.20785E-03   876   0.741E-02    0.227E-01
DAV:   3    -0.651737006334E+03    0.41282E-03   -0.22079E-03   768   0.755E-02    0.787E-02
DAV:   4    -0.651736975051E+03    0.31283E-04   -0.11536E-04   468   0.176E-02
 495 F= -.66717922E+03 E0= -.66716217E+03  d E =-.828475E-04
 trial-energy change:   -0.000083  1 .order   -0.000139   -0.000177   -0.000100
 step:   0.3673(harm=  0.3673)  dis= 0.00241  next Energy=  -667.179340 (dE=-0.204E-03)
 bond charge predicted
       N       E                     dE             d eps       ncg     rms          rms(c)
DAV:   1    -0.651736837236E+03    0.16910E-03   -0.31483E-02   600   0.215E-01    0.552E-02
DAV:   2    -0.651736939991E+03   -0.10275E-03   -0.91846E-04   876   0.555E-02    0.826E-02
DAV:   3    -0.651736940475E+03   -0.48432E-06   -0.63273E-04   684   0.423E-02
 496 F= -.66717933E+03 E0= -.66716074E+03  d E =-.198899E-03
 curvature:  -1.96 expect dE=-0.178E-02 dE for cont linesearch -0.947E-05
 ZBRENT: increasing intervall
 opt :   0.7838  next Energy=  -667.179272 (dE=-0.136E-03)
 bond charge predicted
       N       E                     dE             d eps       ncg     rms          rms(c)
DAV:   1    -0.651736169819E+03    0.77017E-03   -0.12779E-01   600   0.432E-01    0.117E-01
DAV:   2    -0.651736804692E+03   -0.63487E-03   -0.56523E-03   948   0.141E-01    0.235E-01
DAV:   3    -0.651736600163E+03    0.20453E-03   -0.39341E-03   840   0.101E-01    0.155E-01
DAV:   4    -0.651736432968E+03    0.16720E-03   -0.10063E-03   732   0.527E-02    0.845E-02
DAV:   5    -0.651736422767E+03    0.10201E-04   -0.16728E-04   480   0.249E-02
 497 F= -.66717912E+03 E0= -.66716113E+03  d E =0.168707E-04
 curvature:  13.05 expect dE= 0.372E-01 dE for cont linesearch  0.526E-03
 ZBRENT: bracketing found
 ZBRENT: interpolating
 opt :   0.4745  next Energy=  -667.179348 (dE=-0.212E-03)
 bond charge predicted
       N       E                     dE             d eps       ncg     rms          rms(c)
DAV:   1    -0.651736665965E+03   -0.23300E-03   -0.72456E-02   600   0.323E-01    0.871E-02
DAV:   2    -0.651737314576E+03   -0.64861E-03   -0.43030E-03   948   0.118E-01    0.255E-01
DAV:   3    -0.651736888257E+03    0.42632E-03   -0.32095E-03   816   0.897E-02    0.926E-02
DAV:   4    -0.651736803295E+03    0.84961E-04   -0.34423E-04   516   0.320E-02
 498 F= -.66717928E+03 E0= -.66716141E+03  d E =-.139313E-03
 curvature:  -0.32 expect dE=-0.460E-03 dE for cont linesearch -0.475E-05
 ZBRENT: interpolating
 opt :   0.4062  next Energy=  -667.179339 (dE=-0.204E-03)
 bond charge predicted
       N       E                     dE             d eps       ncg     rms          rms(c)
DAV:   1    -0.651736861273E+03    0.26983E-04   -0.32694E-03   600   0.707E-02    0.381E-02
DAV:   2    -0.651736897532E+03   -0.36258E-04   -0.40583E-04   660   0.359E-02
 499 F= -.66717932E+03 E0= -.66716234E+03  d E =-.184091E-03
 curvature:  -0.31 expect dE=-0.454E-03 dE for cont linesearch -0.220E-06
 trial: gam= 0.62654 g(F)=  0.146E-02 g(S)=  0.000E+00 ort =-0.916E-04 (trialstep = 0.209E+00)
 search vector abs. value=  0.600E-02
 bond charge predicted
       N       E                     dE             d eps       ncg     rms          rms(c)
DAV:   1    -0.651736977563E+03   -0.11629E-03   -0.17821E-02   624   0.164E-01    0.443E-02
DAV:   2    -0.651737218873E+03   -0.24131E-03   -0.12532E-03   864   0.563E-02    0.144E-01
DAV:   3    -0.651737041470E+03    0.17740E-03   -0.10933E-03   756   0.557E-02    0.546E-02
DAV:   4    -0.651737021413E+03    0.20058E-04   -0.94841E-05   468   0.168E-02
 500 F= -.66717947E+03 E0= -.66716188E+03  d E =-.146561E-03
 trial-energy change:   -0.000147  1 .order   -0.000203   -0.000292   -0.000113
 step:   0.3406(harm=  0.3406)  dis= 0.00147  next Energy=  -667.179558 (dE=-0.238E-03)
 bond charge predicted
       N       E                     dE             d eps       ncg     rms          rms(c)
DAV:   1    -0.651737028044E+03    0.13427E-04   -0.69761E-03   600   0.100E-01    0.291E-02
DAV:   2    -0.651737043709E+03   -0.15665E-04   -0.17902E-04   468   0.263E-02
 501 F= -.66717950E+03 E0= -.66716162E+03  d E =-.183289E-03
 curvature:  -0.73 expect dE=-0.396E-03 dE for cont linesearch -0.193E-05
 ZBRENT: interpolating
 opt :   0.3158  next Energy=  -667.179505 (dE=-0.185E-03)
 bond charge predicted
       N       E                     dE             d eps       ncg     rms          rms(c)
DAV:   1    -0.651737044392E+03   -0.16348E-04   -0.35715E-04   540   0.306E-02    0.346E-02
DAV:   2    -0.651737370957E+03   -0.32657E-03   -0.16054E-03   756   0.656E-02    0.202E-01
DAV:   3    -0.651737040157E+03    0.33080E-03   -0.11232E-03   732   0.542E-02    0.110E-02
DAV:   4    -0.651737037935E+03    0.22227E-05   -0.37150E-05   348   0.770E-03
 502 F= -.66717949E+03 E0= -.66716180E+03  d E =-.174795E-03
 curvature:  -0.59 expect dE=-0.292E-03 dE for cont linesearch -0.642E-06
 trial: gam= 0.24523 g(F)=  0.493E-03 g(S)=  0.000E+00 ort = 0.806E-04 (trialstep = 0.230E+00)
 search vector abs. value=  0.893E-03
 bond charge predicted
       N       E                     dE             d eps       ncg     rms          rms(c)
DAV:   1    -0.651737091204E+03   -0.51046E-04   -0.38213E-03   600   0.779E-02    0.223E-02
DAV:   2    -0.651737107799E+03   -0.16595E-04   -0.15918E-04   480   0.221E-02
 503 F= -.66717959E+03 E0= -.66716178E+03  d E =-.967813E-04
 trial-energy change:   -0.000097  1 .order   -0.000087   -0.000118   -0.000057
 step:   0.4442(harm=  0.4442)  dis= 0.00078  next Energy=  -667.179609 (dE=-0.114E-03)
 bond charge predicted
       N       E                     dE             d eps       ncg     rms          rms(c)
DAV:   1    -0.651737116331E+03   -0.25127E-04   -0.35083E-03   648   0.765E-02    0.389E-02
DAV:   2    -0.651737374801E+03   -0.25847E-03   -0.11049E-03   756   0.571E-02    0.177E-01
DAV:   3    -0.651737115241E+03    0.25956E-03   -0.95025E-04   708   0.516E-02    0.199E-02
DAV:   4    -0.651737109311E+03    0.59298E-05   -0.34725E-05   372   0.876E-03
 504 F= -.66717962E+03 E0= -.66716216E+03  d E =-.123442E-03
 curvature:  -0.39 expect dE=-0.982E-04 dE for cont linesearch -0.270E-05
 ZBRENT: extrapolating
 opt :   0.5448  next Energy=  -667.179622 (dE=-0.127E-03)
 bond charge predicted
       N       E                     dE             d eps       ncg     rms          rms(c)
DAV:   1    -0.651737097742E+03    0.17499E-04   -0.71114E-04   564   0.344E-02    0.119E-02
DAV:   2    -0.651737099189E+03   -0.14478E-05   -0.22617E-05   300   0.928E-03
 505 F= -.66717962E+03 E0= -.66716215E+03  d E =-.125156E-03
 curvature:  -0.57 expect dE=-0.237E-03 dE for cont linesearch -0.269E-05
 trial: gam= 1.03421 g(F)=  0.417E-03 g(S)=  0.000E+00 ort =-0.650E-04 (trialstep = 0.211E+00)
 search vector abs. value=  0.124E-02
 bond charge predicted
       N       E                     dE             d eps       ncg     rms          rms(c)
DAV:   1    -0.651737148542E+03   -0.50800E-04   -0.42089E-03   600   0.831E-02    0.262E-02
DAV:   2    -0.651737230047E+03   -0.81505E-04   -0.43830E-04   600   0.385E-02
 506 F= -.66717976E+03 E0= -.66716104E+03  d E =-.140130E-03
 trial-energy change:   -0.000140  1 .order   -0.000051   -0.000074   -0.000028
 step:   0.3411(harm=  0.3411)  dis= 0.00090  next Energy=  -667.179680 (dE=-0.597E-04)
 bond charge predicted
       N       E                     dE             d eps       ncg     rms          rms(c)
DAV:   1    -0.651737172436E+03   -0.23894E-04   -0.19594E-03   744   0.623E-02    0.268E-02
DAV:   2    -0.651737247395E+03   -0.74959E-04   -0.32337E-04   540   0.312E-02
 507 F= -.66717978E+03 E0= -.66716098E+03  d E =-.163200E-03
 curvature:  -0.60 expect dE=-0.191E-03 dE for cont linesearch -0.134E-05
 trial: gam= 0.33545 g(F)=  0.316E-03 g(S)=  0.000E+00 ort = 0.523E-04 (trialstep = 0.237E+00)
 search vector abs. value=  0.491E-03
 bond charge predicted
       N       E                     dE             d eps       ncg     rms          rms(c)
DAV:   1    -0.651737229436E+03   -0.57000E-04   -0.25847E-03   744   0.658E-02    0.267E-02
DAV:   2    -0.651737312450E+03   -0.83014E-04   -0.48037E-04   636   0.350E-02
 508 F= -.66717983E+03 E0= -.66716361E+03  d E =-.461228E-04
 trial-energy change:   -0.000046  1 .order   -0.000041   -0.000079   -0.000003
 step:   0.2457(harm=  0.2457)  dis= 0.00033  next Energy=  -667.179824 (dE=-0.410E-04)
 bond charge predicted
       N       E                     dE             d eps       ncg     rms          rms(c)
DAV:   1    -0.651737235265E+03   -0.58291E-05   -0.37109E-04   564   0.349E-02    0.197E-02
DAV:   2    -0.651737279861E+03   -0.44596E-04   -0.20674E-04   456   0.268E-02
 509 F= -.66717980E+03 E0= -.66716331E+03  d E =-.128664E-04
 curvature:  -0.18 expect dE=-0.526E-04 dE for cont linesearch -0.229E-06
 trial: gam= 1.00815 g(F)=  0.291E-03 g(S)=  0.000E+00 ort = 0.250E-04 (trialstep = 0.140E+00)
 search vector abs. value=  0.840E-03
 bond charge predicted
       N       E                     dE             d eps       ncg     rms          rms(c)
DAV:   1    -0.651737280396E+03   -0.45130E-04   -0.15769E-03   708   0.535E-02    0.179E-02
DAV:   2    -0.651737292770E+03   -0.12375E-04   -0.90755E-05   372   0.157E-02
 510 F= -.66717979E+03 E0= -.66716280E+03  d E =0.107598E-04
 trial-energy change:    0.000011  1 .order   -0.000030   -0.000044   -0.000017
 step:   0.2232(harm=  0.2232)  dis= 0.00048  next Energy=  -667.179831 (dE=-0.353E-04)
 bond charge predicted
       N       E                     dE             d eps       ncg     rms          rms(c)
DAV:   1    -0.651737305005E+03   -0.24610E-04   -0.59408E-04   624   0.343E-02    0.254E-02
DAV:   2    -0.651737412576E+03   -0.10757E-03   -0.56102E-04   612   0.384E-02    0.112E-01
DAV:   3    -0.651737303460E+03    0.10912E-03   -0.47521E-04   576   0.383E-02    0.177E-02
DAV:   4    -0.651737303034E+03    0.42537E-06   -0.22822E-05   312   0.661E-03
 511 F= -.66717978E+03 E0= -.66716236E+03  d E =0.146666E-04
 curvature:  -0.30 expect dE=-0.450E-04 dE for cont linesearch -0.229E-06
 trial: gam= 0.31003 g(F)=  0.152E-03 g(S)=  0.000E+00 ort = 0.255E-04 (trialstep = 0.156E+00)
 search vector abs. value=  0.248E-03
 bond charge predicted
       N       E                     dE             d eps       ncg     rms          rms(c)
DAV:   1    -0.651737325409E+03   -0.21949E-04   -0.49853E-04   552   0.282E-02    0.718E-03
DAV:   2    -0.651737326299E+03   -0.89032E-06   -0.14249E-05   300   0.745E-03
 512 F= -.66717980E+03 E0= -.66716242E+03  d E =-.202881E-04
 trial-energy change:   -0.000020  1 .order   -0.000021   -0.000025   -0.000017
 step:   0.4845(harm=  0.4845)  dis= 0.00048  next Energy=  -667.179820 (dE=-0.387E-04)
 reached required accuracy - stopping structural energy minimisation
