  93  93   0   0
  0.3967126E+02  0.9570947E-09  0.1276126E-08  0.3488026E-08  0.5000000E-15
  1.000000000000000E-004
  CAR 
 basalPlane                              
      2.61130863    -20.64230452  301      0.29824082      1.00000000
    -20.642  0.0000E+00  0.0000E+00
    -20.565  0.0000E+00  0.0000E+00
    -20.487  0.0000E+00  0.0000E+00
    -20.410  0.0000E+00  0.0000E+00
    -20.332  0.0000E+00  0.0000E+00
    -20.255  0.0000E+00  0.0000E+00
    -20.177  0.1432E-18  0.1110E-19
    -20.100  0.4479E-15  0.3473E-16
    -20.022  0.8344E-12  0.6471E-13
    -19.945  0.4802E-09  0.3729E-10
    -19.867  0.8616E-07  0.6716E-08
    -19.790  0.4884E-05  0.3853E-06
    -19.712  0.8902E-04  0.7285E-05
    -19.635  0.5323E-03  0.4854E-04
    -19.557  0.1064E-02  0.1310E-03
    -19.480  0.7163E-03  0.1865E-03
    -19.402  0.1639E-03  0.1992E-03
    -19.325  0.6163E-04  0.2040E-03
    -19.247  0.3855E-03  0.2339E-03
    -19.170  0.9962E-03  0.3111E-03
    -19.092  0.8677E-03  0.3783E-03
    -19.015  0.2541E-03  0.3980E-03
    -18.937  0.2465E-04  0.3999E-03
    -18.860  0.7770E-06  0.4000E-03
    -18.782  0.7803E-08  0.4000E-03
    -18.705  0.2458E-10  0.4000E-03
    -18.627  0.2402E-13  0.4000E-03
    -18.549  0.7162E-17  0.4000E-03
    -18.472  0.0000E+00  0.4000E-03
    -18.394  0.0000E+00  0.4000E-03
    -18.317  0.0000E+00  0.4000E-03
    -18.239  0.0000E+00  0.4000E-03
    -18.162  0.0000E+00  0.4000E-03
    -18.084  0.0000E+00  0.4000E-03
    -18.007  0.0000E+00  0.4000E-03
    -17.929  0.0000E+00  0.4000E-03
    -17.852  0.0000E+00  0.4000E-03
    -17.774  0.0000E+00  0.4000E-03
    -17.697  0.0000E+00  0.4000E-03
    -17.619  0.0000E+00  0.4000E-03
    -17.542  0.0000E+00  0.4000E-03
    -17.464  0.0000E+00  0.4000E-03
    -17.387  0.0000E+00  0.4000E-03
    -17.309  0.0000E+00  0.4000E-03
    -17.232  0.0000E+00  0.4000E-03
    -17.154  0.0000E+00  0.4000E-03
    -17.077  0.0000E+00  0.4000E-03
    -16.999  0.0000E+00  0.4000E-03
    -16.922  0.0000E+00  0.4000E-03
    -16.844  0.0000E+00  0.4000E-03
    -16.767  0.0000E+00  0.4000E-03
    -16.689  0.0000E+00  0.4000E-03
    -16.612  0.0000E+00  0.4000E-03
    -16.534  0.0000E+00  0.4000E-03
    -16.457  0.0000E+00  0.4000E-03
    -16.379  0.0000E+00  0.4000E-03
    -16.302  0.0000E+00  0.4000E-03
    -16.224  0.0000E+00  0.4000E-03
    -16.147  0.2865E-18  0.4000E-03
    -16.069  0.1629E-14  0.4000E-03
    -15.992  0.2658E-11  0.4000E-03
    -15.914  0.1357E-08  0.4000E-03
    -15.837  0.2190E-06  0.4000E-03
    -15.759  0.1135E-04  0.4009E-03
    -15.682  0.1927E-03  0.4158E-03
    -15.604  0.1094E-02  0.5006E-03
    -15.527  0.2115E-02  0.6646E-03
    -15.449  0.1404E-02  0.7734E-03
    -15.371  0.3183E-03  0.7981E-03
    -15.294  0.2425E-04  0.8000E-03
    -15.216  0.6205E-06  0.8000E-03
    -15.139  0.1471E-05  0.8001E-03
    -15.061  0.5465E-04  0.8044E-03
    -14.984  0.6908E-03  0.8579E-03
    -14.906  0.3169E-02  0.1104E-02
    -14.829  0.6166E-02  0.1582E-02
    -14.751  0.6322E-02  0.2072E-02
    -14.674  0.3449E-02  0.2339E-02
    -14.596  0.1383E-02  0.2446E-02
    -14.519  0.2848E-02  0.2667E-02
    -14.441  0.4776E-02  0.3037E-02
    -14.364  0.5376E-02  0.3454E-02
    -14.286  0.6695E-02  0.3973E-02
    -14.209  0.4389E-02  0.4313E-02
    -14.131  0.1104E-02  0.4398E-02
    -14.054  0.8440E-03  0.4464E-02
    -13.976  0.3281E-02  0.4718E-02
    -13.899  0.6653E-02  0.5234E-02
    -13.821  0.1129E-01  0.6109E-02
    -13.744  0.1429E-01  0.7217E-02
    -13.666  0.9820E-02  0.7978E-02
    -13.589  0.7323E-02  0.8546E-02
    -13.511  0.9239E-02  0.9262E-02
    -13.434  0.9410E-02  0.9991E-02
    -13.356  0.6784E-02  0.1052E-01
    -13.279  0.3017E-02  0.1075E-01
    -13.201  0.5911E-03  0.1080E-01
    -13.124  0.4162E-04  0.1080E-01
    -13.046  0.9764E-06  0.1080E-01
    -12.969  0.7392E-08  0.1080E-01
    -12.891  0.1773E-10  0.1080E-01
    -12.814  0.1331E-13  0.1080E-01
    -12.736  0.2865E-17  0.1080E-01
    -12.659  0.0000E+00  0.1080E-01
    -12.581  0.0000E+00  0.1080E-01
    -12.504  0.0000E+00  0.1080E-01
    -12.426  0.0000E+00  0.1080E-01
    -12.349  0.0000E+00  0.1080E-01
    -12.271  0.0000E+00  0.1080E-01
    -12.193  0.0000E+00  0.1080E-01
    -12.116  0.0000E+00  0.1080E-01
    -12.038  0.0000E+00  0.1080E-01
    -11.961  0.0000E+00  0.1080E-01
    -11.883  0.0000E+00  0.1080E-01
    -11.806  0.0000E+00  0.1080E-01
    -11.728  0.0000E+00  0.1080E-01
    -11.651  0.0000E+00  0.1080E-01
    -11.573  0.0000E+00  0.1080E-01
    -11.496  0.0000E+00  0.1080E-01
    -11.418  0.0000E+00  0.1080E-01
    -11.341  0.0000E+00  0.1080E-01
    -11.263  0.0000E+00  0.1080E-01
    -11.186  0.3310E-15  0.1080E-01
    -11.108  0.6948E-12  0.1080E-01
    -11.031  0.4532E-09  0.1080E-01
    -10.953  0.9275E-07  0.1080E-01
    -10.876  0.6032E-05  0.1080E-01
    -10.798  0.1268E-03  0.1081E-01
    -10.721  0.8800E-03  0.1088E-01
    -10.643  0.2070E-02  0.1104E-01
    -10.566  0.1929E-02  0.1119E-01
    -10.488  0.2054E-02  0.1135E-01
    -10.411  0.3107E-02  0.1159E-01
    -10.333  0.2133E-02  0.1175E-01
    -10.256  0.5710E-03  0.1180E-01
    -10.178  0.3226E-03  0.1182E-01
    -10.101  0.8928E-03  0.1189E-01
    -10.023  0.9791E-03  0.1197E-01
     -9.946  0.3622E-03  0.1200E-01
     -9.868  0.4457E-04  0.1200E-01
     -9.791  0.1790E-05  0.1200E-01
     -9.713  0.2298E-07  0.1200E-01
     -9.636  0.9283E-10  0.1200E-01
     -9.558  0.1166E-12  0.1200E-01
     -9.481  0.4526E-16  0.1200E-01
     -9.403  0.0000E+00  0.1200E-01
     -9.326  0.0000E+00  0.1200E-01
     -9.248  0.0000E+00  0.1200E-01
     -9.171  0.0000E+00  0.1200E-01
     -9.093  0.0000E+00  0.1200E-01
     -9.015  0.0000E+00  0.1200E-01
     -8.938  0.0000E+00  0.1200E-01
     -8.860  0.0000E+00  0.1200E-01
     -8.783  0.0000E+00  0.1200E-01
     -8.705  0.0000E+00  0.1200E-01
     -8.628  0.0000E+00  0.1200E-01
     -8.550  0.0000E+00  0.1200E-01
     -8.473  0.0000E+00  0.1200E-01
     -8.395  0.0000E+00  0.1200E-01
     -8.318  0.0000E+00  0.1200E-01
     -8.240  0.1303E-16  0.1200E-01
     -8.163  0.3999E-13  0.1200E-01
     -8.085  0.3777E-10  0.1200E-01
     -8.008  0.1108E-07  0.1200E-01
     -7.930  0.1020E-05  0.1200E-01
     -7.853  0.2995E-04  0.1200E-01
     -7.775  0.2861E-03  0.1202E-01
     -7.698  0.9067E-03  0.1209E-01
     -7.620  0.9666E-03  0.1217E-01
     -7.543  0.3469E-03  0.1220E-01
     -7.465  0.4447E-04  0.1220E-01
     -7.388  0.9667E-04  0.1221E-01
     -7.310  0.9757E-03  0.1228E-01
     -7.233  0.3421E-02  0.1255E-01
     -7.155  0.4504E-02  0.1290E-01
     -7.078  0.3386E-02  0.1316E-01
     -7.000  0.2722E-02  0.1337E-01
     -6.923  0.2724E-02  0.1358E-01
     -6.845  0.4069E-02  0.1390E-01
     -6.768  0.8291E-02  0.1454E-01
     -6.690  0.1197E-01  0.1547E-01
     -6.613  0.8508E-02  0.1613E-01
     -6.535  0.7796E-02  0.1673E-01
     -6.458  0.1482E-01  0.1788E-01
     -6.380  0.1684E-01  0.1919E-01
     -6.303  0.1201E-01  0.2012E-01
     -6.225  0.6348E-02  0.2061E-01
     -6.148  0.2108E-02  0.2077E-01
     -6.070  0.3382E-03  0.2080E-01
     -5.993  0.2144E-04  0.2080E-01
     -5.915  0.1016E-05  0.2080E-01
     -5.838  0.2668E-04  0.2080E-01
     -5.760  0.4369E-03  0.2084E-01
     -5.682  0.2476E-02  0.2103E-01
     -5.605  0.5269E-02  0.2144E-01
     -5.527  0.5112E-02  0.2183E-01
     -5.450  0.5480E-02  0.2226E-01
     -5.372  0.1430E-01  0.2337E-01
     -5.295  0.2351E-01  0.2519E-01
     -5.217  0.1613E-01  0.2644E-01
     -5.140  0.4660E-02  0.2680E-01
     -5.062  0.2634E-02  0.2700E-01
     -4.985  0.4253E-02  0.2733E-01
     -4.907  0.2803E-02  0.2755E-01
     -4.830  0.1183E-02  0.2764E-01
     -4.752  0.3935E-02  0.2795E-01
     -4.675  0.9725E-02  0.2870E-01
     -4.597  0.9790E-02  0.2946E-01
     -4.520  0.7242E-02  0.3002E-01
     -4.442  0.8200E-02  0.3066E-01
     -4.365  0.9284E-02  0.3138E-01
     -4.287  0.8349E-02  0.3202E-01
     -4.210  0.4711E-02  0.3239E-01
     -4.132  0.3850E-02  0.3269E-01
     -4.055  0.5901E-02  0.3314E-01
     -3.977  0.6504E-02  0.3365E-01
     -3.900  0.5868E-02  0.3410E-01
     -3.822  0.5249E-02  0.3451E-01
     -3.745  0.3357E-02  0.3477E-01
     -3.667  0.2149E-02  0.3494E-01
     -3.590  0.2308E-02  0.3512E-01
     -3.512  0.2372E-02  0.3530E-01
     -3.435  0.4363E-02  0.3564E-01
     -3.357  0.6971E-02  0.3618E-01
     -3.280  0.1135E-01  0.3706E-01
     -3.202  0.1513E-01  0.3823E-01
     -3.125  0.1285E-01  0.3923E-01
     -3.047  0.9401E-02  0.3996E-01
     -2.970  0.7438E-02  0.4053E-01
     -2.892  0.7341E-02  0.4110E-01
     -2.815  0.1025E-01  0.4190E-01
     -2.737  0.1074E-01  0.4273E-01
     -2.660  0.5829E-02  0.4318E-01
     -2.582  0.2606E-02  0.4338E-01
     -2.504  0.3899E-02  0.4368E-01
     -2.427  0.8106E-02  0.4431E-01
     -2.349  0.9817E-02  0.4507E-01
     -2.272  0.7096E-02  0.4562E-01
     -2.194  0.4822E-02  0.4600E-01
     -2.117  0.5920E-02  0.4646E-01
     -2.039  0.5940E-02  0.4692E-01
     -1.962  0.5338E-02  0.4733E-01
     -1.884  0.4279E-02  0.4766E-01
     -1.807  0.1746E-02  0.4780E-01
     -1.729  0.1615E-02  0.4792E-01
     -1.652  0.3884E-02  0.4822E-01
     -1.574  0.3827E-02  0.4852E-01
     -1.497  0.2331E-02  0.4870E-01
     -1.419  0.2251E-02  0.4888E-01
     -1.342  0.1313E-02  0.4898E-01
     -1.264  0.2744E-03  0.4900E-01
     -1.187  0.1927E-04  0.4900E-01
     -1.109  0.4443E-06  0.4900E-01
     -1.032  0.3297E-08  0.4900E-01
     -0.954  0.7751E-11  0.4900E-01
     -0.877  0.5704E-14  0.4900E-01
     -0.799  0.1146E-17  0.4900E-01
     -0.722  0.0000E+00  0.4900E-01
     -0.644  0.0000E+00  0.4900E-01
     -0.567  0.0000E+00  0.4900E-01
     -0.489  0.0000E+00  0.4900E-01
     -0.412  0.0000E+00  0.4900E-01
     -0.334  0.0000E+00  0.4900E-01
     -0.257  0.0000E+00  0.4900E-01
     -0.179  0.2306E-16  0.4900E-01
     -0.102  0.6997E-13  0.4900E-01
     -0.024  0.6664E-10  0.4900E-01
      0.053  0.2039E-07  0.4900E-01
      0.131  0.2060E-05  0.4900E-01
      0.208  0.7105E-04  0.4901E-01
      0.286  0.8664E-03  0.4907E-01
      0.363  0.3839E-02  0.4937E-01
      0.441  0.6373E-02  0.4986E-01
      0.518  0.5051E-02  0.5026E-01
      0.596  0.5702E-02  0.5070E-01
      0.674  0.1066E-01  0.5152E-01
      0.751  0.1628E-01  0.5279E-01
      0.829  0.1527E-01  0.5397E-01
      0.906  0.1347E-01  0.5501E-01
      0.984  0.1044E-01  0.5582E-01
      1.061  0.4187E-02  0.5615E-01
      1.139  0.1515E-02  0.5626E-01
      1.216  0.4360E-02  0.5660E-01
      1.294  0.9740E-02  0.5736E-01
      1.371  0.1176E-01  0.5827E-01
      1.449  0.1005E-01  0.5905E-01
      1.526  0.7264E-02  0.5961E-01
      1.604  0.3817E-02  0.5991E-01
      1.681  0.1068E-02  0.5999E-01
      1.759  0.1293E-03  0.6000E-01
      1.836  0.5966E-05  0.6000E-01
      1.914  0.9602E-07  0.6000E-01
      1.991  0.5096E-09  0.6000E-01
      2.069  0.8623E-12  0.6000E-01
      2.146  0.4563E-15  0.6000E-01
      2.224  0.0000E+00  0.6000E-01
      2.301  0.0000E+00  0.6000E-01
      2.379  0.0000E+00  0.6000E-01
      2.456  0.0000E+00  0.6000E-01
      2.534  0.0000E+00  0.6000E-01
      2.611  0.0000E+00  0.6000E-01
