       N       E                     dE             d eps       ncg     rms          rms(c)
DAV:   1     0.440387729404E+04    0.44039E+04   -0.18148E+05   600   0.112E+03
DAV:   2    -0.561781903087E+01   -0.44095E+04   -0.42481E+04   996   0.266E+02
DAV:   3    -0.676841109459E+03   -0.67122E+03   -0.66310E+03   720   0.114E+02
DAV:   4    -0.709686890795E+03   -0.32846E+02   -0.32670E+02   828   0.275E+01
DAV:   5    -0.710819794204E+03   -0.11329E+01   -0.11272E+01   876   0.527E+00    0.122E+02
DAV:   6    -0.690638736475E+03    0.20181E+02   -0.57142E+02   792   0.335E+01    0.766E+01
DAV:   7    -0.711253923222E+03   -0.20615E+02   -0.31147E+02   780   0.481E+01    0.636E+01
DAV:   8    -0.716843036189E+03   -0.55891E+01   -0.22557E+02   816   0.184E+01    0.603E+01
DAV:   9    -0.705037597436E+03    0.11805E+02   -0.31104E+02   756   0.125E+01    0.434E+01
DAV:  10    -0.687715804329E+03    0.17322E+02   -0.49722E+02   816   0.120E+01    0.321E+01
DAV:  11    -0.660254434679E+03    0.27461E+02   -0.71914E+01   792   0.151E+01    0.274E+01
DAV:  12    -0.660021791779E+03    0.23264E+00   -0.77035E+00   840   0.305E+00    0.247E+01
DAV:  13    -0.659768119388E+03    0.25367E+00   -0.56962E-01   888   0.994E-01    0.225E+01
DAV:  14    -0.659280663164E+03    0.48746E+00   -0.13708E-01   852   0.761E-01    0.192E+01
DAV:  15    -0.657131088237E+03    0.21496E+01   -0.30234E+00   840   0.377E+00    0.945E+00
DAV:  16    -0.657735307976E+03   -0.60422E+00   -0.80527E+00   876   0.255E+00    0.115E+01
DAV:  17    -0.657265935890E+03    0.46937E+00   -0.18045E+00   792   0.116E+00    0.107E+01
DAV:  18    -0.658029208928E+03   -0.76327E+00   -0.97563E+00   840   0.108E+00    0.269E+01
DAV:  19    -0.657233985828E+03    0.79522E+00   -0.12920E+01   780   0.125E+00    0.113E+01
DAV:  20    -0.656959750786E+03    0.27424E+00   -0.93397E-01   816   0.155E+00    0.525E+00
DAV:  21    -0.656887840595E+03    0.71910E-01   -0.18557E-01   768   0.653E-01    0.363E+00
DAV:  22    -0.656817387711E+03    0.70453E-01   -0.60377E-02   780   0.414E-01    0.386E+00
DAV:  23    -0.656783580769E+03    0.33807E-01   -0.18662E-02   816   0.142E-01    0.400E+00
DAV:  24    -0.656744857858E+03    0.38723E-01   -0.13064E-02   768   0.130E-01    0.380E+00
DAV:  25    -0.656614071405E+03    0.13079E+00   -0.50623E-02   792   0.302E-01    0.300E+00
DAV:  26    -0.656547238278E+03    0.66833E-01   -0.16774E-02   864   0.292E-01    0.270E+00
DAV:  27    -0.656504542282E+03    0.42696E-01   -0.89051E-03   828   0.150E-01    0.237E+00
DAV:  28    -0.656467151418E+03    0.37391E-01   -0.94370E-03   816   0.129E-01    0.911E-01
DAV:  29    -0.656464144780E+03    0.30066E-02   -0.55188E-02   768   0.841E-02    0.122E+00
DAV:  30    -0.656461023765E+03    0.31210E-02   -0.44861E-02   696   0.628E-02    0.643E-01
DAV:  31    -0.656490961426E+03   -0.29938E-01   -0.39644E-01   804   0.171E-01    0.319E+00
DAV:  32    -0.656445801204E+03    0.45160E-01   -0.13120E-01   720   0.143E-01    0.341E-01
DAV:  33    -0.656436637380E+03    0.91638E-02   -0.27134E-03   684   0.744E-02    0.622E-01
DAV:  34    -0.656428441870E+03    0.81955E-02   -0.15800E-03   600   0.334E-02    0.260E-01
DAV:  35    -0.656420795385E+03    0.76465E-02   -0.52952E-04   660   0.315E-02    0.345E-01
DAV:  36    -0.656415050019E+03    0.57454E-02   -0.20197E-04   564   0.221E-02    0.578E-01
DAV:  37    -0.656409274605E+03    0.57754E-02   -0.27310E-04   540   0.207E-02    0.706E-01
DAV:  38    -0.656401810702E+03    0.74639E-02   -0.29960E-04   600   0.247E-02    0.752E-01
DAV:  39    -0.656401711241E+03    0.99461E-04   -0.41662E-05   372   0.107E-02
   1 F= -.67133081E+03 E0= -.67127330E+03  d E =-.671331E+03
       N       E                     dE             d eps       ncg     rms          rms(c)
DAV:   1    -0.656415468465E+03   -0.13658E-01   -0.11800E+01   624   0.518E+00    0.253E+00
DAV:   2    -0.656499415827E+03   -0.83947E-01   -0.90509E-01   780   0.126E+00    0.298E+00
DAV:   3    -0.656730696797E+03   -0.23128E+00   -0.37379E+00   804   0.118E+00    0.563E+00
DAV:   4    -0.656466474514E+03    0.26422E+00   -0.98205E-01   756   0.877E-01    0.115E+00
DAV:   5    -0.656466472275E+03    0.22385E-05   -0.37416E-01   756   0.414E-01    0.139E+00
DAV:   6    -0.656457812980E+03    0.86593E-02   -0.40120E-01   768   0.305E-01    0.693E-01
DAV:   7    -0.656459215613E+03   -0.14026E-02   -0.16631E-02   828   0.237E-01    0.163E+00
DAV:   8    -0.656455170461E+03    0.40452E-02   -0.19502E-03   768   0.721E-02    0.502E-01
DAV:   9    -0.656453538499E+03    0.16320E-02   -0.62028E-04   696   0.477E-02    0.804E-01
DAV:  10    -0.656451377632E+03    0.21609E-02   -0.30457E-04   576   0.257E-02    0.209E-01
DAV:  11    -0.656450657969E+03    0.71966E-03   -0.52223E-04   684   0.337E-02    0.479E-01
DAV:  12    -0.656450188505E+03    0.46946E-03   -0.17804E-04   492   0.264E-02    0.895E-02
DAV:  13    -0.656450229597E+03   -0.41091E-04   -0.53144E-05   420   0.147E-02
   2 F= -.67140087E+03 E0= -.67133888E+03  d E =-.700611E-01
       N       E                     dE             d eps       ncg     rms          rms(c)
DAV:   1    -0.656452632662E+03   -0.24442E-02   -0.84662E-02   636   0.441E-01    0.332E-01
DAV:   2    -0.656494426964E+03   -0.41794E-01   -0.39433E-01   780   0.285E-01    0.365E+00
DAV:   3    -0.656456326557E+03    0.38100E-01   -0.36091E-01   756   0.301E-01    0.831E-01
DAV:   4    -0.656453742279E+03    0.25843E-02   -0.17698E-03   624   0.826E-02    0.526E-01
DAV:   5    -0.656452804644E+03    0.93763E-03   -0.49399E-04   552   0.351E-02    0.115E-01
DAV:   6    -0.656453037624E+03   -0.23298E-03   -0.32892E-04   540   0.314E-02    0.249E-01
DAV:   7    -0.656453011983E+03    0.25641E-04   -0.15294E-04   444   0.238E-02
   3 F= -.67140178E+03 E0= -.67134084E+03  d E =-.709649E-01
       N       E                     dE             d eps       ncg     rms          rms(c)
DAV:   1    -0.656425349248E+03    0.27688E-01   -0.31437E+00   624   0.227E+00    0.102E+00
DAV:   2    -0.656524409475E+03   -0.99060E-01   -0.19051E-01   816   0.746E-01    0.339E+00
DAV:   3    -0.656444519004E+03    0.79890E-01   -0.20310E-01   780   0.734E-01    0.212E+00
DAV:   4    -0.656444701746E+03   -0.18274E-03   -0.10689E-01   780   0.213E-01    0.185E+00
DAV:   5    -0.656433490119E+03    0.11212E-01   -0.64301E-03   864   0.127E-01    0.517E-01
DAV:   6    -0.656441816864E+03   -0.83267E-02   -0.55717E-02   804   0.131E-01    0.204E+00
DAV:   7    -0.656442103286E+03   -0.28642E-03   -0.45118E-02   768   0.968E-02    0.198E+00
DAV:   8    -0.656438146186E+03    0.39571E-02   -0.72203E-04   672   0.484E-02    0.172E+00
DAV:   9    -0.656431993051E+03    0.61531E-02   -0.23401E-02   684   0.545E-02    0.367E-01
DAV:  10    -0.656432093129E+03   -0.10008E-03   -0.39694E-04   552   0.313E-02    0.423E-01
DAV:  11    -0.656431753250E+03    0.33988E-03   -0.14642E-04   432   0.194E-02    0.389E-02
DAV:  12    -0.656431828144E+03   -0.74894E-04   -0.53425E-05   408   0.142E-02
   4 F= -.67139068E+03 E0= -.67132837E+03  d E =0.110994E-01
       N       E                     dE             d eps       ncg     rms          rms(c)
DAV:   1    -0.656452550153E+03   -0.20797E-01   -0.12697E+00   612   0.143E+00    0.730E-01
DAV:   2    -0.656567681970E+03   -0.11513E+00   -0.10677E+00   816   0.593E-01    0.443E+00
DAV:   3    -0.656462680756E+03    0.10500E+00   -0.41661E-01   756   0.495E-01    0.140E+00
DAV:   4    -0.656458217903E+03    0.44629E-02   -0.63786E-03   696   0.139E-01    0.103E+00
DAV:   5    -0.656455926597E+03    0.22913E-02   -0.19939E-02   732   0.912E-02    0.268E-01
DAV:   6    -0.656457111440E+03   -0.11848E-02   -0.34242E-02   696   0.983E-02    0.372E-01
DAV:   7    -0.656457008804E+03    0.10264E-03   -0.24318E-03   756   0.966E-02    0.100E+00
DAV:   8    -0.656456624473E+03    0.38433E-03   -0.43537E-04   624   0.346E-02    0.913E-01
DAV:   9    -0.656455382016E+03    0.12425E-02   -0.94643E-05   432   0.162E-02    0.605E-01
DAV:  10    -0.656454863814E+03    0.51820E-03   -0.93068E-05   432   0.151E-02    0.336E-01
DAV:  11    -0.656454639239E+03    0.22457E-03   -0.95844E-05   408   0.144E-02    0.796E-02
DAV:  12    -0.656454602971E+03    0.36267E-04   -0.31082E-05   372   0.927E-03
   5 F= -.67140701E+03 E0= -.67134533E+03  d E =-.523511E-02
       N       E                     dE             d eps       ncg     rms          rms(c)
DAV:   1    -0.656448859212E+03    0.57800E-02   -0.17191E+00   624   0.189E+00    0.801E-01
DAV:   2    -0.656524104501E+03   -0.75245E-01   -0.11296E-01   804   0.556E-01    0.333E+00
DAV:   3    -0.656459620248E+03    0.64484E-01   -0.12783E-01   792   0.558E-01    0.151E+00
DAV:   4    -0.656464489684E+03   -0.48694E-02   -0.82187E-02   768   0.192E-01    0.194E+00
DAV:   5    -0.656454084761E+03    0.10405E-01   -0.42350E-03   720   0.991E-02    0.711E-01
DAV:   6    -0.656454844567E+03   -0.75981E-03   -0.51343E-03   720   0.104E-01    0.663E-01
DAV:   7    -0.656456271135E+03   -0.14266E-02   -0.17434E-02   720   0.918E-02    0.127E+00
DAV:   8    -0.656454742070E+03    0.15291E-02   -0.43638E-03   600   0.382E-02    0.998E-01
DAV:   9    -0.656453474790E+03    0.12673E-02   -0.19099E-04   456   0.171E-02    0.683E-01
DAV:  10    -0.656452642134E+03    0.83266E-03   -0.13922E-04   444   0.186E-02    0.364E-01
DAV:  11    -0.656452258162E+03    0.38397E-03   -0.14701E-04   468   0.171E-02    0.540E-02
DAV:  12    -0.656452353779E+03   -0.95617E-04   -0.40807E-05   396   0.125E-02
   6 F= -.67141203E+03 E0= -.67134949E+03  d E =-.501866E-02
       N       E                     dE             d eps       ncg     rms          rms(c)
DAV:   1    -0.656454067448E+03   -0.18093E-02   -0.72187E-02   624   0.387E-01    0.142E-01
DAV:   2    -0.656455512804E+03   -0.14454E-02   -0.28468E-03   756   0.891E-02    0.764E-01
DAV:   3    -0.656454857365E+03    0.65544E-03   -0.17125E-03   564   0.699E-02    0.488E-01
DAV:   4    -0.656454642519E+03    0.21485E-03   -0.59867E-04   612   0.503E-02    0.265E-01
DAV:   5    -0.656454269251E+03    0.37327E-03   -0.22749E-04   516   0.314E-02    0.109E-01
DAV:   6    -0.656454211202E+03    0.58049E-04   -0.75545E-05   384   0.161E-02
   7 F= -.67141239E+03 E0= -.67135014E+03  d E =-.537458E-02
       N       E                     dE             d eps       ncg     rms          rms(c)
DAV:   1    -0.656454951183E+03   -0.68193E-03   -0.37667E-01   624   0.581E-01    0.303E-01
DAV:   2    -0.656470457525E+03   -0.15506E-01   -0.17075E-02   780   0.155E-01    0.226E+00
DAV:   3    -0.656457624557E+03    0.12833E-01   -0.15509E-02   780   0.198E-01    0.845E-01
DAV:   4    -0.656457574372E+03    0.50185E-04   -0.25017E-03   600   0.885E-02    0.993E-01
DAV:   5    -0.656456372660E+03    0.12017E-02   -0.43369E-04   540   0.369E-02    0.690E-01
DAV:   6    -0.656456058344E+03    0.31432E-03   -0.23909E-04   468   0.239E-02    0.627E-01
DAV:   7    -0.656455812178E+03    0.24617E-03   -0.14199E-04   432   0.176E-02    0.518E-01
DAV:   8    -0.656455470471E+03    0.34171E-03   -0.10347E-04   396   0.177E-02    0.338E-01
DAV:   9    -0.656455267002E+03    0.20347E-03   -0.77101E-05   396   0.151E-02    0.184E-01
DAV:  10    -0.656455235797E+03    0.31205E-04   -0.20154E-05   336   0.901E-03
   8 F= -.67141473E+03 E0= -.67135331E+03  d E =-.234406E-02
       N       E                     dE             d eps       ncg     rms          rms(c)
DAV:   1    -0.656454744500E+03    0.52250E-03   -0.12383E-01   624   0.333E-01    0.194E-01
DAV:   2    -0.656463324942E+03   -0.85804E-02   -0.51252E-02   624   0.141E-01    0.192E+00
DAV:   3    -0.656456159192E+03    0.71658E-02   -0.58636E-02   600   0.120E-01    0.515E-01
DAV:   4    -0.656454970155E+03    0.11890E-02   -0.89309E-04   564   0.463E-02    0.714E-02
DAV:   5    -0.656454869369E+03    0.10079E-03   -0.17467E-04   456   0.198E-02    0.180E-01
DAV:   6    -0.656455047873E+03   -0.17850E-03   -0.95648E-05   444   0.153E-02    0.329E-01
DAV:   7    -0.656455044997E+03    0.28757E-05   -0.28668E-05   360   0.106E-02
   9 F= -.67141530E+03 E0= -.67135436E+03  d E =-.291778E-02
       N       E                     dE             d eps       ncg     rms          rms(c)
DAV:   1    -0.656455632164E+03   -0.58429E-03   -0.66583E-02   600   0.246E-01    0.216E-01
DAV:   2    -0.656476705970E+03   -0.21074E-01   -0.19746E-01   780   0.190E-01    0.287E+00
DAV:   3    -0.656457928228E+03    0.18778E-01   -0.21962E-01   696   0.189E-01    0.669E-01
DAV:   4    -0.656456033764E+03    0.18945E-02   -0.16072E-03   636   0.651E-02    0.166E-01
DAV:   5    -0.656455692054E+03    0.34171E-03   -0.29554E-04   528   0.322E-02    0.114E-01
DAV:   6    -0.656455640195E+03    0.51860E-04   -0.92859E-05   420   0.225E-02
  10 F= -.67141629E+03 E0= -.67135458E+03  d E =-.988297E-03
       N       E                     dE             d eps       ncg     rms          rms(c)
DAV:   1    -0.656455403682E+03    0.28837E-03   -0.59906E-01   600   0.738E-01    0.324E-01
DAV:   2    -0.656469996440E+03   -0.14593E-01   -0.12684E-01   780   0.268E-01    0.235E+00
DAV:   3    -0.656460280527E+03    0.97159E-02   -0.17658E-01   732   0.182E-01    0.119E+00
DAV:   4    -0.656457459212E+03    0.28213E-02   -0.21030E-03   636   0.735E-02    0.623E-01
DAV:   5    -0.656457625381E+03   -0.16617E-03   -0.77659E-04   696   0.456E-02    0.751E-01
DAV:   6    -0.656458123392E+03   -0.49801E-03   -0.62325E-04   648   0.445E-02    0.949E-01
DAV:   7    -0.656457946545E+03    0.17685E-03   -0.22724E-04   504   0.274E-02    0.933E-01
DAV:   8    -0.656456201746E+03    0.17448E-02   -0.38533E-04   504   0.305E-02    0.355E-01
DAV:   9    -0.656456149093E+03    0.52653E-04   -0.17269E-04   408   0.195E-02
  11 F= -.67141800E+03 E0= -.67135681E+03  d E =-.269365E-02
       N       E                     dE             d eps       ncg     rms          rms(c)
DAV:   1    -0.656456580102E+03   -0.37836E-03   -0.60290E-02   600   0.256E-01    0.177E-01
DAV:   2    -0.656473819643E+03   -0.17240E-01   -0.15240E-01   780   0.175E-01    0.265E+00
DAV:   3    -0.656458216565E+03    0.15603E-01   -0.15318E-01   708   0.155E-01    0.437E-01
DAV:   4    -0.656456803415E+03    0.14131E-02   -0.11259E-03   516   0.552E-02    0.170E-01
DAV:   5    -0.656456605589E+03    0.19783E-03   -0.13458E-04   396   0.207E-02    0.616E-02
DAV:   6    -0.656456623624E+03   -0.18035E-04   -0.44173E-05   348   0.132E-02
  12 F= -.67141885E+03 E0= -.67135720E+03  d E =-.856088E-03
       N       E                     dE             d eps       ncg     rms          rms(c)
DAV:   1    -0.656455756045E+03    0.84954E-03   -0.46045E-01   600   0.708E-01    0.227E-01
DAV:   2    -0.656458339185E+03   -0.25831E-02   -0.14406E-02   816   0.182E-01    0.830E-01
DAV:   3    -0.656458773026E+03   -0.43384E-03   -0.60785E-03   648   0.100E-01    0.101E+00
DAV:   4    -0.656457545246E+03    0.12278E-02   -0.25057E-03   660   0.563E-02    0.507E-01
DAV:   5    -0.656457790556E+03   -0.24531E-03   -0.35409E-03   660   0.454E-02    0.757E-01
DAV:   6    -0.656457184566E+03    0.60599E-03   -0.43785E-04   528   0.387E-02    0.582E-01
DAV:   7    -0.656456861624E+03    0.32294E-03   -0.13421E-04   420   0.194E-02    0.431E-01
DAV:   8    -0.656456589214E+03    0.27241E-03   -0.77883E-05   348   0.158E-02    0.247E-01
DAV:   9    -0.656456466406E+03    0.12281E-03   -0.44519E-05   336   0.101E-02    0.114E-01
DAV:  10    -0.656456423764E+03    0.42642E-04   -0.11543E-05   300   0.606E-03
  13 F= -.67141972E+03 E0= -.67135793E+03  d E =-.172408E-02
       N       E                     dE             d eps       ncg     rms          rms(c)
DAV:   1    -0.656456202435E+03    0.26397E-03   -0.90205E-02   600   0.284E-01    0.108E-01
DAV:   2    -0.656457217873E+03   -0.10154E-02   -0.23369E-03   732   0.608E-02    0.650E-01
DAV:   3    -0.656456667030E+03    0.55084E-03   -0.96602E-04   492   0.536E-02    0.282E-01
DAV:   4    -0.656456572802E+03    0.94229E-04   -0.35351E-04   408   0.347E-02
  14 F= -.67142086E+03 E0= -.67135996E+03  d E =-.113702E-02
       N       E                     dE             d eps       ncg     rms          rms(c)
DAV:   1    -0.656454239559E+03    0.24275E-02   -0.80744E-01   600   0.854E-01    0.300E-01
DAV:   2    -0.656457835532E+03   -0.35960E-02   -0.21209E-02   828   0.215E-01    0.100E+00
DAV:   3    -0.656459732395E+03   -0.18969E-02   -0.74489E-03   672   0.131E-01    0.140E+00
DAV:   4    -0.656456763564E+03    0.29688E-02   -0.13175E-03   708   0.773E-02    0.658E-01
DAV:   5    -0.656456989665E+03   -0.22610E-03   -0.34180E-03   672   0.582E-02    0.899E-01
DAV:   6    -0.656456422661E+03    0.56700E-03   -0.14966E-03   588   0.458E-02    0.826E-01
DAV:   7    -0.656455765804E+03    0.65686E-03   -0.20917E-04   420   0.233E-02    0.622E-01
DAV:   8    -0.656455179702E+03    0.58610E-03   -0.16796E-04   372   0.226E-02    0.311E-01
DAV:   9    -0.656455036803E+03    0.14290E-03   -0.13744E-04   396   0.163E-02    0.861E-02
DAV:  10    -0.656455008455E+03    0.28348E-04   -0.28846E-05   336   0.101E-02
  15 F= -.67142227E+03 E0= -.67136053E+03  d E =-.255120E-02
       N       E                     dE             d eps       ncg     rms          rms(c)
DAV:   1    -0.656454877998E+03    0.15880E-03   -0.18901E-01   600   0.554E-01    0.249E-01
DAV:   2    -0.656457733734E+03   -0.28557E-02   -0.61406E-03   852   0.115E-01    0.108E+00
DAV:   3    -0.656458230548E+03   -0.49681E-03   -0.20459E-02   624   0.125E-01    0.117E+00
DAV:   4    -0.656455660262E+03    0.25703E-02   -0.89553E-03   576   0.742E-02    0.343E-01
DAV:   5    -0.656455110537E+03    0.54972E-03   -0.33214E-04   552   0.341E-02    0.801E-02
DAV:   6    -0.656455080039E+03    0.30498E-04   -0.17807E-04   492   0.258E-02
  16 F= -.67142412E+03 E0= -.67136236E+03  d E =-.184149E-02
       N       E                     dE             d eps       ncg     rms          rms(c)
DAV:   1    -0.656454573598E+03    0.53694E-03   -0.14852E-02   600   0.159E-01    0.718E-02
DAV:   2    -0.656454867898E+03   -0.29430E-03   -0.54765E-04   696   0.394E-02    0.179E-01
DAV:   3    -0.656454909081E+03   -0.41183E-04   -0.50164E-04   528   0.405E-02
  17 F= -.67142444E+03 E0= -.67136151E+03  d E =-.216913E-02
       N       E                     dE             d eps       ncg     rms          rms(c)
DAV:   1    -0.656454047055E+03    0.82084E-03   -0.73937E-02   600   0.378E-01    0.143E-01
DAV:   2    -0.656456753519E+03   -0.27065E-02   -0.11157E-02   828   0.107E-01    0.825E-01
DAV:   3    -0.656455124337E+03    0.16292E-02   -0.11416E-02   648   0.745E-02    0.485E-01
DAV:   4    -0.656454552467E+03    0.57187E-03   -0.12589E-03   684   0.702E-02    0.288E-01
DAV:   5    -0.656454089294E+03    0.46317E-03   -0.19221E-04   492   0.330E-02    0.877E-02
DAV:   6    -0.656454101292E+03   -0.11999E-04   -0.11997E-04   372   0.194E-02
  18 F= -.67142513E+03 E0= -.67136336E+03  d E =-.683156E-03
       N       E                     dE             d eps       ncg     rms          rms(c)
DAV:   1    -0.656453081203E+03    0.10081E-02   -0.57491E-02   600   0.331E-01    0.153E-01
DAV:   2    -0.656458857035E+03   -0.57758E-02   -0.45401E-03   816   0.112E-01    0.152E+00
DAV:   3    -0.656453805447E+03    0.50516E-02   -0.43216E-03   600   0.112E-01    0.443E-01
DAV:   4    -0.656453383213E+03    0.42223E-03   -0.46682E-04   576   0.467E-02    0.236E-01
DAV:   5    -0.656453234493E+03    0.14872E-03   -0.18164E-04   444   0.284E-02    0.108E-01
DAV:   6    -0.656453200652E+03    0.33841E-04   -0.10957E-04   456   0.241E-02
  19 F= -.67142555E+03 E0= -.67136336E+03  d E =-.110793E-02
       N       E                     dE             d eps       ncg     rms          rms(c)
DAV:   1    -0.656452505760E+03    0.72873E-03   -0.14303E-02   600   0.166E-01    0.142E-01
DAV:   2    -0.656461467076E+03   -0.89613E-02   -0.65591E-03   720   0.121E-01    0.185E+00
DAV:   3    -0.656453229289E+03    0.82378E-02   -0.58191E-03   660   0.128E-01    0.395E-01
DAV:   4    -0.656452702813E+03    0.52648E-03   -0.56259E-04   552   0.478E-02    0.192E-01
DAV:   5    -0.656452573692E+03    0.12912E-03   -0.11116E-04   384   0.233E-02    0.143E-01
DAV:   6    -0.656452535771E+03    0.37921E-04   -0.44172E-05   348   0.135E-02
  20 F= -.67142555E+03 E0= -.67136386E+03  d E =-.110599E-02
       N       E                     dE             d eps       ncg     rms          rms(c)
DAV:   1    -0.656452909934E+03   -0.33624E-03   -0.36693E-02   600   0.245E-01    0.186E-01
DAV:   2    -0.656459099080E+03   -0.61891E-02   -0.49504E-03   840   0.117E-01    0.158E+00
DAV:   3    -0.656454210747E+03    0.48883E-02   -0.59810E-03   684   0.128E-01    0.693E-01
DAV:   4    -0.656453403321E+03    0.80743E-03   -0.77060E-04   504   0.609E-02    0.360E-01
DAV:   5    -0.656453004444E+03    0.39888E-03   -0.16106E-04   420   0.321E-02    0.607E-02
DAV:   6    -0.656452907326E+03    0.97118E-04   -0.53278E-05   336   0.160E-02
  21 F= -.67142638E+03 E0= -.67136441E+03  d E =-.830530E-03
       N       E                     dE             d eps       ncg     rms          rms(c)
DAV:   1    -0.656452801491E+03    0.20295E-03   -0.18185E-02   600   0.173E-01    0.191E-01
DAV:   2    -0.656464326783E+03   -0.11525E-01   -0.86035E-03   816   0.145E-01    0.205E+00
DAV:   3    -0.656453984946E+03    0.10342E-01   -0.86231E-03   672   0.154E-01    0.573E-01
DAV:   4    -0.656453589608E+03    0.39534E-03   -0.87171E-04   612   0.647E-02    0.461E-01
DAV:   5    -0.656452915056E+03    0.67455E-03   -0.23846E-04   468   0.363E-02    0.176E-01
DAV:   6    -0.656452827385E+03    0.87671E-04   -0.43170E-05   336   0.156E-02
  22 F= -.67142662E+03 E0= -.67136521E+03  d E =-.107565E-02
       N       E                     dE             d eps       ncg     rms          rms(c)
DAV:   1    -0.656453125629E+03   -0.21057E-03   -0.31416E-02   600   0.244E-01    0.922E-02
DAV:   2    -0.656453374843E+03   -0.24921E-03   -0.12240E-03   852   0.572E-02    0.280E-01
DAV:   3    -0.656453806502E+03   -0.43166E-03   -0.77836E-04   516   0.445E-02    0.533E-01
DAV:   4    -0.656453224889E+03    0.58161E-03   -0.36324E-04   396   0.369E-02    0.809E-02
DAV:   5    -0.656453201416E+03    0.23473E-04   -0.75315E-05   372   0.209E-02
  23 F= -.67142694E+03 E0= -.67136458E+03  d E =-.315552E-03
       N       E                     dE             d eps       ncg     rms          rms(c)
DAV:   1    -0.656453193150E+03    0.31739E-04   -0.10564E-04   396   0.168E-02    0.107E-01
DAV:   2    -0.656459320796E+03   -0.61276E-02   -0.46160E-03   576   0.955E-02    0.158E+00
DAV:   3    -0.656453621375E+03    0.56994E-02   -0.37642E-03   540   0.104E-01    0.311E-01
DAV:   4    -0.656453261619E+03    0.35976E-03   -0.34000E-04   480   0.331E-02    0.121E-01
DAV:   5    -0.656453195420E+03    0.66199E-04   -0.42801E-05   360   0.122E-02
  24 F= -.67142693E+03 E0= -.67136511E+03  d E =-.306071E-03
       N       E                     dE             d eps       ncg     rms          rms(c)
DAV:   1    -0.656453608790E+03   -0.34717E-03   -0.65986E-03   588   0.121E-01    0.802E-02
DAV:   2    -0.656456012449E+03   -0.24037E-02   -0.49406E-03   516   0.633E-02    0.107E+00
DAV:   3    -0.656453982994E+03    0.20295E-02   -0.53469E-03   504   0.663E-02    0.248E-01
DAV:   4    -0.656453781331E+03    0.20166E-03   -0.17866E-04   444   0.299E-02    0.249E-01
DAV:   5    -0.656453610864E+03    0.17047E-03   -0.38820E-05   384   0.136E-02    0.113E-01
DAV:   6    -0.656453606856E+03    0.40076E-05   -0.16704E-05   348   0.968E-03
  25 F= -.67142707E+03 E0= -.67136485E+03  d E =-.139230E-03
       N       E                     dE             d eps       ncg     rms          rms(c)
DAV:   1    -0.656454038159E+03   -0.42730E-03   -0.10882E-02   600   0.155E-01    0.730E-02
DAV:   2    -0.656455224522E+03   -0.11864E-02   -0.90159E-04   624   0.525E-02    0.744E-01
DAV:   3    -0.656454235669E+03    0.98885E-03   -0.95668E-04   516   0.522E-02    0.227E-01
DAV:   4    -0.656454195134E+03    0.40535E-04   -0.18584E-04   456   0.308E-02
  26 F= -.67142731E+03 E0= -.67136499E+03  d E =-.379543E-03
       N       E                     dE             d eps       ncg     rms          rms(c)
DAV:   1    -0.656454267037E+03   -0.31368E-04   -0.12196E-02   600   0.158E-01    0.108E-01
DAV:   2    -0.656457962203E+03   -0.36952E-02   -0.29151E-03   588   0.807E-02    0.125E+00
DAV:   3    -0.656454707446E+03    0.32548E-02   -0.25669E-03   540   0.971E-02    0.323E-01
DAV:   4    -0.656454603988E+03    0.10346E-03   -0.36459E-04   540   0.414E-02    0.250E-01
DAV:   5    -0.656454340607E+03    0.26338E-03   -0.12029E-04   444   0.256E-02    0.141E-01
DAV:   6    -0.656454294288E+03    0.46319E-04   -0.34652E-05   336   0.120E-02
  27 F= -.67142729E+03 E0= -.67136560E+03  d E =0.152141E-04
       N       E                     dE             d eps       ncg     rms          rms(c)
DAV:   1    -0.656454290329E+03    0.50279E-04   -0.26122E-04   516   0.250E-02    0.195E-02
DAV:   2    -0.656454318971E+03   -0.28642E-04   -0.50488E-05   360   0.123E-02
  28 F= -.67142730E+03 E0= -.67136520E+03  d E =0.666309E-05
       N       E                     dE             d eps       ncg     rms          rms(c)
DAV:   1    -0.656454281000E+03    0.93283E-05   -0.90578E-03   624   0.131E-01    0.107E-01
DAV:   2    -0.656461028845E+03   -0.67478E-02   -0.29915E-02   612   0.101E-01    0.176E+00
DAV:   3    -0.656455037314E+03    0.59915E-02   -0.29679E-02   576   0.106E-01    0.279E-01
DAV:   4    -0.656454403791E+03    0.63352E-03   -0.44036E-04   504   0.395E-02    0.181E-01
DAV:   5    -0.656454281176E+03    0.12262E-03   -0.58979E-05   384   0.163E-02    0.103E-01
DAV:   6    -0.656454264087E+03    0.17090E-04   -0.14362E-05   348   0.855E-03
  29 F= -.67142737E+03 E0= -.67136523E+03  d E =-.636943E-04
