 vasp.5.4.1 05Feb16 (build Apr 21 2017 13:36:42) gamma-only                     
  
 executed on           IFC91_ompi date 2020.09.15  10:10:13
 running on   36 total cores
 distrk:  each k-point on   36 cores,    1 groups
 distr:  one band on NCORES_PER_BAND=   3 cores,   12 groups


--------------------------------------------------------------------------------------------------------


 INCAR:
 POTCAR:    PAW_PBE C 08Apr2002                   
 POTCAR:    PAW_PBE Co 02Aug2007                  
 POTCAR:    PAW_PBE H 15Jun2001                   
 POTCAR:    PAW_PBE Mo 08Apr2002                  
 POTCAR:    PAW_PBE S 06Sep2000                   
 POTCAR:    PAW_PBE C 08Apr2002                   
   VRHFIN =C: s2p2                                                              
   LEXCH  = PE                                                                  
   EATOM  =   147.1560 eV,   10.8157 Ry                                         
                                                                                
   TITEL  = PAW_PBE C 08Apr2002                                                 
   LULTRA =        F    use ultrasoft PP ?                                      
   IUNSCR =        1    unscreen: 0-lin 1-nonlin 2-no                           
   RPACOR =    1.200    partial core radius                                     
   POMASS =   12.011; ZVAL   =    4.000    mass and valenz                      
   RCORE  =    1.500    outmost cutoff radius                                   
   RWIGS  =    1.630; RWIGS  =    0.863    wigner-seitz radius (au A)           
   ENMAX  =  400.000; ENMIN  =  300.000 eV                                      
   ICORE  =        2    local potential                                         
   LCOR   =        T    correct aug charges                                     
   LPAW   =        T    paw PP                                                  
   EAUG   =  644.873                                                            
   DEXC   =    0.000                                                            
   RMAX   =    1.529    core radius for proj-oper                               
   RAUG   =    1.300    factor for augmentation sphere                          
   RDEP   =    1.501    radius for radial grids                                 
   RDEPT  =    1.300    core radius for aug-charge                              
                                                                                
   Atomic configuration                                                         
    4 entries                                                                   
     n  l   j            E        occ.                                          
     1  0  0.50      -273.3789   2.0000                                         
     2  0  0.50       -13.7508   2.0000                                         
     2  1  0.50        -5.2854   2.0000                                         
     3  2  1.50        -5.4423   0.0000                                         
   Description                                                                  
     l       E           TYP  RCUT    TYP  RCUT                                 
     0    -13.7508458     23  1.200                                             
     0     -8.2022199     23  1.200                                             
     1     -5.2854383     23  1.500                                             
     1     34.0145650     23  1.500                                             
     2     -5.4423304      7  1.500                                             
  local pseudopotential read in
  partial core-charges read in
  partial kinetic energy density read in
  atomic valenz-charges read in
  non local Contribution for L=           0  read in
    real space projection operators read in
  non local Contribution for L=           0  read in
    real space projection operators read in
  non local Contribution for L=           1  read in
    real space projection operators read in
  non local Contribution for L=           1  read in
    real space projection operators read in
    PAW grid and wavefunctions read in
 
   number of l-projection  operators is LMAX  =           4
   number of lm-projection operators is LMMAX =           8
 
 POTCAR:    PAW_PBE Co 02Aug2007                  
   VRHFIN =Co: d8 s1                                                            
   LEXCH  = PE                                                                  
   EATOM  =   813.3670 eV,   59.7808 Ry                                         
                                                                                
   TITEL  = PAW_PBE Co 02Aug2007                                                
   LULTRA =        F    use ultrasoft PP ?                                      
   IUNSCR =        1    unscreen: 0-lin 1-nonlin 2-no                           
   RPACOR =    2.000    partial core radius                                     
   POMASS =   58.933; ZVAL   =    9.000    mass and valenz                      
   RCORE  =    2.300    outmost cutoff radius                                   
   RWIGS  =    2.460; RWIGS  =    1.302    wigner-seitz radius (au A)           
   ENMAX  =  267.968; ENMIN  =  200.976 eV                                      
   RCLOC  =    1.203    cutoff for local pot                                    
   LCOR   =        T    correct aug charges                                     
   LPAW   =        T    paw PP                                                  
   EAUG   =  477.818                                                            
   DEXC   =    0.000                                                            
   RMAX   =    2.360    core radius for proj-oper                               
   RAUG   =    1.300    factor for augmentation sphere                          
   RDEP   =    2.393    radius for radial grids                                 
   RDEPT  =    1.864    core radius for aug-charge                              
                                                                                
   Atomic configuration                                                         
    9 entries                                                                   
     n  l   j            E        occ.                                          
     1  0  0.50     -7587.6674   2.0000                                         
     2  0  0.50      -893.6084   2.0000                                         
     2  1  1.50      -764.5805   6.0000                                         
     3  0  0.50       -97.5973   2.0000                                         
     3  1  1.50       -60.9648   6.0000                                         
     3  2  2.50        -4.2382   8.0000                                         
     4  0  0.50        -4.3746   1.0000                                         
     4  1  1.50        -4.0817   0.0000                                         
     4  3  2.50        -1.3606   0.0000                                         
   Description                                                                  
     l       E           TYP  RCUT    TYP  RCUT                                 
     2     -4.2382362     23  2.300                                             
     2     -5.5988188     23  2.300                                             
     0     -4.3745797     23  2.300                                             
     0      5.7660125     23  2.300                                             
     1     -2.7211652     23  2.300                                             
     1     16.9860234     23  2.300                                             
  local pseudopotential read in
  partial core-charges read in
  partial kinetic energy density read in
  atomic valenz-charges read in
  non local Contribution for L=           2  read in
    real space projection operators read in
  non local Contribution for L=           2  read in
    real space projection operators read in
  non local Contribution for L=           0  read in
    real space projection operators read in
  non local Contribution for L=           0  read in
    real space projection operators read in
  non local Contribution for L=           1  read in
    real space projection operators read in
  non local Contribution for L=           1  read in
    real space projection operators read in
    PAW grid and wavefunctions read in
 
   number of l-projection  operators is LMAX  =           6
   number of lm-projection operators is LMMAX =          18
 
 POTCAR:    PAW_PBE H 15Jun2001                   
   VRHFIN =H: ultrasoft test                                                    
   LEXCH  = PE                                                                  
   EATOM  =    12.4884 eV,    0.9179 Ry                                         
                                                                                
   TITEL  = PAW_PBE H 15Jun2001                                                 
   LULTRA =        F    use ultrasoft PP ?                                      
   IUNSCR =        0    unscreen: 0-lin 1-nonlin 2-no                           
   RPACOR =    0.000    partial core radius                                     
   POMASS =    1.000; ZVAL   =    1.000    mass and valenz                      
   RCORE  =    1.100    outmost cutoff radius                                   
   RWIGS  =    0.700; RWIGS  =    0.370    wigner-seitz radius (au A)           
   ENMAX  =  250.000; ENMIN  =  200.000 eV                                      
   RCLOC  =    0.701    cutoff for local pot                                    
   LCOR   =        T    correct aug charges                                     
   LPAW   =        T    paw PP                                                  
   EAUG   =  400.000                                                            
   RMAX   =    1.123    core radius for proj-oper                               
   RAUG   =    1.200    factor for augmentation sphere                          
   RDEP   =    1.112    radius for radial grids                                 
   RDEPT  =    0.926    core radius for aug-charge                              
                                                                                
   Atomic configuration                                                         
    2 entries                                                                   
     n  l   j            E        occ.                                          
     1  0  0.50        -6.4927   1.0000                                         
     2  1  0.50        -3.4015   0.0000                                         
   Description                                                                  
     l       E           TYP  RCUT    TYP  RCUT                                 
     0     -6.4927494     23  1.100                                             
     0      6.8029130     23  1.100                                             
     1     -4.0817478     23  1.100                                             
  local pseudopotential read in
  atomic valenz-charges read in
  non local Contribution for L=           0  read in
    real space projection operators read in
  non local Contribution for L=           0  read in
    real space projection operators read in
  non local Contribution for L=           1  read in
    real space projection operators read in
    PAW grid and wavefunctions read in
 
   number of l-projection  operators is LMAX  =           3
   number of lm-projection operators is LMMAX =           5
 
 POTCAR:    PAW_PBE Mo 08Apr2002                  
   VRHFIN =Mo: 4p5s4d                                                           
   LEXCH  = PE                                                                  
   EATOM  =   217.5176 eV,   15.9871 Ry                                         
                                                                                
   TITEL  = PAW_PBE Mo 08Apr2002                                                
   LULTRA =        F    use ultrasoft PP ?                                      
   IUNSCR =        1    unscreen: 0-lin 1-nonlin 2-no                           
   RPACOR =    2.200    partial core radius                                     
   POMASS =   95.940; ZVAL   =    6.000    mass and valenz                      
   RCORE  =    2.750    outmost cutoff radius                                   
   RWIGS  =    2.750; RWIGS  =    1.455    wigner-seitz radius (au A)           
   ENMAX  =  224.584; ENMIN  =  168.438 eV                                      
   RCLOC  =    2.111    cutoff for local pot                                    
   LCOR   =        T    correct aug charges                                     
   LPAW   =        T    paw PP                                                  
   EAUG   =  345.278                                                            
   DEXC   =    0.000                                                            
   RMAX   =    2.821    core radius for proj-oper                               
   RAUG   =    1.300    factor for augmentation sphere                          
   RDEP   =    2.815    radius for radial grids                                 
   RDEPT  =    2.211    core radius for aug-charge                              
                                                                                
   Atomic configuration                                                         
   12 entries                                                                   
     n  l   j            E        occ.                                          
     1  0  0.50    -19819.0341   2.0000                                         
     2  0  0.50     -2799.0127   2.0000                                         
     2  1  1.50     -2502.0276   6.0000                                         
     3  0  0.50      -476.4448   2.0000                                         
     3  1  1.50      -379.1496   6.0000                                         
     3  2  2.50      -220.9367  10.0000                                         
     4  0  0.50       -64.3378   2.0000                                         
     4  1  1.50       -38.4773   6.0000                                         
     4  2  2.50        -3.7535   5.0000                                         
     5  0  0.50        -4.0862   1.0000                                         
     5  1  0.50        -2.7701   0.0000                                         
     4  3  2.50        -1.3606   0.0000                                         
   Description                                                                  
     l       E           TYP  RCUT    TYP  RCUT                                 
     2     -3.7534765     23  2.500                                             
     2     -5.1140591     23  2.500                                             
     0     -4.0861560     23  2.600                                             
     0     13.6058260     23  2.600                                             
     1      5.4423304     23  2.750                                             
     1     27.2116520     23  2.750                                             
  local pseudopotential read in
  partial core-charges read in
  partial kinetic energy density read in
  atomic valenz-charges read in
  non local Contribution for L=           2  read in
    real space projection operators read in
  non local Contribution for L=           2  read in
    real space projection operators read in
  non local Contribution for L=           0  read in
    real space projection operators read in
  non local Contribution for L=           0  read in
    real space projection operators read in
  non local Contribution for L=           1  read in
    real space projection operators read in
  non local Contribution for L=           1  read in
    real space projection operators read in
    PAW grid and wavefunctions read in
 
   number of l-projection  operators is LMAX  =           6
   number of lm-projection operators is LMMAX =          18
 
 POTCAR:    PAW_PBE S 06Sep2000                   
   VRHFIN =S : s2p4                                                             
   LEXCH  = PE                                                                  
   EATOM  =   276.8230 eV,   20.3459 Ry                                         
                                                                                
   TITEL  = PAW_PBE S 06Sep2000                                                 
   LULTRA =        F    use ultrasoft PP ?                                      
   IUNSCR =        1    unscreen: 0-lin 1-nonlin 2-no                           
   RPACOR =    1.500    partial core radius                                     
   POMASS =   32.066; ZVAL   =    6.000    mass and valenz                      
   RCORE  =    1.900    outmost cutoff radius                                   
   RWIGS  =    2.200; RWIGS  =    1.164    wigner-seitz radius (au A)           
   ENMAX  =  258.689; ENMIN  =  194.016 eV                                      
   ICORE  =        2    local potential                                         
   LCOR   =        T    correct aug charges                                     
   LPAW   =        T    paw PP                                                  
   EAUG   =  335.092                                                            
   DEXC   =    0.000                                                            
   RMAX   =    1.942    core radius for proj-oper                               
   RAUG   =    1.300    factor for augmentation sphere                          
   RDEP   =    1.954    radius for radial grids                                 
   RDEPT  =    1.744    core radius for aug-charge                              
                                                                                
   Atomic configuration                                                         
    6 entries                                                                   
     n  l   j            E        occ.                                          
     1  0  0.50     -2405.8406   2.0000                                         
     2  0  0.50      -211.7007   2.0000                                         
     2  1  1.50      -156.4958   6.0000                                         
     3  0  0.50       -17.2562   2.0000                                         
     3  1  0.50        -7.0085   4.0000                                         
     3  2  1.50        -6.8029   0.0000                                         
   Description                                                                  
     l       E           TYP  RCUT    TYP  RCUT                                 
     0    -17.2561641     23  1.900                                             
     0    -15.8743224     23  1.900                                             
     1     -7.0085400     23  1.900                                             
     1     -2.7779785     23  1.900                                             
     2     -6.8029130     23  1.900                                             
  local pseudopotential read in
  partial core-charges read in
  partial kinetic energy density read in
  atomic valenz-charges read in
  non local Contribution for L=           0  read in
    real space projection operators read in
  non local Contribution for L=           0  read in
    real space projection operators read in
  non local Contribution for L=           1  read in
    real space projection operators read in
  non local Contribution for L=           1  read in
    real space projection operators read in
    PAW grid and wavefunctions read in
 
   number of l-projection  operators is LMAX  =           4
   number of lm-projection operators is LMMAX =           8
 
 Optimization of the real space projectors (new method)

 maximal supplied QI-value         = 25.13
 optimisation between [QCUT,QGAM] = [ 10.05, 20.36] = [ 28.30,116.06] Ry 
 Optimized for a Real-space Cutoff    1.51 Angstroem

   l    n(q)    QCUT    max X(q) W(low)/X(q) W(high)/X(q)  e(spline) 
   0      9    10.053   115.676    0.19E-03    0.21E-03    0.38E-06
   0      9    10.053    87.132    0.19E-03    0.21E-03    0.38E-06
   1      9    10.053     4.429    0.87E-04    0.11E-03    0.39E-06
   1      9    10.053     2.733    0.59E-04    0.62E-04    0.43E-06
 Optimization of the real space projectors (new method)

 maximal supplied QI-value         = 16.25
 optimisation between [QCUT,QGAM] = [ 10.24, 20.48] = [ 29.35,117.42] Ry 
 Optimized for a Real-space Cutoff    1.51 Angstroem

   l    n(q)    QCUT    max X(q) W(low)/X(q) W(high)/X(q)  e(spline) 
   2      8    10.239    65.824    0.20E-03    0.32E-03    0.24E-06
   2      8    10.239    61.429    0.20E-03    0.32E-03    0.24E-06
   0      9    10.239    56.174    0.11E-03    0.60E-04    0.77E-07
   0      9    10.239    31.263    0.96E-04    0.56E-04    0.69E-07
   1      9    10.239    19.828    0.36E-04    0.15E-03    0.11E-06
   1      9    10.239    15.139    0.28E-04    0.12E-03    0.10E-06
 Optimization of the real space projectors (new method)

 maximal supplied QI-value         = 34.20
 optimisation between [QCUT,QGAM] = [  9.92, 20.18] = [ 27.55,114.04] Ry 
 Optimized for a Real-space Cutoff    1.34 Angstroem

   l    n(q)    QCUT    max X(q) W(low)/X(q) W(high)/X(q)  e(spline) 
   0      8     9.919    19.460    0.16E-03    0.20E-03    0.36E-06
   0      8     9.919    12.209    0.16E-03    0.20E-03    0.35E-06
   1      8     9.919     4.655    0.19E-03    0.46E-03    0.40E-06
 Optimization of the real space projectors (new method)

 maximal supplied QI-value         = 13.61
 optimisation between [QCUT,QGAM] = [ 10.20, 20.41] = [ 29.16,116.64] Ry 
 Optimized for a Real-space Cutoff    1.65 Angstroem

   l    n(q)    QCUT    max X(q) W(low)/X(q) W(high)/X(q)  e(spline) 
   2      9    10.205    80.908    0.21E-03    0.30E-03    0.60E-06
   2      9    10.205    79.000    0.21E-03    0.30E-03    0.60E-06
   0     10    10.205    52.066    0.39E-04    0.38E-04    0.19E-06
   0     10    10.205    24.514    0.33E-04    0.32E-04    0.16E-06
   1     10    10.205    16.033    0.64E-04    0.17E-03    0.19E-06
   1     10    10.205    11.179    0.49E-04    0.13E-03    0.15E-06
 Optimization of the real space projectors (new method)

 maximal supplied QI-value         = 19.84
 optimisation between [QCUT,QGAM] = [ 10.12, 20.44] = [ 28.68,116.96] Ry 
 Optimized for a Real-space Cutoff    1.42 Angstroem

   l    n(q)    QCUT    max X(q) W(low)/X(q) W(high)/X(q)  e(spline) 
   0      9    10.119   187.594    0.52E-04    0.93E-04    0.64E-07
   0      9    10.119   164.243    0.51E-04    0.92E-04    0.63E-07
   1      8    10.119    67.533    0.16E-03    0.17E-03    0.23E-06
   1      8    10.119    50.729    0.16E-03    0.16E-03    0.23E-06
  PAW_PBE C 08Apr2002                   :
 energy of atom  1       EATOM= -147.1560
 kinetic energy error for atom=    0.0288 (will be added to EATOM!!)
  PAW_PBE Co 02Aug2007                  :
 energy of atom  2       EATOM= -813.3670
 kinetic energy error for atom=    0.0093 (will be added to EATOM!!)
  PAW_PBE H 15Jun2001                   :
 energy of atom  3       EATOM=  -12.4884
 kinetic energy error for atom=    0.0098 (will be added to EATOM!!)
  PAW_PBE Mo 08Apr2002                  :
 energy of atom  4       EATOM= -217.5176
 kinetic energy error for atom=    0.0025 (will be added to EATOM!!)
  PAW_PBE S 06Sep2000                   :
 energy of atom  5       EATOM= -276.8230
 kinetic energy error for atom=    0.0046 (will be added to EATOM!!)
 
 
 POSCAR:  C Co  H Mo  S                          
  positions in cartesian coordinates
  No initial velocities read in
 exchange correlation table for  LEXCH =        8
   RHO(1)=    0.500       N(1)  =     2000
   RHO(2)=  100.500       N(2)  =     4000

 VTST: version 3.1, (03/28/14)

 CHAIN: initializing optimizer
 
 OPT: Using VASP Conjugate-Gradient optimizer
 CHAIN: Read ICHAIN            0
 
 POSCAR:  C Co  H Mo  S                          
  positions in cartesian coordinates
  No initial velocities read in
 


--------------------------------------------------------------------------------------------------------


 ion  position               nearest neighbor table
   1  0.908  0.470  0.006-  18 1.09   2 1.43   3 1.43  11 2.09
   2  0.979  0.523  0.042-  17 1.09   1 1.43   5 1.43  11 2.09
   3  0.933  0.565  0.980-  19 1.09   1 1.43   4 1.43  11 2.09
   4  0.019  0.677  0.000-  20 1.09   5 1.43   3 1.43  11 2.09
   5  0.048  0.651  0.038-  12 1.09   4 1.43   2 1.43  11 2.08
   6  0.599  0.467  0.062-  16 1.09  10 1.43   8 1.43  11 2.09
   7  0.687  0.663  0.042-  15 1.09   8 1.43   9 1.43  11 2.09
   8  0.684  0.591  0.074-  13 1.09   7 1.43   6 1.43  11 2.08
   9  0.604  0.583  0.011-  14 1.09   7 1.43  10 1.43  11 2.09
  10  0.550  0.462  0.023-  21 1.09   6 1.43   9 1.43  11 2.09
  11  0.801  0.565  0.028-   8 2.08   5 2.08   2 2.09   7 2.09   4 2.09   9 2.09   3 2.09   6 2.09
                            10 2.09   1 2.09
  12  0.108  0.718  0.061-   5 1.09
  13  0.739  0.626  0.102-   8 1.09
  14  0.588  0.609  0.982-   9 1.09
  15  0.746  0.761  0.041-   7 1.09
  16  0.578  0.390  0.080-   6 1.09
  17  0.978  0.475  0.067-   2 1.09
  18  0.844  0.373  0.999-   1 1.09
  19  0.890  0.554  0.950-   3 1.09
  20  0.054  0.766  0.989-   4 1.09
  21  0.485  0.380  0.006-  10 1.09
  22  0.556  0.083  0.250-  46 2.42  67 2.42  48 2.42  66 2.42  76 2.42  78 2.42  23 3.19  27 3.19
                            37 3.19  43 3.19  29 3.19  38 3.19
  23  0.556  0.333  0.250-  52 2.42  76 2.42  65 2.42  78 2.42  80 2.42  82 2.42  22 3.19  25 3.19
                            29 3.19  42 3.19  32 3.19  43 3.19
  24  0.444  0.417  0.750-  90 2.42  87 2.42  84 2.42  89 2.42  81 2.42  83 2.42  26 3.19  39 3.19
                            31 3.19  41 3.19  33 3.19  44 3.19
  25  0.556  0.583  0.250-  59 2.42  80 2.42  61 2.42  82 2.42  86 2.42  88 2.42  23 3.19  27 3.19
                            32 3.19  40 3.19  34 3.19  42 3.19
  26  0.444  0.667  0.750-  69 2.42  92 2.42  68 2.42  55 2.42  87 2.42  89 2.42  24 3.19  28 3.19
                            33 3.19  45 3.19  35 3.19  41 3.19
  27  0.556  0.833  0.250-  63 2.42  86 2.42  75 2.42  88 2.42  67 2.42  66 2.42  22 3.19  25 3.19
                            34 3.19  38 3.19  37 3.19  40 3.19
  28  0.444  0.917  0.750-  71 2.42  77 2.42  73 2.42  79 2.42  92 2.42  55 2.42  26 3.19  39 3.19
                            35 3.19  36 3.19  30 3.19  45 3.19
  29  0.889  0.333  0.250-  91 2.42  46 2.42  85 2.42  48 2.42  52 2.42  65 2.42  32 3.19  37 3.19
                            23 3.19  42 3.19  22 3.19  40 3.19
  30  0.778  0.167  0.750-  77 2.42  53 2.42  79 2.42  56 2.42  47 2.42  49 2.42  31 3.19  35 3.19
                            39 3.19  44 3.19  28 3.19  41 3.19
  31  0.778  0.417  0.750-  81 2.42  60 2.42  83 2.42  62 2.42  53 2.42  56 2.42  30 3.19  33 3.19
                            24 3.19  41 3.19  39 3.19  45 3.19
  32  0.889  0.583  0.250-  74 2.42  52 2.42  54 2.42  65 2.42  59 2.42  61 2.42  29 3.19  34 3.19
                            25 3.19  40 3.19  23 3.19  38 3.19
  33  0.778  0.667  0.750-  87 2.42  64 2.42  89 2.42  93 2.42  60 2.42  62 2.42  31 3.19  35 3.19
                            26 3.19  45 3.19  24 3.19  36 3.19
  34  0.889  0.833  0.250-  70 2.42  59 2.42  72 2.42  61 2.42  63 2.42  75 2.42  32 3.19  37 3.19
                            27 3.19  38 3.19  25 3.19  43 3.19
  35  0.778  0.917  0.750-  92 2.42  47 2.42  55 2.42  49 2.42  64 2.42  93 2.42  30 3.19  33 3.19
                            28 3.19  36 3.19  26 3.19  44 3.19
  36  0.111  0.917  0.750-  64 2.42  57 2.42  93 2.42  50 2.42  71 2.42  73 2.42  44 3.19  45 3.19
                            28 3.19  35 3.19  33 3.19  39 3.19
  37  0.889  0.083  0.250-  58 2.42  63 2.42  51 2.42  75 2.42  46 2.42  48 2.42  29 3.19  34 3.19
                            22 3.19  43 3.19  27 3.19  42 3.19
  38  0.222  0.833  0.250-  67 2.42  74 2.42  66 2.42  54 2.42  70 2.42  72 2.42  40 3.19  43 3.19
                            27 3.19  34 3.19  32 3.19  22 3.19
  39  0.444  0.167  0.750-  57 2.42  81 2.42  50 2.42  83 2.42  77 2.42  79 2.42  24 3.19  28 3.19
                            30 3.19  44 3.19  31 3.19  36 3.19
  40  0.222  0.583  0.250-  86 2.42  91 2.42  88 2.42  85 2.42  74 2.42  54 2.42  38 3.19  42 3.19
                            25 3.19  32 3.19  29 3.19  27 3.19
  41  0.111  0.417  0.750-  53 2.42  69 2.42  56 2.42  68 2.42  90 2.42  84 2.42  44 3.19  45 3.19
                            24 3.19  31 3.19  30 3.19  26 3.19
  42  0.222  0.333  0.250-  80 2.42  58 2.42  82 2.42  51 2.42  91 2.42  85 2.42  40 3.19  43 3.19
                            23 3.19  29 3.19  25 3.19  37 3.19
  43  0.222  0.083  0.250-  76 2.42  70 2.42  78 2.42  72 2.42  58 2.42  51 2.42  38 3.19  42 3.19
                            22 3.19  37 3.19  34 3.19  23 3.19
  44  0.111  0.167  0.750-  47 2.42  90 2.42  49 2.42  84 2.42  57 2.42  50 2.42  36 3.19  41 3.19
                            39 3.19  30 3.19  35 3.19  24 3.19
  45  0.111  0.667  0.750-  60 2.42  71 2.42  62 2.42  73 2.42  69 2.42  68 2.42  36 3.19  41 3.19
                            26 3.19  33 3.19  31 3.19  28 3.19
  46  0.778  0.167  0.295-  22 2.42  29 2.42  37 2.42
  47  0.889  0.083  0.795-  44 2.42  35 2.42  30 2.42
  48  0.778  0.167  0.205-  22 2.42  29 2.42  37 2.42
  49  0.889  0.083  0.705-  44 2.42  35 2.42  30 2.42
  50  0.222  0.083  0.705-  39 2.42  36 2.42  44 2.42
  51  0.111  0.167  0.205-  37 2.42  42 2.42  43 2.42
  52  0.778  0.417  0.295-  23 2.42  32 2.42  29 2.42
  53  0.889  0.333  0.795-  41 2.42  30 2.42  31 2.42
  54  0.111  0.667  0.205-  32 2.42  38 2.42  40 2.42
  55  0.556  0.833  0.705-  35 2.42  26 2.42  28 2.42
  56  0.889  0.333  0.705-  41 2.42  30 2.42  31 2.42
  57  0.222  0.083  0.795-  39 2.42  36 2.42  44 2.42
  58  0.111  0.167  0.295-  37 2.42  42 2.42  43 2.42
  59  0.778  0.667  0.295-  25 2.42  34 2.42  32 2.42
  60  0.889  0.583  0.795-  45 2.42  31 2.42  33 2.42
  61  0.778  0.667  0.205-  25 2.42  34 2.42  32 2.42
  62  0.889  0.583  0.705-  45 2.42  31 2.42  33 2.42
  63  0.778  0.917  0.295-  27 2.42  37 2.42  34 2.42
  64  0.889  0.833  0.795-  36 2.42  33 2.42  35 2.42
  65  0.778  0.417  0.205-  23 2.42  32 2.42  29 2.42
  66  0.444  0.917  0.205-  38 2.42  22 2.42  27 2.42
  67  0.444  0.917  0.295-  38 2.42  22 2.42  27 2.42
  68  0.222  0.583  0.705-  26 2.42  41 2.42  45 2.42
  69  0.222  0.583  0.795-  26 2.42  41 2.42  45 2.42
  70  0.111  0.917  0.295-  34 2.42  43 2.42  38 2.42
  71  0.222  0.833  0.795-  28 2.42  45 2.42  36 2.42
  72  0.111  0.917  0.205-  34 2.42  43 2.42  38 2.42
  73  0.222  0.833  0.705-  28 2.42  45 2.42  36 2.42
  74  0.111  0.667  0.295-  32 2.42  38 2.42  40 2.42
  75  0.778  0.917  0.205-  27 2.42  37 2.42  34 2.42
  76  0.444  0.167  0.295-  43 2.42  23 2.42  22 2.42
  77  0.556  0.083  0.795-  30 2.42  28 2.42  39 2.42
  78  0.444  0.167  0.205-  43 2.42  23 2.42  22 2.42
  79  0.556  0.083  0.705-  30 2.42  28 2.42  39 2.42
  80  0.444  0.417  0.295-  42 2.42  25 2.42  23 2.42
  81  0.556  0.333  0.795-  31 2.42  39 2.42  24 2.42
  82  0.444  0.417  0.205-  42 2.42  25 2.42  23 2.42
  83  0.556  0.333  0.705-  31 2.42  39 2.42  24 2.42
  84  0.222  0.333  0.705-  24 2.42  44 2.42  41 2.42
  85  0.111  0.417  0.205-  29 2.42  40 2.42  42 2.42
  86  0.444  0.667  0.295-  40 2.42  27 2.42  25 2.42
  87  0.556  0.583  0.795-  33 2.42  24 2.42  26 2.42
  88  0.444  0.667  0.205-  40 2.42  27 2.42  25 2.42
  89  0.556  0.583  0.705-  33 2.42  24 2.42  26 2.42
  90  0.222  0.333  0.795-  24 2.42  44 2.42  41 2.42
  91  0.111  0.417  0.295-  29 2.42  40 2.42  42 2.42
  92  0.556  0.833  0.795-  35 2.42  26 2.42  28 2.42
  93  0.889  0.833  0.705-  36 2.42  33 2.42  35 2.42
 
  LATTYP: Found a simple monoclinic cell.
 ALAT       =    16.8815660915
 B/A-ratio  =     2.0661745669
 C/A-ratio  =     1.4759983605
 COS(beta)  =    -0.9678678488
  
  Lattice vectors:
  
 A1 = ( -12.7612648832, -11.0515787236,   0.0000000000)
 A2 = (   0.0000000000,   0.0000000000, -34.8802625070)
 A3 = (  22.3322113382,  11.0515787236,   0.0000000000)


Analysis of symmetry for initial positions (statically):
=====================================================================
 Subroutine PRICEL returns:
 Original cell was already a primitive cell.
 

 Routine SETGRP: Setting up the symmetry group for a 
 simple monoclinic supercell.


 Subroutine GETGRP returns: Found  1 space group operations
 (whereof  1 operations were pure point group operations)
 out of a pool of  4 trial point group operations.


The static configuration has the point symmetry C_1 .


Analysis of symmetry for dynamics (positions and initial velocities):
=====================================================================
 Subroutine PRICEL returns:
 Original cell was already a primitive cell.
 

 Routine SETGRP: Setting up the symmetry group for a 
 simple monoclinic supercell.


 Subroutine GETGRP returns: Found  1 space group operations
 (whereof  1 operations were pure point group operations)
 out of a pool of  4 trial point group operations.


The dynamic configuration has the point symmetry C_1 .


 Subroutine INISYM returns: Found  1 space group operations
 (whereof  1 operations are pure point group operations),
 and found     1 'primitive' translations

 
 
 KPOINTS: Gamma-point only                        
  k-points in reciprocal lattice
Space group operators:
 irot       det(A)        alpha          n_x          n_y          n_z        tau_x        tau_y        tau_z
    1     1.000000     0.000000     1.000000     0.000000     0.000000     0.000000     0.000000     0.000000


--------------------------------------------------------------------------------------------------------




 Dimension of arrays:
   k-points           NKPTS =      1   k-points in BZ     NKDIM =      1   number of bands    NBANDS=    300
   number of dos      NEDOS =    301   number of ions     NIONS =     93
   non local maximal  LDIM  =      6   non local SUM 2l+1 LMDIM =     18
   total plane-waves  NPLWV = ******
   max r-space proj   IRMAX =   6611   max aug-charges    IRDMAX=  22650
   dimension x,y,z NGX =    64 NGY =   84 NGZ =  240
   dimension x,y,z NGXF=   128 NGYF=  168 NGZF=  480
   support grid    NGXF=   128 NGYF=  168 NGZF=  480
   ions per type =              10   1  10  24  48
 NGX,Y,Z   is equivalent  to a cutoff of  11.12, 10.94, 11.44 a.u.
 NGXF,Y,Z  is equivalent  to a cutoff of  22.23, 21.89, 22.88 a.u.


 I would recommend the setting:
   dimension x,y,z NGX =    62 NGY =   83 NGZ =  228
 SYSTEM =  basalPlane                              
 POSCAR =   C Co  H Mo  S                          

 Startparameter for this run:
   NWRITE =      2    write-flag & timer
   PREC   = accura    normal or accurate (medium, high low for compatibility)
   ISTART =      0    job   : 0-new  1-cont  2-samecut
   ICHARG =      2    charge: 1-file 2-atom 10-const
   ISPIN  =      1    spin polarized calculation?
   LNONCOLLINEAR =      F non collinear calculations
   LSORBIT =      F    spin-orbit coupling
   INIWAV =      1    electr: 0-lowe 1-rand  2-diag
   LASPH  =      F    aspherical Exc in radial PAW
   METAGGA=      F    non-selfconsistent MetaGGA calc.

 Electronic Relaxation 1
   ENCUT  =  400.0 eV  29.40 Ry    5.42 a.u.  15.61 20.81 56.88*2*pi/ulx,y,z
   ENINI  =  400.0     initial cutoff
   ENAUG  =  645.0 eV  augmentation charge cutoff
   NELM   =    200;   NELMIN=  2; NELMDL= -5     # of ELM steps 
   EDIFF  = 0.1E-03   stopping-criterion for ELM
   LREAL  =      T    real-space projection
   NLSPLINE    = F    spline interpolate recip. space projectors
   LCOMPAT=      F    compatible to vasp.4.4
   GGA_COMPAT  = T    GGA compatible to vasp.4.4-vasp.4.6
   LMAXPAW     = -100 max onsite density
   LMAXMIX     =    2 max onsite mixed and CHGCAR
   VOSKOWN=      0    Vosko Wilk Nusair interpolation
   ROPT   =   -0.00025  -0.00025  -0.00025  -0.00025
   ROPT   =   -0.00025
 Ionic relaxation
   EDIFFG = -.2E-01   stopping-criterion for IOM
   NSW    =  10000    number of steps for IOM
   NBLOCK =      1;   KBLOCK =  10000    inner block; outer block 
   IBRION =      2    ionic relax: 0-MD 1-quasi-New 2-CG
   NFREE  =      1    steps in history (QN), initial steepest desc. (CG)
   ISIF   =      2    stress and relaxation
   IWAVPR =     11    prediction:  0-non 1-charg 2-wave 3-comb
   ISYM   =      2    0-nonsym 1-usesym 2-fastsym
   LCORR  =      T    Harris-Foulkes like correction to forces

   POTIM  = 0.5000    time-step for ionic-motion
   TEIN   =    0.0    initial temperature
   TEBEG  =    0.0;   TEEND  =   0.0 temperature during run
   SMASS  =  -3.00    Nose mass-parameter (am)
   estimated Nose-frequenzy (Omega)   =  0.10E-29 period in steps =****** mass=  -0.209E-26a.u.
   SCALEE = 1.0000    scale energy and forces
   NPACO  =    256;   APACO  = 16.0  distance and # of slots for P.C.
   PSTRESS=    0.0 pullay stress

  Mass of Ions in am
   POMASS =  12.01 58.93  1.00 95.94 32.07
  Ionic Valenz
   ZVAL   =   4.00  9.00  1.00  6.00  6.00
  Atomic Wigner-Seitz radii
   RWIGS  =  -1.00 -1.00 -1.00 -1.00 -1.00
  virtual crystal weights 
   VCA    =   1.00  1.00  1.00  1.00  1.00
   NELECT =     491.0000    total number of electrons
   NUPDOWN=      -1.0000    fix difference up-down

 DOS related values:
   EMIN   =  10.00;   EMAX   =-10.00  energy-range for DOS
   EFERMI =   0.00
   ISMEAR =     0;   SIGMA  =   0.10  broadening in eV -4-tet -1-fermi 0-gaus

 Electronic relaxation 2 (details)
   IALGO  =     38    algorithm
   LDIAG  =      T    sub-space diagonalisation (order eigenvalues)
   LSUBROT=      F    optimize rotation matrix (better conditioning)
   TURBO    =      0    0=normal 1=particle mesh
   IRESTART =      0    0=no restart 2=restart with 2 vectors
   NREBOOT  =      0    no. of reboots
   NMIN     =      0    reboot dimension
   EREF     =   0.00    reference energy to select bands
   IMIX   =      4    mixing-type and parameters
     AMIX     =   0.40;   BMIX     =  1.00
     AMIX_MAG =   1.60;   BMIX_MAG =  1.00
     AMIN     =   0.10
     WC   =   100.;   INIMIX=   1;  MIXPRE=   1;  MAXMIX= -45

 Intra band minimization:
   WEIMIN = 0.0010     energy-eigenvalue tresh-hold
   EBREAK =  0.83E-07  absolut break condition
   DEPER  =   0.30     relativ break condition  

   TIME   =   0.40     timestep for ELM

  volume/ion in A,a.u.               =      39.67       267.71
  Fermi-wavevector in a.u.,A,eV,Ry     =   0.835826  1.579481  9.505091  0.698604
  Thomas-Fermi vector in A             =   1.949448
 
 Write flags
   LWAVE  =      F    write WAVECAR
   LCHARG =      F    write CHGCAR
   LVTOT  =      F    write LOCPOT, total local potential
   LVHAR  =      F    write LOCPOT, Hartree potential only
   LELF   =      F    write electronic localiz. function (ELF)
   LORBIT =      0    0 simple, 1 ext, 2 COOP (PROOUT)


 Dipole corrections
   LMONO  =      F    monopole corrections only (constant potential shift)
   LDIPOL =      F    correct potential (dipole corrections)
   IDIPOL =      0    1-x, 2-y, 3-z, 4-all directions 
   EPSILON=  1.0000000 bulk dielectric constant

 Exchange correlation treatment:
   GGA     =    --    GGA type
   LEXCH   =     8    internal setting for exchange type
   VOSKOWN=      0    Vosko Wilk Nusair interpolation
   LHFCALC =     F    Hartree Fock is set to
   LHFONE  =     F    Hartree Fock one center treatment
   AEXX    =    0.0000 exact exchange contribution

 Linear response parameters
   LEPSILON=     F    determine dielectric tensor
   LRPA    =     F    only Hartree local field effects (RPA)
   LNABLA  =     F    use nabla operator in PAW spheres
   LVEL    =     F    velocity operator in full k-point grid
   LINTERFAST=   F  fast interpolation
   KINTER  =     0    interpolate to denser k-point grid
   CSHIFT  =0.1000    complex shift for real part using Kramers Kronig
   OMEGAMAX=  -1.0    maximum frequency
   DEG_THRESHOLD= 0.2000000E-02 threshold for treating states as degnerate
   RTIME   =    0.100 relaxation time in fs

 Orbital magnetization related:
   ORBITALMAG=     F  switch on orbital magnetization
   LCHIMAG   =     F  perturbation theory with respect to B field
   DQ        =  0.001000  dq finite difference perturbation B field



--------------------------------------------------------------------------------------------------------


 conjugate gradient relaxation of ions
 charge density and potential will be updated during run
 non-spin polarized calculation
 Variant of blocked Davidson
 Davidson routine will perform the subspace rotation
 perform sub-space diagonalisation
    after iterative eigenvector-optimisation
 modified Broyden-mixing scheme, WC =      100.0
 initial mixing is a Kerker type mixing with AMIX =  0.4000 and BMIX =      1.0000
 Hartree-type preconditioning will be used
 using additional bands           54
 real space projection scheme for non local part
 use partial core corrections
 calculate Harris-corrections to forces 
   (improved forces if not selfconsistent)
 use gradient corrections 
 use of overlap-Matrix (Vanderbilt PP)
 Gauss-broadening in eV      SIGMA  =   0.10


--------------------------------------------------------------------------------------------------------


  energy-cutoff  :      400.00
  volume of cell :     3689.43
      direct lattice vectors                 reciprocal lattice vectors
     9.570946455  0.000000000  0.000000000     0.104482875  0.060323179  0.000000000
    -6.380628027 11.051578724  0.000000000     0.000000000  0.090484810  0.000000000
     0.000000000  0.000000000 34.880262507     0.000000000  0.000000000  0.028669509

  length of vectors
     9.570946455 12.761261940 34.880262507     0.120646413  0.090484810  0.028669509


 
 k-points in units of 2pi/SCALE and weight: Gamma-point only                        
   0.00000000  0.00000000  0.00000000       1.000
 
 k-points in reciprocal lattice and weights: Gamma-point only                        
   0.00000000  0.00000000  0.00000000       1.000
 
 position of ions in fractional coordinates (direct lattice) 
   0.90803117  0.46963347  0.00561251
   0.97924403  0.52315725  0.04168788
   0.93250973  0.56484984  0.97990743
   0.01936954  0.67727922  0.00007068
   0.04801989  0.65149448  0.03825689
   0.59876212  0.46699365  0.06245558
   0.68717047  0.66295648  0.04183885
   0.68394796  0.59149929  0.07383535
   0.60441874  0.58261970  0.01063455
   0.54966999  0.46150101  0.02340691
   0.80072041  0.56484515  0.02760480
   0.10833701  0.71774883  0.06087551
   0.73920545  0.62581530  0.10167072
   0.58813110  0.60906992  0.98208308
   0.74571165  0.76112785  0.04111988
   0.57803020  0.39026039  0.08009248
   0.97827901  0.47465956  0.06741341
   0.84362750  0.37337398  0.99917266
   0.89025681  0.55350090  0.95043938
   0.05426462  0.76641778  0.98872456
   0.48498718  0.37986879  0.00624254
   0.55555566  0.08333325  0.25000928
   0.55555566  0.33333325  0.25000928
   0.44444432  0.41666674  0.74999076
   0.55555566  0.58333325  0.25000928
   0.44444432  0.66666674  0.74999076
   0.55555566  0.83333325  0.25000928
   0.44444432  0.91666674  0.74999076
   0.88888899  0.33333325  0.25000928
   0.77777765  0.16666674  0.74999076
   0.77777765  0.41666674  0.74999076
   0.88888899  0.58333325  0.25000928
   0.77777765  0.66666674  0.74999076
   0.88888899  0.83333325  0.25000928
   0.77777765  0.91666674  0.74999076
   0.11111099  0.91666674  0.74999076
   0.88888899  0.08333325  0.25000928
   0.22222233  0.83333325  0.25000928
   0.44444432  0.16666674  0.74999076
   0.22222233  0.58333325  0.25000928
   0.11111099  0.41666674  0.74999076
   0.22222233  0.33333325  0.25000928
   0.22222233  0.08333325  0.25000928
   0.11111099  0.16666674  0.74999076
   0.11111099  0.66666674  0.74999076
   0.77777765  0.16666674  0.29487388
   0.88888899  0.08333325  0.79485533
   0.77777765  0.16666674  0.20514467
   0.88888899  0.08333325  0.70512613
   0.22222233  0.08333325  0.70512613
   0.11111099  0.16666674  0.20514467
   0.77777765  0.41666674  0.29487388
   0.88888899  0.33333325  0.79485533
   0.11111099  0.66666674  0.20514467
   0.55555566  0.83333325  0.70512613
   0.88888899  0.33333325  0.70512613
   0.22222233  0.08333325  0.79485533
   0.11111099  0.16666674  0.29487388
   0.77777765  0.66666674  0.29487388
   0.88888899  0.58333325  0.79485533
   0.77777765  0.66666674  0.20514467
   0.88888899  0.58333325  0.70512613
   0.77777765  0.91666674  0.29487388
   0.88888899  0.83333325  0.79485533
   0.77777765  0.41666674  0.20514467
   0.44444432  0.91666674  0.20514467
   0.44444432  0.91666674  0.29487388
   0.22222233  0.58333325  0.70512613
   0.22222233  0.58333325  0.79485533
   0.11111099  0.91666674  0.29487388
   0.22222233  0.83333325  0.79485533
   0.11111099  0.91666674  0.20514467
   0.22222233  0.83333325  0.70512613
   0.11111099  0.66666674  0.29487388
   0.77777765  0.91666674  0.20514467
   0.44444432  0.16666674  0.29487388
   0.55555566  0.08333325  0.79485533
   0.44444432  0.16666674  0.20514467
   0.55555566  0.08333325  0.70512613
   0.44444432  0.41666674  0.29487388
   0.55555566  0.33333325  0.79485533
   0.44444432  0.41666674  0.20514467
   0.55555566  0.33333325  0.70512613
   0.22222233  0.33333325  0.70512613
   0.11111099  0.41666674  0.20514467
   0.44444432  0.66666674  0.29487388
   0.55555566  0.58333325  0.79485533
   0.44444432  0.66666674  0.20514467
   0.55555566  0.58333325  0.70512613
   0.22222233  0.33333325  0.79485533
   0.11111099  0.41666674  0.29487388
   0.55555566  0.83333325  0.79485533
   0.88888899  0.83333325  0.70512613
 
 position of ions in cartesian coordinates  (Angst):
   5.69416120  5.19019130  0.19576570
   6.03422032  5.78171358  1.45408416
   5.32090395  6.24248250 34.17942846
  -4.13608191  7.48500459  0.00246522
  -3.69734818  7.20004258  1.33441027
   2.75100742  5.16101713  2.17846707
   2.34679307  7.32671575  1.45935009
   2.77189237  6.53700093  2.57539645
   2.06737987  6.43886746  0.37093593
   2.31619575  5.10031472  0.81643912
   4.05958531  6.24243069  0.96286258
  -3.54280060  7.93225769  2.12335368
   3.08180113  6.91624711  3.54630150
   1.74272267  6.73118414 34.25531549
   2.28069256  8.41166432  1.43427222
   3.04218974  4.31299342  2.79364662
   6.33442987  5.24573755  2.35139740
   5.69195316  4.12637192 34.85140469
   4.98891694  6.11705876 33.15157520
  -4.37086299  8.47012644 34.48697222
   2.21798489  4.19814979  0.21774137
   4.78547502  0.92096394  8.72038942
   3.19031801  3.68385862  8.72038942
   1.59515729  4.60482531 26.15987450
   1.59516100  6.44675330  8.72038942
   0.00000028  7.36771999 26.15987450
   0.00000400  9.20964798  8.72038942
  -1.59515673 10.13061467 26.15987450
   6.38063349  3.68385862  8.72038942
   6.38062978  1.84193063 26.15987450
   4.78547277  4.60482531 26.15987450
   4.78547649  6.44675330  8.72038942
   3.19031576  7.36771999 26.15987450
   3.19031948  9.20964798  8.72038942
   1.59515876 10.13061467 26.15987450
  -4.78547221 10.13061467 26.15987450
   7.97579050  0.92096394  8.72038942
  -3.19031149  9.20964798  8.72038942
   3.19031429  1.84193063 26.15987450
  -1.59515448  6.44675330  8.72038942
  -1.59515820  4.60482531 26.15987450
   0.00000252  3.68385862  8.72038942
   1.59515953  0.92096394  8.72038942
  -0.00000119  1.84193063 26.15987450
  -3.19031521  7.36771999 26.15987450
   6.38062978  1.84193063 10.28527839
   7.97579050  0.92096394 27.72476251
   6.38062978  1.84193063  7.15550000
   7.97579050  0.92096394 24.59498459
   1.59515953  0.92096394 24.59498459
  -0.00000119  1.84193063  7.15550000
   4.78547277  4.60482531 10.28527839
   6.38063349  3.68385862 27.72476251
  -3.19031521  7.36771999  7.15550000
   0.00000400  9.20964798 24.59498459
   6.38063349  3.68385862 24.59498459
   1.59515953  0.92096394 27.72476251
  -0.00000119  1.84193063 10.28527839
   3.19031576  7.36771999 10.28527839
   4.78547649  6.44675330 27.72476251
   3.19031576  7.36771999  7.15550000
   4.78547649  6.44675330 24.59498459
   1.59515876 10.13061467 10.28527839
   3.19031948  9.20964798 27.72476251
   4.78547277  4.60482531  7.15550000
  -1.59515673 10.13061467  7.15550000
  -1.59515673 10.13061467 10.28527839
  -1.59515448  6.44675330 24.59498459
  -1.59515448  6.44675330 27.72476251
  -4.78547221 10.13061467 10.28527839
  -3.19031149  9.20964798 27.72476251
  -4.78547221 10.13061467  7.15550000
  -3.19031149  9.20964798 24.59498459
  -3.19031521  7.36771999 10.28527839
   1.59515876 10.13061467  7.15550000
   3.19031429  1.84193063 10.28527839
   4.78547502  0.92096394 27.72476251
   3.19031429  1.84193063  7.15550000
   4.78547502  0.92096394 24.59498459
   1.59515729  4.60482531 10.28527839
   3.19031801  3.68385862 27.72476251
   1.59515729  4.60482531  7.15550000
   3.19031801  3.68385862 24.59498459
   0.00000252  3.68385862 24.59498459
  -1.59515820  4.60482531  7.15550000
   0.00000028  7.36771999 10.28527839
   1.59516100  6.44675330 27.72476251
   0.00000028  7.36771999  7.15550000
   1.59516100  6.44675330 24.59498459
   0.00000252  3.68385862 27.72476251
  -1.59515820  4.60482531 10.28527839
   0.00000400  9.20964798 27.72476251
   3.19031948  9.20964798 24.59498459
 


--------------------------------------------------------------------------------------------------------


 use parallel FFT for wavefunctions z direction half grid
 k-point  1 :   0.0000 0.0000 0.0000  plane waves:   33544

 maximum and minimum number of plane-waves per node :     11182    11180

 maximum number of plane-waves:     33544
 maximum index in each direction: 
   IXMAX=   15   IYMAX=   20   IZMAX=   56
   IXMIN=  -15   IYMIN=  -20   IZMIN=    0

 NGX is ok and might be reduce to  62
 NGY is ok and might be reduce to  82
 NGZ is ok and might be reduce to 226

 real space projection operators:
  total allocation   :      38859.43 KBytes
  max/ min on nodes  :      13337.43      12755.70


 parallel 3D FFT for wavefunctions:
    minimum data exchange during FFTs selected (reduces bandwidth)
 parallel 3D FFT for charge:
    minimum data exchange during FFTs selected (reduces bandwidth)


 total amount of memory used by VASP on root node   114612. kBytes
========================================================================

   base      :      30000. kBytes
   nonlr-proj:      16389. kBytes
   fftplans  :      19781. kBytes
   grid      :      43661. kBytes
   one-center:        241. kBytes
   wavefun   :       4540. kBytes
 
     INWAV:  cpu time    0.0000: real time    0.0002
 Broyden mixing: mesh for mixing (old mesh)
   NGX = 31   NGY = 41   NGZ =113
  (NGX  =128   NGY  =168   NGZ  =480)
  gives a total of 143623 points

 initial charge density was supplied:
 charge density of overlapping atoms calculated
 number of electron     491.0000000 magnetization 
 keeping initial charge density in first step


--------------------------------------------------------------------------------------------------------


 Maximum index for non-local projection operator         2301
 Maximum index for augmentation-charges         1165 (set IRDMAX)


--------------------------------------------------------------------------------------------------------


 First call to EWALD:  gamma=   0.115
 Maximum number of real-space cells 5x 4x 1
 Maximum number of reciprocal cells 2x 2x 6

 FEWALD executed in parallel
    FEWALD:  cpu time    0.0039: real time    0.0039


----------------------------------------- Iteration    1(   1)  ---------------------------------------


    POTLOK:  cpu time    0.3869: real time    0.3880
    SETDIJ:  cpu time    0.0125: real time    0.0129
     EDDAV:  cpu time    5.2676: real time    5.2814
       DOS:  cpu time    0.0009: real time    0.0009
    --------------------------------------------
      LOOP:  cpu time    5.6729: real time    5.6930

 eigenvalue-minimisations  :   600
 total energy-change (2. order) : 0.4403877E+04  (-0.1814821E+05)
 number of electron     491.0000000 magnetization 
 augmentation part      491.0000000 magnetization 

 Free energy of the ion-electron system (eV)
  ---------------------------------------------------
  alpha Z        PSCENC =       562.94535741
  Ewald energy   TEWEN  =     37881.41240977
  -Hartree energ DENC   =    -57297.76618608
  -exchange      EXHF   =         0.00000000
  -V(xc)+E(xc)   XCENC  =      -701.07591332
  PAW double counting   =     18640.80374730   -16838.49265242
  entropy T*S    EENTRO =        -0.15059362
  eigenvalues    EBANDS =      1239.13814267
  atomic energy  EATOM  =     20917.06298232
  Solvation  Ediel_sol  =         0.00000000
  ---------------------------------------------------
  free energy    TOTEN  =      4403.87729404 eV

  energy without entropy =     4404.02788766  energy(sigma->0) =     4403.95259085


--------------------------------------------------------------------------------------------------------




----------------------------------------- Iteration    1(   2)  ---------------------------------------


     EDDAV:  cpu time    7.8284: real time    7.8498
       DOS:  cpu time    0.0008: real time    0.0008
    --------------------------------------------
      LOOP:  cpu time    7.8300: real time    7.8533

 eigenvalue-minimisations  :   996
 total energy-change (2. order) :-0.4409495E+04  (-0.4248052E+04)
 number of electron     491.0000000 magnetization 
 augmentation part      491.0000000 magnetization 

 Free energy of the ion-electron system (eV)
  ---------------------------------------------------
  alpha Z        PSCENC =       562.94535741
  Ewald energy   TEWEN  =     37881.41240977
  -Hartree energ DENC   =    -57297.76618608
  -exchange      EXHF   =         0.00000000
  -V(xc)+E(xc)   XCENC  =      -701.07591332
  PAW double counting   =     18640.80374730   -16838.49265242
  entropy T*S    EENTRO =        -0.06364904
  eigenvalues    EBANDS =     -3170.44391498
  atomic energy  EATOM  =     20917.06298232
  Solvation  Ediel_sol  =         0.00000000
  ---------------------------------------------------
  free energy    TOTEN  =        -5.61781903 eV

  energy without entropy =       -5.55416999  energy(sigma->0) =       -5.58599451


--------------------------------------------------------------------------------------------------------




----------------------------------------- Iteration    1(   3)  ---------------------------------------


     EDDAV:  cpu time    6.0003: real time    6.0337
       DOS:  cpu time    0.0034: real time    0.0035
    --------------------------------------------
      LOOP:  cpu time    6.0045: real time    6.0401

 eigenvalue-minimisations  :   720
 total energy-change (2. order) :-0.6712233E+03  (-0.6630972E+03)
 number of electron     491.0000000 magnetization 
 augmentation part      491.0000000 magnetization 

 Free energy of the ion-electron system (eV)
  ---------------------------------------------------
  alpha Z        PSCENC =       562.94535741
  Ewald energy   TEWEN  =     37881.41240977
  -Hartree energ DENC   =    -57297.76618608
  -exchange      EXHF   =         0.00000000
  -V(xc)+E(xc)   XCENC  =      -701.07591332
  PAW double counting   =     18640.80374730   -16838.49265242
  entropy T*S    EENTRO =        -0.08969484
  eigenvalues    EBANDS =     -3841.64115961
  atomic energy  EATOM  =     20917.06298232
  Solvation  Ediel_sol  =         0.00000000
  ---------------------------------------------------
  free energy    TOTEN  =      -676.84110946 eV

  energy without entropy =     -676.75141462  energy(sigma->0) =     -676.79626204


--------------------------------------------------------------------------------------------------------




----------------------------------------- Iteration    1(   4)  ---------------------------------------


     EDDAV:  cpu time    6.6842: real time    6.7034
       DOS:  cpu time    0.0007: real time    0.0007
    --------------------------------------------
      LOOP:  cpu time    6.6856: real time    6.7070

 eigenvalue-minimisations  :   828
 total energy-change (2. order) :-0.3284578E+02  (-0.3266965E+02)
 number of electron     491.0000000 magnetization 
 augmentation part      491.0000000 magnetization 

 Free energy of the ion-electron system (eV)
  ---------------------------------------------------
  alpha Z        PSCENC =       562.94535741
  Ewald energy   TEWEN  =     37881.41240977
  -Hartree energ DENC   =    -57297.76618608
  -exchange      EXHF   =         0.00000000
  -V(xc)+E(xc)   XCENC  =      -701.07591332
  PAW double counting   =     18640.80374730   -16838.49265242
  entropy T*S    EENTRO =        -0.08985163
  eigenvalues    EBANDS =     -3874.48678416
  atomic energy  EATOM  =     20917.06298232
  Solvation  Ediel_sol  =         0.00000000
  ---------------------------------------------------
  free energy    TOTEN  =      -709.68689080 eV

  energy without entropy =     -709.59703917  energy(sigma->0) =     -709.64196498


--------------------------------------------------------------------------------------------------------




----------------------------------------- Iteration    1(   5)  ---------------------------------------


     EDDAV:  cpu time    7.0236: real time    7.0421
       DOS:  cpu time    0.0007: real time    0.0007
    CHARGE:  cpu time    0.5765: real time    0.5779
    MIXING:  cpu time    0.0120: real time    0.0122
    --------------------------------------------
      LOOP:  cpu time    7.6136: real time    7.6373

 eigenvalue-minimisations  :   876
 total energy-change (2. order) :-0.1132903E+01  (-0.1127184E+01)
 number of electron     491.0000086 magnetization 
 augmentation part      -17.4428318 magnetization 

 Broyden mixing:
  rms(total) = 0.12243E+02    rms(broyden)= 0.12243E+02
  rms(prec ) = 0.12310E+02
  weight for this iteration     100.00

 Free energy of the ion-electron system (eV)
  ---------------------------------------------------
  alpha Z        PSCENC =       562.94535741
  Ewald energy   TEWEN  =     37881.41240977
  -Hartree energ DENC   =    -57297.76618608
  -exchange      EXHF   =         0.00000000
  -V(xc)+E(xc)   XCENC  =      -701.07591332
  PAW double counting   =     18640.80374730   -16838.49265242
  entropy T*S    EENTRO =        -0.09361712
  eigenvalues    EBANDS =     -3875.61592207
  atomic energy  EATOM  =     20917.06298232
  Solvation  Ediel_sol  =         0.00000000
  ---------------------------------------------------
  free energy    TOTEN  =      -710.81979420 eV

  energy without entropy =     -710.72617709  energy(sigma->0) =     -710.77298565


--------------------------------------------------------------------------------------------------------




----------------------------------------- Iteration    1(   6)  ---------------------------------------


    POTLOK:  cpu time    0.3677: real time    0.3687
    SETDIJ:  cpu time    0.0105: real time    0.0105
     EDDAV:  cpu time    6.4592: real time    6.4777
       DOS:  cpu time    0.0008: real time    0.0008
    CHARGE:  cpu time    0.5515: real time    0.5528
    MIXING:  cpu time    0.0120: real time    0.0121
    --------------------------------------------
      LOOP:  cpu time    7.4025: real time    7.4254

 eigenvalue-minimisations  :   792
 total energy-change (2. order) : 0.2018106E+02  (-0.5714243E+02)
 number of electron     491.0000074 magnetization 
 augmentation part       -0.0769221 magnetization 

 Broyden mixing:
  rms(total) = 0.76579E+01    rms(broyden)= 0.76577E+01
  rms(prec ) = 0.77446E+01
  weight for this iteration     100.00

 eigenvalues of (default mixing * dielectric matrix)
  average eigenvalue GAMMA=   0.8597
  0.8597

 Free energy of the ion-electron system (eV)
  ---------------------------------------------------
  alpha Z        PSCENC =       562.94535741
  Ewald energy   TEWEN  =     37881.41240977
  -Hartree energ DENC   =    -57309.07056162
  -exchange      EXHF   =         0.00000000
  -V(xc)+E(xc)   XCENC  =      -676.83939988
  PAW double counting   =     26753.40090647   -24958.33616629
  entropy T*S    EENTRO =        -0.18421484
  eigenvalues    EBANDS =     -3861.03004983
  atomic energy  EATOM  =     20917.06298232
  Solvation  Ediel_sol  =         0.00000000
  ---------------------------------------------------
  free energy    TOTEN  =      -690.63873648 eV

  energy without entropy =     -690.45452164  energy(sigma->0) =     -690.54662906


--------------------------------------------------------------------------------------------------------




----------------------------------------- Iteration    1(   7)  ---------------------------------------


    POTLOK:  cpu time    0.3866: real time    0.4051
    SETDIJ:  cpu time    0.0123: real time    0.0138
     EDDAV:  cpu time    6.4456: real time    6.4664
       DOS:  cpu time    0.0008: real time    0.0008
    CHARGE:  cpu time    0.6022: real time    0.6038
    MIXING:  cpu time    0.0120: real time    0.0120
    --------------------------------------------
      LOOP:  cpu time    7.4604: real time    7.5049

 eigenvalue-minimisations  :   780
 total energy-change (2. order) :-0.2061519E+02  (-0.3114669E+02)
 number of electron     491.0000078 magnetization 
 augmentation part      -11.3166314 magnetization 

 Broyden mixing:
  rms(total) = 0.63585E+01    rms(broyden)= 0.63584E+01
  rms(prec ) = 0.67307E+01
  weight for this iteration     100.00

 eigenvalues of (default mixing * dielectric matrix)
  average eigenvalue GAMMA=   0.9811
  1.5300  0.4323

 Free energy of the ion-electron system (eV)
  ---------------------------------------------------
  alpha Z        PSCENC =       562.94535741
  Ewald energy   TEWEN  =     37881.41240977
  -Hartree energ DENC   =    -57553.81757138
  -exchange      EXHF   =         0.00000000
  -V(xc)+E(xc)   XCENC  =      -676.63168552
  PAW double counting   =     32873.97902076   -31118.13783838
  entropy T*S    EENTRO =        -0.27171680
  eigenvalues    EBANDS =     -3597.79488141
  atomic energy  EATOM  =     20917.06298232
  Solvation  Ediel_sol  =         0.00000000
  ---------------------------------------------------
  free energy    TOTEN  =      -711.25392322 eV

  energy without entropy =     -710.98220642  energy(sigma->0) =     -711.11806482


--------------------------------------------------------------------------------------------------------




----------------------------------------- Iteration    1(   8)  ---------------------------------------


    POTLOK:  cpu time    0.3663: real time    0.3672
    SETDIJ:  cpu time    0.0104: real time    0.0104
     EDDAV:  cpu time    6.6247: real time    6.6434
       DOS:  cpu time    0.0009: real time    0.0009
    CHARGE:  cpu time    0.5816: real time    0.5829
    MIXING:  cpu time    0.0123: real time    0.0123
    --------------------------------------------
      LOOP:  cpu time    7.5969: real time    7.6219

 eigenvalue-minimisations  :   816
 total energy-change (2. order) :-0.5589113E+01  (-0.2255663E+02)
 number of electron     491.0000074 magnetization 
 augmentation part       -7.8518055 magnetization 

 Broyden mixing:
  rms(total) = 0.60274E+01    rms(broyden)= 0.60273E+01
  rms(prec ) = 0.64837E+01
  weight for this iteration     100.00

 eigenvalues of (default mixing * dielectric matrix)
  average eigenvalue GAMMA=   1.0007
  2.1055  0.6168  0.2798

 Free energy of the ion-electron system (eV)
  ---------------------------------------------------
  alpha Z        PSCENC =       562.94535741
  Ewald energy   TEWEN  =     37881.41240977
  -Hartree energ DENC   =    -57549.75265780
  -exchange      EXHF   =         0.00000000
  -V(xc)+E(xc)   XCENC  =      -677.31193595
  PAW double counting   =     38516.20714968   -36739.74820317
  entropy T*S    EENTRO =        -0.31194813
  eigenvalues    EBANDS =     -3627.34619032
  atomic energy  EATOM  =     20917.06298232
  Solvation  Ediel_sol  =         0.00000000
  ---------------------------------------------------
  free energy    TOTEN  =      -716.84303619 eV

  energy without entropy =     -716.53108806  energy(sigma->0) =     -716.68706212


--------------------------------------------------------------------------------------------------------




----------------------------------------- Iteration    1(   9)  ---------------------------------------


    POTLOK:  cpu time    0.3677: real time    0.3687
    SETDIJ:  cpu time    0.0107: real time    0.0107
     EDDAV:  cpu time    6.2030: real time    6.2190
       DOS:  cpu time    0.0008: real time    0.0008
    CHARGE:  cpu time    0.5729: real time    0.5743
    MIXING:  cpu time    0.0125: real time    0.0125
    --------------------------------------------
      LOOP:  cpu time    7.1683: real time    7.1900

 eigenvalue-minimisations  :   756
 total energy-change (2. order) : 0.1180544E+02  (-0.3110422E+02)
 number of electron     491.0000074 magnetization 
 augmentation part       -5.5712645 magnetization 

 Broyden mixing:
  rms(total) = 0.43365E+01    rms(broyden)= 0.43364E+01
  rms(prec ) = 0.56640E+01
  weight for this iteration     100.00

 eigenvalues of (default mixing * dielectric matrix)
  average eigenvalue GAMMA=   0.8896
  2.2818  0.6282  0.3242  0.3242

 Free energy of the ion-electron system (eV)
  ---------------------------------------------------
  alpha Z        PSCENC =       562.94535741
  Ewald energy   TEWEN  =     37881.41240977
  -Hartree energ DENC   =    -57607.14601494
  -exchange      EXHF   =         0.00000000
  -V(xc)+E(xc)   XCENC  =      -670.28625722
  PAW double counting   =     42587.83811446   -40824.87353188
  entropy T*S    EENTRO =        -0.48865999
  eigenvalues    EBANDS =     -3551.50199737
  atomic energy  EATOM  =     20917.06298232
  Solvation  Ediel_sol  =         0.00000000
  ---------------------------------------------------
  free energy    TOTEN  =      -705.03759744 eV

  energy without entropy =     -704.54893745  energy(sigma->0) =     -704.79326744


--------------------------------------------------------------------------------------------------------




----------------------------------------- Iteration    1(  10)  ---------------------------------------


    POTLOK:  cpu time    0.3667: real time    0.3676
    SETDIJ:  cpu time    0.0102: real time    0.0102
     EDDAV:  cpu time    6.6090: real time    6.6278
       DOS:  cpu time    0.0010: real time    0.0010
    CHARGE:  cpu time    0.5740: real time    0.5755
    MIXING:  cpu time    0.0127: real time    0.0127
    --------------------------------------------
      LOOP:  cpu time    7.5743: real time    7.5979

 eigenvalue-minimisations  :   816
 total energy-change (2. order) : 0.1732179E+02  (-0.4972230E+02)
 number of electron     491.0000074 magnetization 
 augmentation part       -4.7051337 magnetization 

 Broyden mixing:
  rms(total) = 0.32051E+01    rms(broyden)= 0.32049E+01
  rms(prec ) = 0.42977E+01
  weight for this iteration     100.00

 eigenvalues of (default mixing * dielectric matrix)
  average eigenvalue GAMMA=   0.7880
  2.2707  0.5509  0.5509  0.4109  0.1568

 Free energy of the ion-electron system (eV)
  ---------------------------------------------------
  alpha Z        PSCENC =       562.94535741
  Ewald energy   TEWEN  =     37881.41240977
  -Hartree energ DENC   =    -57611.76839002
  -exchange      EXHF   =         0.00000000
  -V(xc)+E(xc)   XCENC  =      -667.80659629
  PAW double counting   =     43999.91051779   -42244.08659019
  entropy T*S    EENTRO =        -0.47525970
  eigenvalues    EBANDS =     -3524.91023543
  atomic energy  EATOM  =     20917.06298232
  Solvation  Ediel_sol  =         0.00000000
  ---------------------------------------------------
  free energy    TOTEN  =      -687.71580433 eV

  energy without entropy =     -687.24054463  energy(sigma->0) =     -687.47817448


--------------------------------------------------------------------------------------------------------




----------------------------------------- Iteration    1(  11)  ---------------------------------------


    POTLOK:  cpu time    0.3668: real time    0.3676
    SETDIJ:  cpu time    0.0101: real time    0.0101
     EDDAV:  cpu time    6.4556: real time    6.4723
       DOS:  cpu time    0.0008: real time    0.0008
    CHARGE:  cpu time    0.5493: real time    0.5507
    MIXING:  cpu time    0.0129: real time    0.0130
    --------------------------------------------
      LOOP:  cpu time    7.3965: real time    7.4179

 eigenvalue-minimisations  :   792
 total energy-change (2. order) : 0.2746137E+02  (-0.7191431E+01)
 number of electron     491.0000075 magnetization 
 augmentation part       -6.0797092 magnetization 

 Broyden mixing:
  rms(total) = 0.27409E+01    rms(broyden)= 0.27406E+01
  rms(prec ) = 0.27856E+01
  weight for this iteration     100.00

 eigenvalues of (default mixing * dielectric matrix)
  average eigenvalue GAMMA=   0.6719
  2.1622  0.5701  0.4259  0.4259  0.2911  0.1563

 Free energy of the ion-electron system (eV)
  ---------------------------------------------------
  alpha Z        PSCENC =       562.94535741
  Ewald energy   TEWEN  =     37881.41240977
  -Hartree energ DENC   =    -57656.27852882
  -exchange      EXHF   =         0.00000000
  -V(xc)+E(xc)   XCENC  =      -667.33160673
  PAW double counting   =     44260.33243408   -42510.53598597
  entropy T*S    EENTRO =        -0.08952992
  eigenvalues    EBANDS =     -3447.77196683
  atomic energy  EATOM  =     20917.06298232
  Solvation  Ediel_sol  =         0.00000000
  ---------------------------------------------------
  free energy    TOTEN  =      -660.25443468 eV

  energy without entropy =     -660.16490476  energy(sigma->0) =     -660.20966972


--------------------------------------------------------------------------------------------------------




----------------------------------------- Iteration    1(  12)  ---------------------------------------


    POTLOK:  cpu time    0.3659: real time    0.3667
    SETDIJ:  cpu time    0.0104: real time    0.0104
     EDDAV:  cpu time    6.7555: real time    6.7752
       DOS:  cpu time    0.0009: real time    0.0009
    CHARGE:  cpu time    0.5498: real time    0.5511
    MIXING:  cpu time    0.0132: real time    0.0132
    --------------------------------------------
      LOOP:  cpu time    7.6965: real time    7.7202

 eigenvalue-minimisations  :   840
 total energy-change (2. order) : 0.2326429E+00  (-0.7703452E+00)
 number of electron     491.0000076 magnetization 
 augmentation part       -6.3787081 magnetization 

 Broyden mixing:
  rms(total) = 0.24687E+01    rms(broyden)= 0.24687E+01
  rms(prec ) = 0.25056E+01
  weight for this iteration     100.00

 eigenvalues of (default mixing * dielectric matrix)
  average eigenvalue GAMMA=   0.6704
  2.1295  0.4941  0.4941  0.5227  0.5227  0.3733  0.1562

 Free energy of the ion-electron system (eV)
  ---------------------------------------------------
  alpha Z        PSCENC =       562.94535741
  Ewald energy   TEWEN  =     37881.41240977
  -Hartree energ DENC   =    -57652.20332374
  -exchange      EXHF   =         0.00000000
  -V(xc)+E(xc)   XCENC  =      -667.69788107
  PAW double counting   =     43791.04330484   -42040.38681273
  entropy T*S    EENTRO =        -0.08989111
  eigenvalues    EBANDS =     -3452.10793747
  atomic energy  EATOM  =     20917.06298232
  Solvation  Ediel_sol  =         0.00000000
  ---------------------------------------------------
  free energy    TOTEN  =      -660.02179178 eV

  energy without entropy =     -659.93190067  energy(sigma->0) =     -659.97684622


--------------------------------------------------------------------------------------------------------




----------------------------------------- Iteration    1(  13)  ---------------------------------------


    POTLOK:  cpu time    0.3654: real time    0.3667
    SETDIJ:  cpu time    0.0103: real time    0.0104
     EDDAV:  cpu time    7.0864: real time    7.1050
       DOS:  cpu time    0.0009: real time    0.0009
    CHARGE:  cpu time    0.5468: real time    0.5481
    MIXING:  cpu time    0.0132: real time    0.0133
    --------------------------------------------
      LOOP:  cpu time    8.0239: real time    8.0472

 eigenvalue-minimisations  :   888
 total energy-change (2. order) : 0.2536724E+00  (-0.5696201E-01)
 number of electron     491.0000076 magnetization 
 augmentation part       -6.3945794 magnetization 

 Broyden mixing:
  rms(total) = 0.22545E+01    rms(broyden)= 0.22545E+01
  rms(prec ) = 0.22921E+01
  weight for this iteration     100.00

 eigenvalues of (default mixing * dielectric matrix)
  average eigenvalue GAMMA=   0.6951
  2.1010  0.7306  0.7306  0.5300  0.4907  0.4907  0.3307  0.1567

 Free energy of the ion-electron system (eV)
  ---------------------------------------------------
  alpha Z        PSCENC =       562.94535741
  Ewald energy   TEWEN  =     37881.41240977
  -Hartree energ DENC   =    -57654.73587104
  -exchange      EXHF   =         0.00000000
  -V(xc)+E(xc)   XCENC  =      -667.69270384
  PAW double counting   =     43440.14027301   -41688.28007674
  entropy T*S    EENTRO =        -0.09767176
  eigenvalues    EBANDS =     -3450.52281853
  atomic energy  EATOM  =     20917.06298232
  Solvation  Ediel_sol  =         0.00000000
  ---------------------------------------------------
  free energy    TOTEN  =      -659.76811939 eV

  energy without entropy =     -659.67044763  energy(sigma->0) =     -659.71928351


--------------------------------------------------------------------------------------------------------




----------------------------------------- Iteration    1(  14)  ---------------------------------------


    POTLOK:  cpu time    0.3644: real time    0.3664
    SETDIJ:  cpu time    0.0105: real time    0.0105
     EDDAV:  cpu time    6.8654: real time    6.9037
       DOS:  cpu time    0.0014: real time    0.0014
    CHARGE:  cpu time    0.5392: real time    0.5465
    MIXING:  cpu time    0.0140: real time    0.0140
    --------------------------------------------
      LOOP:  cpu time    7.7958: real time    7.8455

 eigenvalue-minimisations  :   852
 total energy-change (2. order) : 0.4874562E+00  (-0.1370788E-01)
 number of electron     491.0000076 magnetization 
 augmentation part       -6.3802675 magnetization 

 Broyden mixing:
  rms(total) = 0.19170E+01    rms(broyden)= 0.19170E+01
  rms(prec ) = 0.19624E+01
  weight for this iteration     100.00

 eigenvalues of (default mixing * dielectric matrix)
  average eigenvalue GAMMA=   0.8064
  2.0209  1.2863  1.2863  0.5668  0.5668  0.5499  0.4685  0.3552  0.1565

 Free energy of the ion-electron system (eV)
  ---------------------------------------------------
  alpha Z        PSCENC =       562.94535741
  Ewald energy   TEWEN  =     37881.41240977
  -Hartree energ DENC   =    -57661.06213655
  -exchange      EXHF   =         0.00000000
  -V(xc)+E(xc)   XCENC  =      -667.63150761
  PAW double counting   =     43109.74479223   -41356.71262139
  entropy T*S    EENTRO =        -0.13487647
  eigenvalues    EBANDS =     -3444.90506289
  atomic energy  EATOM  =     20917.06298232
  Solvation  Ediel_sol  =         0.00000000
  ---------------------------------------------------
  free energy    TOTEN  =      -659.28066316 eV

  energy without entropy =     -659.14578669  energy(sigma->0) =     -659.21322493


--------------------------------------------------------------------------------------------------------




----------------------------------------- Iteration    1(  15)  ---------------------------------------


    POTLOK:  cpu time    0.3732: real time    0.3741
    SETDIJ:  cpu time    0.0104: real time    0.0104
     EDDAV:  cpu time    6.8114: real time    6.8289
       DOS:  cpu time    0.0008: real time    0.0008
    CHARGE:  cpu time    0.5720: real time    0.5735
    MIXING:  cpu time    0.0139: real time    0.0140
    --------------------------------------------
      LOOP:  cpu time    7.7826: real time    7.8048

 eigenvalue-minimisations  :   840
 total energy-change (2. order) : 0.2149575E+01  (-0.3023393E+00)
 number of electron     491.0000076 magnetization 
 augmentation part       -6.7549250 magnetization 

 Broyden mixing:
  rms(total) = 0.94527E+00    rms(broyden)= 0.94512E+00
  rms(prec ) = 0.95800E+00
  weight for this iteration     100.00

 eigenvalues of (default mixing * dielectric matrix)
  average eigenvalue GAMMA=   0.8677
  2.0176  1.6032  1.6032  0.6407  0.6407  0.6147  0.6147  0.3568  0.4292  0.1565

 Free energy of the ion-electron system (eV)
  ---------------------------------------------------
  alpha Z        PSCENC =       562.94535741
  Ewald energy   TEWEN  =     37881.41240977
  -Hartree energ DENC   =    -57693.33738811
  -exchange      EXHF   =         0.00000000
  -V(xc)+E(xc)   XCENC  =      -666.87034558
  PAW double counting   =     42098.13061245   -40341.35579410
  entropy T*S    EENTRO =        -0.11101965
  eigenvalues    EBANDS =     -3415.00790275
  atomic energy  EATOM  =     20917.06298232
  Solvation  Ediel_sol  =         0.00000000
  ---------------------------------------------------
  free energy    TOTEN  =      -657.13108824 eV

  energy without entropy =     -657.02006859  energy(sigma->0) =     -657.07557841


--------------------------------------------------------------------------------------------------------




----------------------------------------- Iteration    1(  16)  ---------------------------------------


    POTLOK:  cpu time    0.3623: real time    0.3649
    SETDIJ:  cpu time    0.0101: real time    0.0101
     EDDAV:  cpu time    6.9528: real time    7.0103
       DOS:  cpu time    0.0008: real time    0.0008
    CHARGE:  cpu time    0.5673: real time    0.5721
    MIXING:  cpu time    0.0127: real time    0.0137
    --------------------------------------------
      LOOP:  cpu time    7.9067: real time    8.0146

 eigenvalue-minimisations  :   876
 total energy-change (2. order) :-0.6042197E+00  (-0.8052670E+00)
 number of electron     491.0000075 magnetization 
 augmentation part       -6.8476270 magnetization 

 Broyden mixing:
  rms(total) = 0.11470E+01    rms(broyden)= 0.11467E+01
  rms(prec ) = 0.13011E+01
  weight for this iteration     100.00

 eigenvalues of (default mixing * dielectric matrix)
  average eigenvalue GAMMA=   0.8158
  2.0120  1.5926  1.5926  0.6117  0.6117  0.5649  0.5649  0.5440  0.1565  0.3443
  0.3786

 Free energy of the ion-electron system (eV)
  ---------------------------------------------------
  alpha Z        PSCENC =       562.94535741
  Ewald energy   TEWEN  =     37881.41240977
  -Hartree energ DENC   =    -57739.33948191
  -exchange      EXHF   =         0.00000000
  -V(xc)+E(xc)   XCENC  =      -665.63285554
  PAW double counting   =     41537.66088442   -39775.50585427
  entropy T*S    EENTRO =        -0.28682555
  eigenvalues    EBANDS =     -3376.05192463
  atomic energy  EATOM  =     20917.06298232
  Solvation  Ediel_sol  =         0.00000000
  ---------------------------------------------------
  free energy    TOTEN  =      -657.73530798 eV

  energy without entropy =     -657.44848243  energy(sigma->0) =     -657.59189520


--------------------------------------------------------------------------------------------------------




----------------------------------------- Iteration    1(  17)  ---------------------------------------


[...]
   0.140E+01 -.637E+01 -.166E+03   -.142E+01 0.632E+01 0.166E+03   0.135E-01 0.518E-01 -.531E-01   0.125E-04 -.363E-03 -.651E-02
   -.500E+00 -.224E+01 0.133E+03   0.516E+00 0.230E+01 -.133E+03   -.168E-01 -.559E-01 0.380E-01   0.387E-04 0.144E-03 0.456E-02
   -.240E+01 0.785E+01 -.169E+03   0.239E+01 -.792E+01 0.169E+03   0.622E-02 0.622E-01 -.591E-01   0.414E-04 0.350E-04 -.652E-02
   -.423E+00 0.119E+01 0.133E+03   0.439E+00 -.114E+01 -.133E+03   -.154E-01 -.531E-01 0.374E-01   -.285E-04 0.395E-03 0.447E-02
   -.213E+00 0.177E+01 0.137E+03   0.229E+00 -.172E+01 -.137E+03   -.159E-01 -.520E-01 0.413E-01   0.881E-05 0.321E-03 0.476E-02
   -.252E+01 -.542E+00 -.179E+03   0.251E+01 0.484E+00 0.179E+03   0.598E-02 0.553E-01 -.674E-01   0.776E-04 -.168E-03 -.689E-02
   0.641E+00 -.202E+01 0.137E+03   -.627E+00 0.208E+01 -.137E+03   -.137E-01 -.568E-01 0.415E-01   0.485E-05 0.178E-03 0.483E-02
   0.955E+00 -.809E+01 -.170E+03   -.972E+00 0.805E+01 0.170E+03   0.159E-01 0.382E-01 -.615E-01   0.294E-03 -.415E-03 -.632E-02
   0.350E+00 -.246E+01 0.133E+03   -.337E+00 0.252E+01 -.133E+03   -.139E-01 -.569E-01 0.380E-01   0.105E-03 0.746E-04 0.454E-02
   0.242E-01 -.273E+01 0.134E+03   -.767E-02 0.279E+01 -.134E+03   -.171E-01 -.566E-01 0.386E-01   0.398E-05 0.321E-04 0.455E-02
   0.648E+00 0.624E+00 -.161E+03   -.662E+00 -.678E+00 0.161E+03   0.130E-01 0.528E-01 -.525E-01   0.204E-03 -.218E-03 -.610E-02
   -.218E+01 -.646E+01 -.168E+03   0.217E+01 0.642E+01 0.168E+03   0.872E-02 0.466E-01 -.576E-01   0.524E-04 -.503E-03 -.646E-02
   0.895E-01 0.106E+01 0.133E+03   -.738E-01 -.101E+01 -.133E+03   -.160E-01 -.520E-01 0.387E-01   0.114E-03 0.274E-03 0.457E-02
   -.912E+00 -.357E+00 -.172E+03   0.903E+00 0.299E+00 0.172E+03   0.728E-02 0.562E-01 -.574E-01   0.459E-04 -.241E-03 -.673E-02
   -.616E+00 0.150E+01 0.136E+03   0.633E+00 -.144E+01 -.136E+03   -.175E-01 -.543E-01 0.387E-01   -.202E-05 0.247E-03 0.458E-02
   0.208E+01 0.709E+01 -.168E+03   -.210E+01 -.715E+01 0.168E+03   0.157E-01 0.611E-01 -.555E-01   0.221E-03 -.783E-04 -.637E-02
   0.563E+00 0.116E+01 -.162E+03   -.580E+00 -.121E+01 0.162E+03   0.145E-01 0.508E-01 -.555E-01   0.186E-03 -.308E-03 -.618E-02
   0.210E+00 0.684E+00 0.133E+03   -.195E+00 -.628E+00 -.133E+03   -.157E-01 -.544E-01 0.369E-01   0.472E-04 0.223E-03 0.444E-02
   -.831E+00 -.194E+01 0.137E+03   0.849E+00 0.199E+01 -.137E+03   -.191E-01 -.571E-01 0.404E-01   -.507E-04 0.691E-04 0.471E-02
   -.513E+00 0.134E+01 -.650E+03   0.434E+00 -.164E+01 0.654E+03   0.786E-01 0.298E+00 -.445E+01   0.389E-03 -.288E-04 0.943E-02
   0.207E+00 0.100E+01 -.355E+03   -.132E+00 -.700E+00 0.360E+03   -.743E-01 -.302E+00 -.433E+01   -.131E-03 0.461E-04 0.151E-02
   -.323E+01 0.101E+02 0.331E+03   0.315E+01 -.104E+02 -.335E+03   0.782E-01 0.303E+00 0.428E+01   0.150E-03 0.424E-03 -.190E-01
   0.119E+00 0.642E+00 0.617E+03   -.443E-01 -.344E+00 -.622E+03   -.741E-01 -.300E+00 0.446E+01   -.141E-03 0.102E-03 0.746E-02
   0.200E+00 0.585E+00 0.617E+03   -.126E+00 -.286E+00 -.622E+03   -.735E-01 -.300E+00 0.446E+01   -.314E-04 0.369E-04 0.758E-02
   0.324E+01 0.710E+01 0.331E+03   -.332E+01 -.740E+01 -.335E+03   0.790E-01 0.303E+00 0.429E+01   0.513E-03 0.309E-03 -.189E-01
   -.893E+00 0.211E+01 -.655E+03   0.814E+00 -.240E+01 0.659E+03   0.794E-01 0.296E+00 -.445E+01   0.368E-03 0.752E-04 0.933E-02
   -.181E+01 0.706E+01 -.347E+03   0.189E+01 -.675E+01 0.352E+03   -.742E-01 -.302E+00 -.432E+01   -.173E-03 0.375E-03 0.177E-02
   -.992E+01 -.111E+02 0.303E+03   0.984E+01 0.108E+02 -.307E+03   0.768E-01 0.303E+00 0.423E+01   -.993E-04 -.362E-03 -.202E-01
   0.100E+00 -.391E+00 0.618E+03   -.254E-01 0.688E+00 -.622E+03   -.740E-01 -.298E+00 0.446E+01   -.188E-04 0.995E-04 0.753E-02
   -.118E+00 0.162E+01 0.618E+03   0.193E+00 -.133E+01 -.623E+03   -.738E-01 -.300E+00 0.446E+01   0.131E-04 0.929E-04 0.764E-02
   0.775E+00 0.538E+00 -.354E+03   -.701E+00 -.237E+00 0.358E+03   -.735E-01 -.302E+00 -.433E+01   0.282E-04 0.657E-04 0.155E-02
   0.388E+00 0.928E+00 -.650E+03   -.465E+00 -.123E+01 0.654E+03   0.769E-01 0.300E+00 -.445E+01   0.345E-03 0.877E-04 0.936E-02
   0.219E+00 -.262E+01 -.656E+03   -.295E+00 0.232E+01 0.660E+03   0.767E-01 0.299E+00 -.445E+01   0.415E-03 -.546E-04 0.917E-02
   -.310E+00 -.118E+00 -.339E+03   0.384E+00 0.420E+00 0.344E+03   -.741E-01 -.303E+00 -.430E+01   -.292E-03 0.334E-04 0.250E-02
   0.253E+01 -.148E+02 0.288E+03   -.261E+01 0.145E+02 -.293E+03   0.774E-01 0.303E+00 0.415E+01   0.631E-03 -.759E-03 -.209E-01
   0.606E-01 0.448E+00 0.620E+03   0.137E-01 -.150E+00 -.624E+03   -.739E-01 -.299E+00 0.446E+01   -.149E-03 0.668E-04 0.761E-02
   0.496E+00 -.319E+01 -.650E+03   -.574E+00 0.289E+01 0.655E+03   0.773E-01 0.301E+00 -.445E+01   0.521E-03 -.134E-03 0.938E-02
   0.166E+01 -.609E+01 -.348E+03   -.159E+01 0.639E+01 0.353E+03   -.741E-01 -.303E+00 -.432E+01   0.714E-04 -.403E-03 0.194E-02
   -.743E+01 0.167E+02 0.297E+03   0.736E+01 -.170E+02 -.301E+03   0.788E-01 0.306E+00 0.421E+01   -.342E-06 0.555E-03 -.208E-01
   -.247E+01 -.112E+02 0.329E+03   0.239E+01 0.109E+02 -.333E+03   0.766E-01 0.300E+00 0.428E+01   0.159E-03 -.687E-03 -.186E-01
   -.469E+00 -.259E+01 -.650E+03   0.391E+00 0.229E+01 0.655E+03   0.780E-01 0.299E+00 -.445E+01   0.213E-03 -.292E-03 0.948E-02
   -.130E+00 0.470E+00 0.619E+03   0.204E+00 -.173E+00 -.624E+03   -.734E-01 -.299E+00 0.446E+01   -.334E-04 0.208E-04 0.767E-02
   -.203E+01 0.350E-01 -.344E+03   0.211E+01 0.266E+00 0.349E+03   -.738E-01 -.302E+00 -.432E+01   -.735E-04 0.594E-04 0.198E-02
   -.366E+00 -.314E+01 -.651E+03   0.290E+00 0.284E+01 0.655E+03   0.771E-01 0.303E+00 -.445E+01   0.285E-03 -.102E-03 0.928E-02
   -.155E+01 -.558E+01 -.348E+03   0.163E+01 0.588E+01 0.353E+03   -.735E-01 -.302E+00 -.432E+01   -.309E-03 -.131E-03 0.187E-02
   -.224E+01 -.165E+02 0.322E+03   0.217E+01 0.162E+02 -.327E+03   0.768E-01 0.301E+00 0.426E+01   0.435E-03 -.665E-03 -.194E-01
   -.853E-01 -.460E+00 0.618E+03   0.159E+00 0.758E+00 -.623E+03   -.733E-01 -.299E+00 0.446E+01   -.215E-03 0.125E-03 0.759E-02
   -.119E+01 -.231E+01 -.654E+03   0.111E+01 0.202E+01 0.659E+03   0.800E-01 0.297E+00 -.445E+01   0.257E-03 0.539E-04 0.931E-02
   0.438E+01 -.163E+02 0.326E+03   -.446E+01 0.160E+02 -.330E+03   0.809E-01 0.299E+00 0.428E+01   0.467E-03 -.665E-03 -.189E-01
   -.215E+00 0.158E+01 -.650E+03   0.138E+00 -.188E+01 0.655E+03   0.773E-01 0.299E+00 -.445E+01   0.278E-03 -.231E-03 0.945E-02
   -.673E+00 0.198E+01 -.354E+03   0.747E+00 -.168E+01 0.359E+03   -.738E-01 -.301E+00 -.433E+01   -.137E-03 0.364E-03 0.150E-02
   -.352E+00 0.128E+02 0.326E+03   0.276E+00 -.131E+02 -.330E+03   0.765E-01 0.302E+00 0.426E+01   0.339E-03 0.374E-03 -.191E-01
   -.965E-02 0.754E+00 0.617E+03   0.840E-01 -.456E+00 -.622E+03   -.737E-01 -.299E+00 0.446E+01   -.575E-04 0.281E-03 0.754E-02
   0.884E+00 0.190E+01 -.654E+03   -.959E+00 -.219E+01 0.659E+03   0.757E-01 0.296E+00 -.445E+01   0.258E-03 -.193E-03 0.936E-02
   0.146E+01 0.697E+01 -.347E+03   -.139E+01 -.667E+01 0.351E+03   -.739E-01 -.302E+00 -.432E+01   0.109E-04 0.556E-03 0.201E-02
   0.970E+01 0.152E+02 0.301E+03   -.978E+01 -.155E+02 -.306E+03   0.756E-01 0.305E+00 0.424E+01   0.922E-03 0.260E-03 -.201E-01
   0.256E+00 0.159E+01 0.619E+03   -.181E+00 -.130E+01 -.623E+03   -.739E-01 -.299E+00 0.446E+01   -.245E-04 0.204E-03 0.760E-02
   0.171E+00 0.150E+01 0.618E+03   -.966E-01 -.120E+01 -.623E+03   -.736E-01 -.299E+00 0.446E+01   -.185E-03 0.233E-03 0.759E-02
   -.256E+01 0.119E+02 0.314E+03   0.249E+01 -.122E+02 -.318E+03   0.791E-01 0.304E+00 0.426E+01   0.134E-03 0.517E-03 -.197E-01
   0.631E+00 -.235E+01 -.654E+03   -.708E+00 0.206E+01 0.658E+03   0.765E-01 0.296E+00 -.445E+01   0.379E-03 -.268E-03 0.949E-02
   0.265E+01 -.156E+00 -.344E+03   -.258E+01 0.456E+00 0.348E+03   -.741E-01 -.302E+00 -.431E+01   0.155E-03 0.240E-03 0.214E-02
   0.700E+01 -.107E+02 0.309E+03   -.708E+01 0.104E+02 -.313E+03   0.803E-01 0.299E+00 0.427E+01   0.522E-03 -.547E-03 -.195E-01
   0.379E+00 0.432E+00 0.619E+03   -.304E+00 -.136E+00 -.624E+03   -.742E-01 -.298E+00 0.446E+01   -.184E-04 0.252E-03 0.767E-02
   0.655E+00 0.579E+01 -.350E+03   -.581E+00 -.549E+01 0.354E+03   -.737E-01 -.302E+00 -.433E+01   -.475E-04 0.490E-03 0.169E-02
   -.329E+00 0.170E+01 -.653E+03   0.250E+00 -.200E+01 0.657E+03   0.788E-01 0.295E+00 -.445E+01   0.404E-03 0.892E-05 0.941E-02
   0.202E+00 -.469E+01 -.351E+03   -.127E+00 0.499E+01 0.355E+03   -.740E-01 -.302E+00 -.433E+01   0.404E-04 -.160E-03 0.172E-02
   0.294E+00 -.531E+00 0.618E+03   -.220E+00 0.829E+00 -.623E+03   -.742E-01 -.299E+00 0.446E+01   0.398E-04 -.267E-04 0.762E-02
 -----------------------------------------------------------------------------------------------
   0.472E-01 0.783E-01 0.238E+01   -.643E-13 -.271E-13 -.159E-11   -.598E-01 -.768E-01 -.221E+01   0.762E-02 0.115E-02 -.157E+00
 
 
 POSITION                                       TOTAL-FORCE (eV/Angst)
 -----------------------------------------------------------------------------------
      5.65575      5.18955      0.20984        -0.002660     -0.006687      0.006673
      6.00900      5.77735      1.46801        -0.003422     -0.005697      0.007338
      5.29227      6.24390     34.18960        -0.008841      0.000861     -0.002193
     -4.16754      7.48188      0.01654        -0.001976      0.005797      0.010575
     -3.72667      7.19366      1.35181        -0.000547      0.003642      0.007537
      2.78108      5.16638      2.18303         0.003193     -0.000244      0.003180
      2.37900      7.32717      1.45426         0.002634      0.005004      0.011338
      2.79662      6.53990      2.57867         0.000185      0.005021      0.000616
      2.09454      6.43935      0.36764         0.002843     -0.002608     -0.004619
      2.35522      5.10413      0.81418         0.005697     -0.003081      0.009968
      4.05977      6.24420      0.97021        -0.000475      0.000203      0.006172
     -3.57856      7.91861      2.14848         0.004419      0.001895      0.001395
      3.10515      6.91916      3.55048        -0.002848      0.006975      0.004393
      1.78267      6.72955     34.24747         0.004755     -0.002156      0.003904
      2.31815      8.41232      1.42514        -0.004367     -0.001703      0.003312
      3.07741      4.32348      2.80251         0.001432     -0.000921      0.004037
      6.30173      5.24246      2.36818        -0.001906     -0.006102     -0.000005
      5.64118      4.12625     34.86340        -0.001128      0.002622      0.003219
      4.95513      6.12090     33.16304        -0.005208      0.001673      0.009159
     -4.40932      8.46448     34.49910         0.002679      0.002408      0.013142
      2.27087      4.20442      0.20951         0.003253     -0.004860      0.009683
      4.78604      0.92656      8.71580        -0.001666     -0.000957      0.000130
      3.19064      3.68949      8.71392        -0.001696     -0.001167      0.000121
      1.59478      4.59924     26.16198        -0.000165      0.000736     -0.001776
      1.59546      6.45207      8.71233        -0.001769     -0.001155      0.000470
     -0.00039      7.36222     26.16212        -0.000125      0.001087     -0.002105
      0.00060      9.21518      8.71509        -0.001887     -0.000845     -0.000087
     -1.59549     10.12509     26.16199        -0.000191      0.001010     -0.002182
      6.38125      3.68947      8.71456        -0.001192     -0.000668      0.000149
      6.38059      1.83603     26.16184        -0.000264      0.000846     -0.002260
      4.78546      4.59889     26.16206        -0.000214      0.000985     -0.001978
      4.78615      6.45232      8.71276        -0.001492     -0.000853      0.000590
      3.19023      7.36188     26.16214        -0.000337      0.000964     -0.002156
      3.19083      9.21543      8.71361        -0.001307     -0.000867      0.000908
      1.59509     10.12477     26.16188        -0.000337      0.000782     -0.002056
     -4.78572     10.12484     26.16185        -0.000556      0.000940     -0.002205
      7.97639      0.92671      8.71557        -0.001497     -0.000929      0.000639
     -3.19004      9.21561      8.71495        -0.001995     -0.000975     -0.000024
      3.18996      1.83631     26.16188        -0.000285      0.001042     -0.001887
     -1.59473      6.45257      8.71389        -0.001633     -0.000946      0.000164
     -1.59541      4.59907     26.16190        -0.000686      0.001056     -0.001986
      0.00025      3.68971      8.71397        -0.001469     -0.000984      0.000414
      1.59532      0.92691      8.71516        -0.001925     -0.000840      0.000160
     -0.00031      1.83613     26.16169        -0.000468      0.000767     -0.002354
     -3.19053      7.36200     26.16211        -0.000523      0.000873     -0.002357
      6.38005      1.83932     10.26985         0.000201     -0.000031     -0.006958
      7.97662      0.92391     27.71541         0.000600     -0.000012     -0.002055
      6.37988      1.83824      7.16277         0.000616      0.000183     -0.005108
      7.97653      0.92373     24.60713         0.000541     -0.000098      0.006538
      1.59591      0.92395     24.60719         0.000747     -0.000333      0.006534
     -0.00102      1.83845      7.16224         0.000582     -0.000040     -0.004752
      4.78453      4.60238     10.26791         0.000232     -0.000121     -0.006571
      6.38152      3.68669     27.71558         0.000636     -0.000117     -0.002010
     -3.19067      7.36534      7.16087         0.000352      0.000018     -0.004877
      0.00060      9.21281     24.60737         0.000681     -0.000603      0.006661
      6.38140      3.68673     24.60731         0.000508     -0.000130      0.006451
      1.59579      0.92411     27.71537         0.000693     -0.000505     -0.001995
     -0.00064      1.83973     10.26948         0.000522     -0.000067     -0.006792
      3.18948      7.36408     10.26668         0.000266      0.000166     -0.006297
      4.78631      6.44967     27.71583         0.000659     -0.000066     -0.002082
      3.18966      7.36458      7.15877         0.000675      0.000529     -0.004414
      4.78629      6.44959     24.60758         0.000457     -0.000120      0.006525
      1.59510     10.12699     10.26918        -0.000076      0.000191     -0.006742
      3.19112      9.21272     27.71559         0.000631     -0.000086     -0.002029
      4.78490      4.60082      7.16047         0.000623      0.000426     -0.004900
     -1.59569     10.12775      7.16274         0.000160      0.000622     -0.005423
     -1.59587     10.12703     10.26980         0.000450      0.000608     -0.007336
     -1.59445      6.44990     24.60745         0.000814     -0.000352      0.006473
     -1.59444      6.44987     27.71562         0.000616     -0.000544     -0.001913
     -4.78683     10.12741     10.26898         0.000885      0.000022     -0.006576
     -3.18960      9.21294     27.71557         0.000668     -0.000461     -0.001959
     -4.78587     10.12816      7.16178         0.000359      0.000037     -0.004699
     -3.18954      9.21263     24.60737         0.000814     -0.000312      0.006544
     -3.19153      7.36427     10.26810         0.000810      0.000153     -0.006758
      1.59393     10.12800      7.16209         0.000974      0.000280     -0.005082
      3.18936      1.83943     10.26941         0.000347      0.000759     -0.007176
      4.78611      0.92429     27.71547         0.000812     -0.000553     -0.001905
      3.18986      1.83809      7.16228         0.000060      0.000590     -0.005244
      4.78609      0.92413     24.60726         0.000730     -0.000575      0.006562
      1.59444      4.60225     10.26772         0.000341      0.000648     -0.006889
      3.19091      3.68704     27.71556         0.000753     -0.000661     -0.001876
      1.59449      4.60070      7.16007         0.000033      0.000791     -0.005071
      3.19099      3.68710     24.60739         0.000651     -0.000553      0.006579
      0.00073      3.68699     24.60725         0.000767     -0.000366      0.006547
     -1.59622      4.60156      7.16132         0.000506     -0.000261     -0.005035
     -0.00004      7.36372     10.26816         0.000024      0.000873     -0.007175
      1.59574      6.45003     27.71565         0.000743     -0.000677     -0.001716
     -0.00109      7.36512      7.16095         0.000325      0.000543     -0.005497
      1.59579      6.45003     24.60752         0.000703     -0.000597      0.006565
      0.00068      3.68687     27.71542         0.000649     -0.000505     -0.002044
     -1.59578      4.60219     10.26855         0.000510      0.000122     -0.006890
      0.00065      9.21309     27.71556         0.000784     -0.000572     -0.001847
      3.19112      9.21236     24.60733         0.000529     -0.000187      0.006558
 -----------------------------------------------------------------------------------
    total drift:                               -0.004994      0.002692      0.011655


--------------------------------------------------------------------------------------------------------



  FREE ENERGIE OF THE ION-ELECTRON SYSTEM (eV)
  ---------------------------------------------------
  free  energy   TOTEN  =      -671.42736713 eV

  energy  without entropy=     -671.30308363  energy(sigma->0) =     -671.36522538
 
 d Force = 0.1053436E-03[ 0.874E-04, 0.123E-03]  d Energy = 0.6369425E-04 0.416E-04
 d Force =-0.1863648E+01[-0.186E+01,-0.186E+01]  d Ewald  =-0.1863646E+01-0.126E-05


--------------------------------------------------------------------------------------------------------


    POTLOK:  cpu time    0.4115: real time    0.7071


--------------------------------------------------------------------------------------------------------


 stress matrix after NEB project (eV)
     10.98396      0.69501      0.12023
      0.69501     -8.57424      0.00804
      0.12023      0.00804     -4.55220
  FORCES: max atom, RMS     0.013627    0.005834
  FORCE total and by dimension    0.056259    0.013142
  Stress total and by dimension   14.692945   10.983963
 Conjugate gradient step on ions:
 trial-energy change:   -0.000064  1 .order   -0.000105   -0.000123   -0.000087
  (g-gl).g = 0.315E-03      g.g   = 0.279E-03  gl.gl    = 0.440E-03
 g(Force)  = 0.279E-03   g(Stress)= 0.000E+00 ortho     =-0.319E-05
 gamma     =   0.71571
 trial     =   0.44607
 opt step  =   1.52912  (harmonic =   1.52912) maximal distance =0.00315218
 next E    =  -671.427515   (d E  =  -0.00021)


--------------------------------------------------------------------------------------------------------


  
 reached required accuracy - stopping structural energy minimisation
     LOOP+:  cpu time   41.9442: real time   42.5580
    4ORBIT:  cpu time    0.0000: real time    0.0000

 total amount of memory used by VASP on root node   114612. kBytes
========================================================================

   base      :      30000. kBytes
   nonlr-proj:      16389. kBytes
   fftplans  :      19781. kBytes
   grid      :      43661. kBytes
   one-center:        241. kBytes
   wavefun   :       4540. kBytes
 
  
  
 General timing and accounting informations for this job:
 ========================================================
  
                  Total CPU time used (sec):     1745.968
                            User time (sec):     1690.124
                          System time (sec):       55.845
                         Elapsed time (sec):     1762.283
  
                   Maximum memory used (kb):      159316.
                   Average memory used (kb):           0.
  
                          Minor page faults:      7103063
                          Major page faults:            0
                 Voluntary context switches:         8250
