<?xml version="1.0" encoding="ISO-8859-1"?>
<modeling>
 <generator>
  <i name="program" type="string">vasp </i>
  <i name="version" type="string">5.4.1  </i>
  <i name="subversion" type="string">05Feb16 (build Apr 21 2017 13:36:42) gamma-only                       parallel </i>
  <i name="platform" type="string">IFC91_ompi </i>
  <i name="date" type="string">2020 09 15 </i>
  <i name="time" type="string">10:10:13 </i>
 </generator>
 <incar>
  <i type="string" name="SYSTEM"> basalPlane</i>
  <i type="int" name="ISTART">     0</i>
  <i type="string" name="PREC">accurate  !=accurate, max(enmax) no wra</i>
  <i type="string" name="ALGO"> Normal    !=Normal, blocked Davidson it</i>
  <i type="int" name="NSIM">     4</i>
  <i type="int" name="ISPIN">     1</i>
  <i type="int" name="ICHARG">     2</i>
  <i type="int" name="INIWAV">     1</i>
  <i type="int" name="NELM">   200</i>
  <i type="int" name="NELMDL">    -5</i>
  <i type="int" name="NELMIN">     2</i>
  <i type="int" name="IBRION">     2</i>
  <i name="EDIFF">      0.00010000</i>
  <i name="EDIFFG">     -0.02000000</i>
  <i type="int" name="NSW"> 10000</i>
  <i type="int" name="ISIF">     2</i>
  <i type="int" name="ISYM">     2</i>
  <i name="ENCUT">    400.00000000</i>
  <i name="ENAUG">    645.00000000</i>
  <i type="string" name="LREAL"> Auto     !=Auto projection operators ev</i>
  <i type="logical" name="LPLANE"> T  </i>
  <i type="int" name="ISMEAR">     0</i>
  <i name="SIGMA">      0.10000000</i>
  <i type="int" name="NWRITE">     2</i>
  <i type="logical" name="LWAVE"> F  </i>
  <i type="logical" name="LCHARG"> F  </i>
  <i type="logical" name="LORBIT"> F  </i>
  <i type="logical" name="LELF"> F  </i>
  <i type="logical" name="LSCALU"> F  </i>
  <v type="int" name="KPOINT_BSE">    -1     0     0     0</v>
  <i type="int" name="NELM">   200</i>
 </incar>
 <kpoints>
  <varray name="kpointlist" >
   <v>       0.00000000       0.00000000       0.00000000 </v>
  </varray>
  <varray name="weights" >
   <v>       1.00000000 </v>
  </varray>
 </kpoints>
 <parameters>
  <separator name="general" >
   <i type="string" name="SYSTEM">basalPlane</i>
   <i type="logical" name="LCOMPAT"> F  </i>
  </separator>
  <separator name="electronic" >
   <i type="string" name="PREC">accura</i>
   <i name="ENMAX">    400.00000000</i>
   <i name="ENAUG">    645.00000000</i>
   <i name="EDIFF">      0.00010000</i>
   <i type="int" name="IALGO">    38</i>
   <i type="int" name="IWAVPR">    11</i>
   <i type="int" name="NBANDS">   300</i>
   <i name="NELECT">    491.00000000</i>
   <i type="int" name="TURBO">     0</i>
   <i type="int" name="IRESTART">     0</i>
   <i type="int" name="NREBOOT">     0</i>
   <i type="int" name="NMIN">     0</i>
   <i name="EREF">      0.00000000</i>
   <separator name="electronic smearing" >
    <i type="int" name="ISMEAR">     0</i>
    <i name="SIGMA">      0.10000000</i>
    <i name="KSPACING">      0.50000000</i>
    <i type="logical" name="KGAMMA"> T  </i>
   </separator>
   <separator name="electronic projectors" >
    <i type="logical" name="LREAL"> T  </i>
    <v name="ROPT">     -0.00025000     -0.00025000     -0.00025000     -0.00025000     -0.00025000</v>
    <i type="int" name="LMAXPAW">  -100</i>
    <i type="int" name="LMAXMIX">     2</i>
    <i type="logical" name="NLSPLINE"> F  </i>
   </separator>
   <separator name="electronic startup" >
    <i type="int" name="ISTART">     0</i>
    <i type="int" name="ICHARG">     2</i>
    <i type="int" name="INIWAV">     1</i>
   </separator>
   <separator name="electronic spin" >
    <i type="int" name="ISPIN">     1</i>
    <i type="logical" name="LNONCOLLINEAR"> F  </i>
    <v name="MAGMOM">      1.00000000      1.00000000      1.00000000      1.00000000      1.00000000      1.00000000      1.00000000      1.00000000      1.00000000      1.00000000      1.00000000      1.00000000      1.00000000      1.00000000      1.00000000      1.00000000      1.00000000      1.00000000      1.00000000      1.00000000
      1.00000000      1.00000000      1.00000000      1.00000000      1.00000000      1.00000000      1.00000000      1.00000000      1.00000000      1.00000000      1.00000000      1.00000000      1.00000000      1.00000000      1.00000000      1.00000000      1.00000000      1.00000000      1.00000000      1.00000000
      1.00000000      1.00000000      1.00000000      1.00000000      1.00000000      1.00000000      1.00000000      1.00000000      1.00000000      1.00000000      1.00000000      1.00000000      1.00000000      1.00000000      1.00000000      1.00000000      1.00000000      1.00000000      1.00000000      1.00000000
      1.00000000      1.00000000      1.00000000      1.00000000      1.00000000      1.00000000      1.00000000      1.00000000      1.00000000      1.00000000      1.00000000      1.00000000      1.00000000      1.00000000      1.00000000      1.00000000      1.00000000      1.00000000      1.00000000      1.00000000
      1.00000000      1.00000000      1.00000000      1.00000000      1.00000000      1.00000000      1.00000000      1.00000000      1.00000000      1.00000000      1.00000000      1.00000000      1.00000000</v>
    <i name="NUPDOWN">     -1.00000000</i>
    <i type="logical" name="LSORBIT"> F  </i>
    <v name="SAXIS">      0.00000000      0.00000000      1.00000000</v>
    <i type="logical" name="LSPIRAL"> F  </i>
    <v name="QSPIRAL">      0.00000000      0.00000000      0.00000000</v>
    <i type="logical" name="LZEROZ"> F  </i>
   </separator>
   <separator name="electronic exchange-correlation" >
    <i type="logical" name="LASPH"> F  </i>
    <i type="logical" name="LMETAGGA"> F  </i>
   </separator>
   <separator name="electronic convergence" >
    <i type="int" name="NELM">   200</i>
    <i type="int" name="NELMDL">    -5</i>
    <i type="int" name="NELMIN">     2</i>
    <i name="ENINI">    400.00000000</i>
    <separator name="electronic convergence detail" >
     <i type="logical" name="LDIAG"> T  </i>
     <i type="logical" name="LSUBROT"> F  </i>
     <i name="WEIMIN">      0.00100000</i>
     <i name="EBREAK">      0.00000008</i>
     <i name="DEPER">      0.30000000</i>
     <i type="int" name="NRMM">     4</i>
     <i name="TIME">      0.40000000</i>
    </separator>
   </separator>
   <separator name="electronic mixer" >
    <i name="AMIX">      0.40000000</i>
    <i name="BMIX">      1.00000000</i>
    <i name="AMIN">      0.10000000</i>
    <i name="AMIX_MAG">      1.60000000</i>
    <i name="BMIX_MAG">      1.00000000</i>
    <separator name="electronic mixer details" >
     <i type="int" name="IMIX">     4</i>
     <i type="logical" name="MIXFIRST"> F  </i>
     <i type="int" name="MAXMIX">   -45</i>
     <i name="WC">    100.00000000</i>
     <i type="int" name="INIMIX">     1</i>
     <i type="int" name="MIXPRE">     1</i>
     <i type="int" name="MREMOVE">     5</i>
    </separator>
   </separator>
   <separator name="electronic dipolcorrection" >
    <i type="logical" name="LDIPOL"> F  </i>
    <i type="logical" name="LMONO"> F  </i>
    <i type="int" name="IDIPOL">     0</i>
    <i name="EPSILON">      1.00000000</i>
    <v name="DIPOL">   -100.00000000   -100.00000000   -100.00000000</v>
    <i name="EFIELD">      0.00000000</i>
   </separator>
  </separator>
  <separator name="grids" >
   <i type="int" name="NGX">    64</i>
   <i type="int" name="NGY">    84</i>
   <i type="int" name="NGZ">   240</i>
   <i type="int" name="NGXF">   128</i>
   <i type="int" name="NGYF">   168</i>
   <i type="int" name="NGZF">   480</i>
   <i type="logical" name="ADDGRID"> F  </i>
  </separator>
  <separator name="ionic" >
   <i type="int" name="NSW"> 10000</i>
   <i type="int" name="IBRION">     2</i>
   <i type="int" name="ISIF">     2</i>
   <i name="PSTRESS">      0.00000000</i>
   <i name="EDIFFG">     -0.02000000</i>
   <i type="int" name="NFREE">     1</i>
   <i name="POTIM">      0.50000000</i>
   <i name="SMASS">     -3.00000000</i>
   <i name="SCALEE">      1.00000000</i>
  </separator>
  <separator name="ionic md" >
   <i name="TEBEG">      0.00010000</i>
   <i name="TEEND">      0.00010000</i>
   <i type="int" name="NBLOCK">     1</i>
   <i type="int" name="KBLOCK"> 10000</i>
   <i type="int" name="NPACO">   256</i>
   <i name="APACO">     16.00000000</i>
  </separator>
  <separator name="symmetry" >
   <i type="int" name="ISYM">     2</i>
   <i name="SYMPREC">      0.00001000</i>
  </separator>
  <separator name="dos" >
   <i type="logical" name="LORBIT"> F  </i>
   <v name="RWIGS">     -1.00000000     -1.00000000     -1.00000000     -1.00000000     -1.00000000</v>
   <i type="int" name="NEDOS">   301</i>
   <i name="EMIN">     10.00000000</i>
   <i name="EMAX">    -10.00000000</i>
   <i name="EFERMI">      0.00000000</i>
  </separator>
  <separator name="writing" >
   <i type="int" name="NWRITE">     2</i>
   <i type="logical" name="LWAVE"> F  </i>
   <i type="logical" name="LCHARG"> F  </i>
   <i type="logical" name="LPARD"> F  </i>
   <i type="logical" name="LVTOT"> F  </i>
   <i type="logical" name="LVHAR"> F  </i>
   <i type="logical" name="LELF"> F  </i>
   <i type="logical" name="LOPTICS"> F  </i>
   <v name="STM">      0.00000000      0.00000000      0.00000000      0.00000000      0.00000000      0.00000000      0.00000000</v>
  </separator>
  <separator name="performance" >
   <i type="int" name="NPAR">    12</i>
   <i type="int" name="NSIM">     4</i>
   <i type="int" name="NBLK">    -1</i>
   <i type="logical" name="LPLANE"> T  </i>
   <i type="logical" name="LSCALAPACK"> T  </i>
   <i type="logical" name="LSCAAWARE"> F  </i>
   <i type="logical" name="LSCALU"> F  </i>
   <i type="logical" name="LASYNC"> F  </i>
   <i type="logical" name="LORBITALREAL"> F  </i>
  </separator>
  <separator name="miscellaneous" >
   <i type="int" name="IDIOT">     3</i>
   <i type="logical" name="LMUSIC"> F  </i>
   <v name="POMASS">     12.01100000     58.93300000      1.00000000     95.94000000     32.06600000</v>
   <v name="DARWINR">      0.00000000      0.00000000      0.00000000      0.00000000      0.00000000</v>
   <v name="DARWINV">      1.00000000      1.00000000      1.00000000      1.00000000      1.00000000</v>
   <i type="logical" name="LCORR"> T  </i>
  </separator>
  <i type="logical" name="GGA_COMPAT"> T  </i>
  <i type="logical" name="LBERRY"> F  </i>
  <i type="int" name="ICORELEVEL">     0</i>
  <i type="logical" name="LDAU"> F  </i>
  <i type="int" name="I_CONSTRAINED_M">     0</i>
  <separator name="electronic exchange-correlation" >
   <i type="string" name="GGA">--</i>
   <i type="int" name="VOSKOWN">     0</i>
   <i type="logical" name="LHFCALC"> F  </i>
   <i type="string" name="PRECFOCK"></i>
   <i type="logical" name="LSYMGRAD"> F  </i>
   <i type="logical" name="LHFONE"> F  </i>
   <i type="logical" name="LRHFCALC"> F  </i>
   <i type="logical" name="LTHOMAS"> F  </i>
   <i type="logical" name="LMODELHF"> F  </i>
   <i name="ENCUT4O">     -1.00000000</i>
   <i type="int" name="EXXOEP">     0</i>
   <i type="int" name="FOURORBIT">     0</i>
   <i name="AEXX">      0.00000000</i>
   <i name="HFALPHA">      0.00000000</i>
   <i name="MCALPHA">      0.00000000</i>
   <i name="ALDAX">      1.00000000</i>
   <i name="AGGAX">      1.00000000</i>
   <i name="ALDAC">      1.00000000</i>
   <i name="AGGAC">      1.00000000</i>
   <i type="int" name="NKREDX">     1</i>
   <i type="int" name="NKREDY">     1</i>
   <i type="int" name="NKREDZ">     1</i>
   <i type="logical" name="SHIFTRED"> F  </i>
   <i type="logical" name="ODDONLY"> F  </i>
   <i type="logical" name="EVENONLY"> F  </i>
   <i type="int" name="LMAXFOCK">     0</i>
   <i type="int" name="NMAXFOCKAE">     0</i>
   <i type="logical" name="LFOCKAEDFT"> F  </i>
   <i name="HFSCREEN">      0.00000000</i>
   <i name="HFSCREENC">      0.00000000</i>
   <i type="int" name="NBANDSGWLOW">     0</i>
  </separator>
  <separator name="vdW DFT" >
   <i type="logical" name="LUSE_VDW"> F  </i>
   <i name="Zab_VDW">     -0.84910000</i>
   <i name="PARAM1">      0.12340000</i>
   <i name="PARAM2">      1.00000000</i>
   <i name="PARAM3">      0.00000000</i>
  </separator>
  <separator name="model GW" >
   <i type="int" name="MODEL_GW">     0</i>
   <i name="MODEL_EPS0">     23.80275655</i>
   <i name="MODEL_ALPHA">      1.00000000</i>
  </separator>
  <separator name="linear response parameters" >
   <i type="logical" name="LEPSILON"> F  </i>
   <i type="logical" name="LRPA"> F  </i>
   <i type="logical" name="LNABLA"> F  </i>
   <i type="logical" name="LVEL"> F  </i>
   <i type="int" name="KINTER">     0</i>
   <i name="CSHIFT">      0.10000000</i>
   <i name="OMEGAMAX">     -1.00000000</i>
   <i name="DEG_THRESHOLD">      0.00200000</i>
  </separator>
  <separator name="orbital magnetization" >
   <i type="logical" name="NUCIND"> F  </i>
   <v name="MAGPOS">      0.00000000      0.00000000      0.00000000</v>
   <i type="logical" name="LNICSALL"> T  </i>
   <i type="logical" name="ORBITALMAG"> F  </i>
   <i type="logical" name="LMAGBLOCH"> F  </i>
   <i type="logical" name="LCHIMAG"> F  </i>
   <i type="logical" name="LGAUGE"> T  </i>
   <i type="int" name="MAGATOM">     0</i>
   <v name="MAGDIPOL">      0.00000000      0.00000000      0.00000000</v>
   <v name="AVECCONST">      0.00000000      0.00000000      0.00000000</v>
  </separator>
  <separator name="response functions" >
   <i type="logical" name="LADDER"> F  </i>
   <i type="logical" name="LFXC"> F  </i>
   <i type="logical" name="LHARTREE"> T  </i>
   <i type="int" name="IBSE">     0</i>
   <v type="int" name="KPOINT">    -1     0     0     0</v>
   <i type="logical" name="LTCTE"> F  </i>
   <i type="logical" name="LTETE"> F  </i>
   <i type="logical" name="LTRIPLET"> F  </i>
   <i type="logical" name="LFXCEPS"> F  </i>
   <i type="logical" name="LFXHEG"> F  </i>
   <i type="int" name="NATURALO">     0</i>
   <i type="logical" name="L2ORDER"> F  </i>
   <i type="logical" name="LUSEW"> F  </i>
   <i name="ENCUTGW">     -2.00000000</i>
   <i name="ENCUTGWSOFT">     -2.00000000</i>
   <i name="ENCUTLF">     -1.00000000</i>
   <i type="int" name="LMAXMP2">    -1</i>
   <i name="SCISSOR">      0.00000000</i>
   <i type="int" name="NOMEGA">     0</i>
   <i type="int" name="NOMEGAR">     0</i>
   <i type="int" name="NBANDSGW">    -1</i>
   <i type="int" name="NBANDSO">    -1</i>
   <i type="int" name="NBANDSV">    -1</i>
   <i type="int" name="NELM">   200</i>
   <i type="int" name="NELMHF">     1</i>
   <i type="int" name="DIM">     3</i>
   <i type="int" name="ANTIRES">     0</i>
   <i name="OMEGAMAX">    -30.00000000</i>
   <i name="OMEGAMIN">    -30.00000000</i>
   <i name="OMEGATL">   -200.00000000</i>
   <i type="int" name="OMEGAGRID">     0</i>
   <i name="CSHIFT">     -0.10000000</i>
   <i type="logical" name="SELFENERGY"> F  </i>
   <i type="logical" name="LSPECTRAL"> F  </i>
   <i type="logical" name="LSPECTRALGW"> F  </i>
   <i type="logical" name="LSINGLES"> F  </i>
   <i type="logical" name="LFERMIGW"> F  </i>
   <i type="logical" name="ODDONLYGW"> F  </i>
   <i type="logical" name="EVENONLYGW"> F  </i>
   <i type="int" name="NKREDLFX">     1</i>
   <i type="int" name="NKREDLFY">     1</i>
   <i type="int" name="NKREDLFZ">     1</i>
   <i type="int" name="MAXMEM">  1800</i>
   <i type="int" name="TELESCOPE">     0</i>
   <i type="int" name="TAUPAR">     1</i>
   <i type="int" name="OMEGAPAR">    -1</i>
   <i name="LAMBDA">      1.00000000</i>
  </separator>
  <separator name="External order field" >
   <i name="OFIELD_KAPPA">      0.00000000</i>
   <v name="OFIELD_K">      0.00000000      0.00000000      0.00000000</v>
   <i name="OFIELD_Q6_NEAR">      0.00000000</i>
   <i name="OFIELD_Q6_FAR">      0.00000000</i>
   <i name="OFIELD_A">      0.00000000</i>
  </separator>
 </parameters>
 <atominfo>
  <atoms>      93 </atoms>
  <types>       5 </types>
  <array name="atoms" >
   <dimension dim="1">ion</dimension>
   <field type="string">element</field>
   <field type="int">atomtype</field>
   <set>
    <rc><c>C </c><c>   1</c></rc>
    <rc><c>C </c><c>   1</c></rc>
    <rc><c>C </c><c>   1</c></rc>
    <rc><c>C </c><c>   1</c></rc>
    <rc><c>C </c><c>   1</c></rc>
    <rc><c>C </c><c>   1</c></rc>
    <rc><c>C </c><c>   1</c></rc>
    <rc><c>C </c><c>   1</c></rc>
    <rc><c>C </c><c>   1</c></rc>
    <rc><c>C </c><c>   1</c></rc>
    <rc><c>Co</c><c>   2</c></rc>
    <rc><c>H </c><c>   3</c></rc>
    <rc><c>H </c><c>   3</c></rc>
    <rc><c>H </c><c>   3</c></rc>
    <rc><c>H </c><c>   3</c></rc>
    <rc><c>H </c><c>   3</c></rc>
    <rc><c>H </c><c>   3</c></rc>
    <rc><c>H </c><c>   3</c></rc>
    <rc><c>H </c><c>   3</c></rc>
    <rc><c>H </c><c>   3</c></rc>
    <rc><c>H </c><c>   3</c></rc>
    <rc><c>Mo</c><c>   4</c></rc>
    <rc><c>Mo</c><c>   4</c></rc>
    <rc><c>Mo</c><c>   4</c></rc>
    <rc><c>Mo</c><c>   4</c></rc>
    <rc><c>Mo</c><c>   4</c></rc>
    <rc><c>Mo</c><c>   4</c></rc>
    <rc><c>Mo</c><c>   4</c></rc>
    <rc><c>Mo</c><c>   4</c></rc>
    <rc><c>Mo</c><c>   4</c></rc>
    <rc><c>Mo</c><c>   4</c></rc>
    <rc><c>Mo</c><c>   4</c></rc>
    <rc><c>Mo</c><c>   4</c></rc>
    <rc><c>Mo</c><c>   4</c></rc>
    <rc><c>Mo</c><c>   4</c></rc>
    <rc><c>Mo</c><c>   4</c></rc>
    <rc><c>Mo</c><c>   4</c></rc>
    <rc><c>Mo</c><c>   4</c></rc>
    <rc><c>Mo</c><c>   4</c></rc>
    <rc><c>Mo</c><c>   4</c></rc>
    <rc><c>Mo</c><c>   4</c></rc>
    <rc><c>Mo</c><c>   4</c></rc>
    <rc><c>Mo</c><c>   4</c></rc>
    <rc><c>Mo</c><c>   4</c></rc>
    <rc><c>Mo</c><c>   4</c></rc>
    <rc><c>S </c><c>   5</c></rc>
    <rc><c>S </c><c>   5</c></rc>
    <rc><c>S </c><c>   5</c></rc>
    <rc><c>S </c><c>   5</c></rc>
    <rc><c>S </c><c>   5</c></rc>
    <rc><c>S </c><c>   5</c></rc>
    <rc><c>S </c><c>   5</c></rc>
    <rc><c>S </c><c>   5</c></rc>
    <rc><c>S </c><c>   5</c></rc>
    <rc><c>S </c><c>   5</c></rc>
    <rc><c>S </c><c>   5</c></rc>
    <rc><c>S </c><c>   5</c></rc>
    <rc><c>S </c><c>   5</c></rc>
    <rc><c>S </c><c>   5</c></rc>
    <rc><c>S </c><c>   5</c></rc>
    <rc><c>S </c><c>   5</c></rc>
    <rc><c>S </c><c>   5</c></rc>
    <rc><c>S </c><c>   5</c></rc>
    <rc><c>S </c><c>   5</c></rc>
    <rc><c>S </c><c>   5</c></rc>
    <rc><c>S </c><c>   5</c></rc>
    <rc><c>S </c><c>   5</c></rc>
    <rc><c>S </c><c>   5</c></rc>
    <rc><c>S </c><c>   5</c></rc>
    <rc><c>S </c><c>   5</c></rc>
    <rc><c>S </c><c>   5</c></rc>
    <rc><c>S </c><c>   5</c></rc>
    <rc><c>S </c><c>   5</c></rc>
    <rc><c>S </c><c>   5</c></rc>
    <rc><c>S </c><c>   5</c></rc>
    <rc><c>S </c><c>   5</c></rc>
    <rc><c>S </c><c>   5</c></rc>
    <rc><c>S </c><c>   5</c></rc>
    <rc><c>S </c><c>   5</c></rc>
    <rc><c>S </c><c>   5</c></rc>
    <rc><c>S </c><c>   5</c></rc>
    <rc><c>S </c><c>   5</c></rc>
    <rc><c>S </c><c>   5</c></rc>
    <rc><c>S </c><c>   5</c></rc>
    <rc><c>S </c><c>   5</c></rc>
    <rc><c>S </c><c>   5</c></rc>
    <rc><c>S </c><c>   5</c></rc>
    <rc><c>S </c><c>   5</c></rc>
    <rc><c>S </c><c>   5</c></rc>
    <rc><c>S </c><c>   5</c></rc>
    <rc><c>S </c><c>   5</c></rc>
    <rc><c>S </c><c>   5</c></rc>
    <rc><c>S </c><c>   5</c></rc>
   </set>
  </array>
  <array name="atomtypes" >
   <dimension dim="1">type</dimension>
   <field type="int">atomspertype</field>
   <field type="string">element</field>
   <field>mass</field>
   <field>valence</field>
   <field type="string">pseudopotential</field>
   <set>
    <rc><c>  10</c><c>C </c><c>     12.01100000</c><c>      4.00000000</c><c>  PAW_PBE C 08Apr2002                   </c></rc>
    <rc><c>   1</c><c>Co</c><c>     58.93300000</c><c>      9.00000000</c><c>  PAW_PBE Co 02Aug2007                  </c></rc>
    <rc><c>  10</c><c>H </c><c>      1.00000000</c><c>      1.00000000</c><c>  PAW_PBE H 15Jun2001                   </c></rc>
    <rc><c>  24</c><c>Mo</c><c>     95.94000000</c><c>      6.00000000</c><c>  PAW_PBE Mo 08Apr2002                  </c></rc>
    <rc><c>  48</c><c>S </c><c>     32.06600000</c><c>      6.00000000</c><c>  PAW_PBE S 06Sep2000                   </c></rc>
   </set>
  </array>
 </atominfo>
 <structure name="initialpos" >
  <crystal>
   <varray name="basis" >
    <v>       9.57094646       0.00000000       0.00000000 </v>
    <v>      -6.38062803      11.05157872       0.00000000 </v>
    <v>       0.00000000       0.00000000      34.88026251 </v>
   </varray>
   <i name="volume">   3689.42726549 </i>
   <varray name="rec_basis" >
    <v>       0.10448287       0.06032318       0.00000000 </v>
    <v>       0.00000000       0.09048481       0.00000000 </v>
    <v>       0.00000000       0.00000000       0.02866951 </v>
   </varray>
  </crystal>
  <varray name="positions" >
   <v>       0.90803117       0.46963347       0.00561251 </v>
   <v>       0.97924403       0.52315725       0.04168788 </v>
   <v>       0.93250973       0.56484984       0.97990743 </v>
   <v>       0.01936954       0.67727922       0.00007068 </v>
   <v>       0.04801989       0.65149448       0.03825689 </v>
   <v>       0.59876212       0.46699365       0.06245558 </v>
   <v>       0.68717047       0.66295648       0.04183885 </v>
   <v>       0.68394796       0.59149929       0.07383535 </v>
   <v>       0.60441874       0.58261970       0.01063455 </v>
   <v>       0.54966999       0.46150101       0.02340691 </v>
   <v>       0.80072041       0.56484515       0.02760480 </v>
   <v>       0.10833701       0.71774883       0.06087551 </v>
   <v>       0.73920545       0.62581530       0.10167072 </v>
   <v>       0.58813110       0.60906992       0.98208308 </v>
   <v>       0.74571165       0.76112785       0.04111988 </v>
   <v>       0.57803020       0.39026039       0.08009248 </v>
   <v>       0.97827901       0.47465956       0.06741341 </v>
   <v>       0.84362750       0.37337398       0.99917266 </v>
   <v>       0.89025681       0.55350090       0.95043938 </v>
   <v>       0.05426462       0.76641778       0.98872456 </v>
   <v>       0.48498718       0.37986879       0.00624254 </v>
   <v>       0.55555566       0.08333325       0.25000928 </v>
   <v>       0.55555566       0.33333325       0.25000928 </v>
   <v>       0.44444432       0.41666674       0.74999076 </v>
   <v>       0.55555566       0.58333325       0.25000928 </v>
   <v>       0.44444432       0.66666674       0.74999076 </v>
   <v>       0.55555566       0.83333325       0.25000928 </v>
   <v>       0.44444432       0.91666674       0.74999076 </v>
   <v>       0.88888899       0.33333325       0.25000928 </v>
   <v>       0.77777765       0.16666674       0.74999076 </v>
   <v>       0.77777765       0.41666674       0.74999076 </v>
   <v>       0.88888899       0.58333325       0.25000928 </v>
   <v>       0.77777765       0.66666674       0.74999076 </v>
   <v>       0.88888899       0.83333325       0.25000928 </v>
   <v>       0.77777765       0.91666674       0.74999076 </v>
   <v>       0.11111099       0.91666674       0.74999076 </v>
   <v>       0.88888899       0.08333325       0.25000928 </v>
   <v>       0.22222233       0.83333325       0.25000928 </v>
   <v>       0.44444432       0.16666674       0.74999076 </v>
   <v>       0.22222233       0.58333325       0.25000928 </v>
   <v>       0.11111099       0.41666674       0.74999076 </v>
   <v>       0.22222233       0.33333325       0.25000928 </v>
   <v>       0.22222233       0.08333325       0.25000928 </v>
   <v>       0.11111099       0.16666674       0.74999076 </v>
   <v>       0.11111099       0.66666674       0.74999076 </v>
   <v>       0.77777765       0.16666674       0.29487388 </v>
   <v>       0.88888899       0.08333325       0.79485533 </v>
   <v>       0.77777765       0.16666674       0.20514467 </v>
   <v>       0.88888899       0.08333325       0.70512613 </v>
   <v>       0.22222233       0.08333325       0.70512613 </v>
   <v>       0.11111099       0.16666674       0.20514467 </v>
   <v>       0.77777765       0.41666674       0.29487388 </v>
   <v>       0.88888899       0.33333325       0.79485533 </v>
   <v>       0.11111099       0.66666674       0.20514467 </v>
   <v>       0.55555566       0.83333325       0.70512613 </v>
   <v>       0.88888899       0.33333325       0.70512613 </v>
   <v>       0.22222233       0.08333325       0.79485533 </v>
   <v>       0.11111099       0.16666674       0.29487388 </v>
   <v>       0.77777765       0.66666674       0.29487388 </v>
   <v>       0.88888899       0.58333325       0.79485533 </v>
   <v>       0.77777765       0.66666674       0.20514467 </v>
   <v>       0.88888899       0.58333325       0.70512613 </v>
   <v>       0.77777765       0.91666674       0.29487388 </v>
   <v>       0.88888899       0.83333325       0.79485533 </v>
   <v>       0.77777765       0.41666674       0.20514467 </v>
   <v>       0.44444432       0.91666674       0.20514467 </v>
   <v>       0.44444432       0.91666674       0.29487388 </v>
   <v>       0.22222233       0.58333325       0.70512613 </v>
   <v>       0.22222233       0.58333325       0.79485533 </v>
   <v>       0.11111099       0.91666674       0.29487388 </v>
   <v>       0.22222233       0.83333325       0.79485533 </v>
   <v>       0.11111099       0.91666674       0.20514467 </v>
   <v>       0.22222233       0.83333325       0.70512613 </v>
   <v>       0.11111099       0.66666674       0.29487388 </v>
   <v>       0.77777765       0.91666674       0.20514467 </v>
   <v>       0.44444432       0.16666674       0.29487388 </v>
   <v>       0.55555566       0.08333325       0.79485533 </v>
   <v>       0.44444432       0.16666674       0.20514467 </v>
   <v>       0.55555566       0.08333325       0.70512613 </v>
   <v>       0.44444432       0.41666674       0.29487388 </v>
   <v>       0.55555566       0.33333325       0.79485533 </v>
   <v>       0.44444432       0.41666674       0.20514467 </v>
   <v>       0.55555566       0.33333325       0.70512613 </v>
   <v>       0.22222233       0.33333325       0.70512613 </v>
   <v>       0.11111099       0.41666674       0.20514467 </v>
   <v>       0.44444432       0.66666674       0.29487388 </v>
   <v>       0.55555566       0.58333325       0.79485533 </v>
   <v>       0.44444432       0.66666674       0.20514467 </v>
   <v>       0.55555566       0.58333325       0.70512613 </v>
   <v>       0.22222233       0.33333325       0.79485533 </v>
   <v>       0.11111099       0.41666674       0.29487388 </v>
   <v>       0.55555566       0.83333325       0.79485533 </v>
   <v>       0.88888899       0.83333325       0.70512613 </v>
  </varray>
 </structure>
 <calculation>
  <scstep>
   <time name="dav">    5.27    5.28</time>
   <time name="total">    5.67    5.69</time>
   <energy>
    <i name="alphaZ">    562.94535741 </i>
    <i name="ewald">  37881.41240977 </i>
    <i name="hartreedc"> -57297.76618608 </i>
    <i name="XCdc">   -701.07591332 </i>
    <i name="pawpsdc">  18640.80374730 </i>
    <i name="pawaedc"> -16838.49265242 </i>
    <i name="eentropy">     -0.15059362 </i>
    <i name="bandstr">   1239.13814267 </i>
    <i name="atom">  20917.06298232 </i>
    <i name="e_fr_energy">   4403.87729404 </i>
    <i name="e_wo_entrp">   4404.02788766 </i>
    <i name="e_0_energy">   4403.95259085 </i>
   </energy>
  </scstep>
  <scstep>
   <time name="dav">    7.83    7.85</time>
   <time name="total">    7.83    7.85</time>
   <energy>
    <i name="e_fr_energy">     -5.61781903 </i>
    <i name="e_wo_entrp">     -5.55416999 </i>
    <i name="e_0_energy">     -5.58599451 </i>
   </energy>
  </scstep>
  <scstep>
   <time name="dav">    6.00    6.03</time>
   <time name="total">    6.00    6.04</time>
   <energy>
    <i name="e_fr_energy">   -676.84110946 </i>
    <i name="e_wo_entrp">   -676.75141462 </i>
    <i name="e_0_energy">   -676.79626204 </i>
   </energy>
  </scstep>
  <scstep>
   <time name="dav">    6.68    6.70</time>
   <time name="total">    6.69    6.71</time>
   <energy>
    <i name="e_fr_energy">   -709.68689080 </i>
    <i name="e_wo_entrp">   -709.59703917 </i>
    <i name="e_0_energy">   -709.64196498 </i>
   </energy>
  </scstep>
  <scstep>
   <time name="dav">    7.02    7.04</time>
   <time name="total">    7.61    7.64</time>
   <energy>
    <i name="e_fr_energy">   -710.81979420 </i>
    <i name="e_wo_entrp">   -710.72617709 </i>
    <i name="e_0_energy">   -710.77298565 </i>
   </energy>
  </scstep>
  <scstep>
   <time name="dav">    6.46    6.48</time>
   <time name="total">    7.40    7.43</time>
   <energy>
    <i name="e_fr_energy">   -690.63873648 </i>
    <i name="e_wo_entrp">   -690.45452164 </i>
    <i name="e_0_energy">   -690.54662906 </i>
   </energy>
  </scstep>
  <scstep>
   <time name="dav">    6.45    6.47</time>
   <time name="total">    7.46    7.50</time>
   <energy>
    <i name="e_fr_energy">   -711.25392322 </i>
    <i name="e_wo_entrp">   -710.98220642 </i>
    <i name="e_0_energy">   -711.11806482 </i>
   </energy>
  </scstep>
  <scstep>
   <time name="dav">    6.62    6.64</time>
   <time name="total">    7.60    7.62</time>
   <energy>
    <i name="e_fr_energy">   -716.84303619 </i>
    <i name="e_wo_entrp">   -716.53108806 </i>
    <i name="e_0_energy">   -716.68706212 </i>
   </energy>
  </scstep>
  <scstep>
   <time name="dav">    6.20    6.22</time>
   <time name="total">    7.17    7.19</time>
   <energy>
    <i name="e_fr_energy">   -705.03759744 </i>
    <i name="e_wo_entrp">   -704.54893745 </i>
    <i name="e_0_energy">   -704.79326744 </i>
   </energy>
  </scstep>
  <scstep>
   <time name="dav">    6.61    6.63</time>
   <time name="total">    7.57    7.60</time>
   <energy>
    <i name="e_fr_energy">   -687.71580433 </i>
    <i name="e_wo_entrp">   -687.24054463 </i>
    <i name="e_0_energy">   -687.47817448 </i>
   </energy>
  </scstep>
  <scstep>
   <time name="dav">    6.46    6.47</time>
   <time name="total">    7.40    7.42</time>
   <energy>
    <i name="e_fr_energy">   -660.25443468 </i>
    <i name="e_wo_entrp">   -660.16490476 </i>
    <i name="e_0_energy">   -660.20966972 </i>
   </energy>
  </scstep>
  <scstep>
   <time name="dav">    6.76    6.78</time>
   <time name="total">    7.70    7.72</time>
   <energy>
    <i name="e_fr_energy">   -660.02179178 </i>
    <i name="e_wo_entrp">   -659.93190067 </i>
    <i name="e_0_energy">   -659.97684622 </i>
   </energy>
  </scstep>
  <scstep>
   <time name="dav">    7.09    7.10</time>
   <time name="total">    8.02    8.05</time>
   <energy>
    <i name="e_fr_energy">   -659.76811939 </i>
    <i name="e_wo_entrp">   -659.67044763 </i>
    <i name="e_0_energy">   -659.71928351 </i>
   </energy>
  </scstep>
  <scstep>
   <time name="dav">    6.87    6.90</time>
   <time name="total">    7.80    7.85</time>
   <energy>
    <i name="e_fr_energy">   -659.28066316 </i>
    <i name="e_wo_entrp">   -659.14578669 </i>
    <i name="e_0_energy">   -659.21322493 </i>
   </energy>
  </scstep>
  <scstep>
   <time name="dav">    6.81    6.83</time>
   <time name="total">    7.78    7.80</time>
   <energy>
    <i name="e_fr_energy">   -657.13108824 </i>
    <i name="e_wo_entrp">   -657.02006859 </i>
    <i name="e_0_energy">   -657.07557841 </i>
   </energy>
  </scstep>
  <scstep>
   <time name="dav">    6.95    7.01</time>
   <time name="total">    7.91    8.01</time>
   <energy>
    <i name="e_fr_energy">   -657.73530798 </i>
    <i name="e_wo_entrp">   -657.44848243 </i>
    <i name="e_0_energy">   -657.59189520 </i>
   </energy>
  </scstep>
  <scstep>
   <time name="dav">    6.40    6.47</time>
   <time name="total">    7.37    7.44</time>
   <energy>
    <i name="e_fr_energy">   -657.26593589 </i>
    <i name="e_wo_entrp">   -657.08663301 </i>
    <i name="e_0_energy">   -657.17628445 </i>
   </energy>
  </scstep>
  <scstep>
   <time name="dav">    6.76    6.78</time>
   <time name="total">    7.70    7.73</time>
   <energy>
    <i name="e_fr_energy">   -658.02920893 </i>
    <i name="e_wo_entrp">   -657.88809330 </i>
    <i name="e_0_energy">   -657.95865111 </i>
   </energy>
  </scstep>
  <scstep>
   <time name="dav">    6.38    6.40</time>
   <time name="total">    7.35    7.37</time>
   <energy>
    <i name="e_fr_energy">   -657.23398583 </i>
    <i name="e_wo_entrp">   -657.14107788 </i>
    <i name="e_0_energy">   -657.18753185 </i>
   </energy>
  </scstep>
  <scstep>
   <time name="dav">    6.57    6.61</time>
   <time name="total">    7.51    7.68</time>
   <energy>
    <i name="e_fr_energy">   -656.95975079 </i>
    <i name="e_wo_entrp">   -656.87008995 </i>
    <i name="e_0_energy">   -656.91492037 </i>
   </energy>
  </scstep>
  <scstep>
   <time name="dav">    6.33    6.34</time>
   <time name="total">    7.27    7.29</time>
   <energy>
    <i name="e_fr_energy">   -656.88784059 </i>
    <i name="e_wo_entrp">   -656.79813930 </i>
    <i name="e_0_energy">   -656.84298995 </i>
   </energy>
  </scstep>
  <scstep>
   <time name="dav">    6.40    6.47</time>
   <time name="total">    7.34    7.42</time>
   <energy>
    <i name="e_fr_energy">   -656.81738771 </i>
    <i name="e_wo_entrp">   -656.72778072 </i>
    <i name="e_0_energy">   -656.77258421 </i>
   </energy>
  </scstep>
  <scstep>
   <time name="dav">    6.63    6.66</time>
   <time name="total">    7.57    7.61</time>
   <energy>
    <i name="e_fr_energy">   -656.78358077 </i>
    <i name="e_wo_entrp">   -656.69382970 </i>
    <i name="e_0_energy">   -656.73870524 </i>
   </energy>
  </scstep>
  <scstep>
   <time name="dav">    6.29    6.30</time>
   <time name="total">    7.23    7.25</time>
   <energy>
    <i name="e_fr_energy">   -656.74485786 </i>
    <i name="e_wo_entrp">   -656.65522380 </i>
    <i name="e_0_energy">   -656.70004083 </i>
   </energy>
  </scstep>
  <scstep>
   <time name="dav">    6.40    6.46</time>
   <time name="total">    7.34    7.48</time>
   <energy>
    <i name="e_fr_energy">   -656.61407140 </i>
    <i name="e_wo_entrp">   -656.52423656 </i>
    <i name="e_0_energy">   -656.56915398 </i>
   </energy>
  </scstep>
  <scstep>
   <time name="dav">    6.88    6.92</time>
   <time name="total">    7.84    7.90</time>
   <energy>
    <i name="e_fr_energy">   -656.54723828 </i>
    <i name="e_wo_entrp">   -656.45741314 </i>
    <i name="e_0_energy">   -656.50232571 </i>
   </energy>
  </scstep>
  <scstep>
   <time name="dav">    6.67    6.69</time>
   <time name="total">    7.64    7.66</time>
   <energy>
    <i name="e_fr_energy">   -656.50454228 </i>
    <i name="e_wo_entrp">   -656.41273738 </i>
    <i name="e_0_energy">   -656.45863983 </i>
   </energy>
  </scstep>
  <scstep>
   <time name="dav">    6.56    6.61</time>
   <time name="total">    7.52    7.59</time>
   <energy>
    <i name="e_fr_energy">   -656.46715142 </i>
    <i name="e_wo_entrp">   -656.35617948 </i>
    <i name="e_0_energy">   -656.41166545 </i>
   </energy>
  </scstep>
  <scstep>
   <time name="dav">    6.27    6.29</time>
   <time name="total">    7.25    7.28</time>
   <energy>
    <i name="e_fr_energy">   -656.46414478 </i>
    <i name="e_wo_entrp">   -656.34664380 </i>
    <i name="e_0_energy">   -656.40539429 </i>
   </energy>
  </scstep>
  <scstep>
   <time name="dav">    5.91    5.94</time>
   <time name="total">    6.88    6.92</time>
   <energy>
    <i name="e_fr_energy">   -656.46102376 </i>
    <i name="e_wo_entrp">   -656.34791171 </i>
    <i name="e_0_energy">   -656.40446774 </i>
   </energy>
  </scstep>
  <scstep>
   <time name="dav">    6.58    6.62</time>
   <time name="total">    7.58    7.61</time>
   <energy>
    <i name="e_fr_energy">   -656.49096143 </i>
    <i name="e_wo_entrp">   -656.38755566 </i>
    <i name="e_0_energy">   -656.43925854 </i>
   </energy>
  </scstep>
  <scstep>
   <time name="dav">    5.99    6.01</time>
   <time name="total">    6.97    6.99</time>
   <energy>
    <i name="e_fr_energy">   -656.44580120 </i>
    <i name="e_wo_entrp">   -656.32905561 </i>
    <i name="e_0_energy">   -656.38742841 </i>
   </energy>
  </scstep>
  <scstep>
   <time name="dav">    5.71    5.76</time>
   <time name="total">    6.70    6.75</time>
   <energy>
    <i name="e_fr_energy">   -656.43663738 </i>
    <i name="e_wo_entrp">   -656.31889871 </i>
    <i name="e_0_energy">   -656.37776804 </i>
   </energy>
  </scstep>
  <scstep>
   <time name="dav">    5.20    5.22</time>
   <time name="total">    6.19    6.21</time>
   <energy>
    <i name="e_fr_energy">   -656.42844187 </i>
    <i name="e_wo_entrp">   -656.31165085 </i>
    <i name="e_0_energy">   -656.37004636 </i>
   </energy>
  </scstep>
  <scstep>
   <time name="dav">    5.62    5.64</time>
   <time name="total">    6.63    6.65</time>
   <energy>
    <i name="e_fr_energy">   -656.42079539 </i>
    <i name="e_wo_entrp">   -656.30542282 </i>
    <i name="e_0_energy">   -656.36310910 </i>
   </energy>
  </scstep>
  <scstep>
   <time name="dav">    4.97    4.98</time>
   <time name="total">    5.97    5.98</time>
   <energy>
    <i name="e_fr_energy">   -656.41505002 </i>
    <i name="e_wo_entrp">   -656.30126998 </i>
    <i name="e_0_energy">   -656.35816000 </i>
   </energy>
  </scstep>
  <scstep>
   <time name="dav">    4.79    4.83</time>
   <time name="total">    5.79    5.83</time>
   <energy>
    <i name="e_fr_energy">   -656.40927460 </i>
    <i name="e_wo_entrp">   -656.29617466 </i>
    <i name="e_0_energy">   -656.35272463 </i>
   </energy>
  </scstep>
  <scstep>
   <time name="dav">    5.17    5.22</time>
   <time name="total">    6.16    6.21</time>
   <energy>
    <i name="e_fr_energy">   -656.40181070 </i>
    <i name="e_wo_entrp">   -656.28690186 </i>
    <i name="e_0_energy">   -656.34435628 </i>
   </energy>
  </scstep>
  <scstep>
   <time name="dav">    3.72    3.75</time>
   <time name="total">    4.10    4.13</time>
   <energy>
    <i name="alphaZ">    562.94535741 </i>
    <i name="ewald">  37881.41240977 </i>
    <i name="hartreedc"> -57810.33168618 </i>
    <i name="XCdc">   -664.75975519 </i>
    <i name="pawpsdc">  43234.06529255 </i>
    <i name="pawaedc"> -41474.26540795 </i>
    <i name="eentropy">     -0.11502397 </i>
    <i name="bandstr">  -3302.41588001 </i>
    <i name="atom">  20917.06298232 </i>
    <i name="e_fr_energy">   -656.40171124 </i>
    <i name="e_wo_entrp">   -656.28668727 </i>
    <i name="e_0_energy">   -656.34419926 </i>
   </energy>
  </scstep>
  <structure>
   <crystal>
    <varray name="basis" >
     <v>       9.57094646       0.00000000       0.00000000 </v>
     <v>      -6.38062803      11.05157872       0.00000000 </v>
     <v>       0.00000000       0.00000000      34.88026251 </v>
    </varray>
    <i name="volume">   3689.42726549 </i>
    <varray name="rec_basis" >
     <v>       0.10448287       0.06032318       0.00000000 </v>
     <v>       0.00000000       0.09048481       0.00000000 </v>
     <v>       0.00000000       0.00000000       0.02866951 </v>
    </varray>
   </crystal>
   <varray name="positions" >
    <v>       0.90803117       0.46963347       0.00561251 </v>
    <v>       0.97924403       0.52315725       0.04168788 </v>
    <v>       0.93250973       0.56484984       0.97990743 </v>
    <v>       0.01936954       0.67727922       0.00007068 </v>
    <v>       0.04801989       0.65149448       0.03825689 </v>
    <v>       0.59876212       0.46699365       0.06245558 </v>
    <v>       0.68717047       0.66295648       0.04183885 </v>
    <v>       0.68394796       0.59149929       0.07383535 </v>
    <v>       0.60441874       0.58261970       0.01063455 </v>
    <v>       0.54966999       0.46150101       0.02340691 </v>
    <v>       0.80072041       0.56484515       0.02760480 </v>
    <v>       0.10833701       0.71774883       0.06087551 </v>
    <v>       0.73920545       0.62581530       0.10167072 </v>
    <v>       0.58813110       0.60906992       0.98208308 </v>
    <v>       0.74571165       0.76112785       0.04111988 </v>
    <v>       0.57803020       0.39026039       0.08009248 </v>
    <v>       0.97827901       0.47465956       0.06741341 </v>
    <v>       0.84362750       0.37337398       0.99917266 </v>
    <v>       0.89025681       0.55350090       0.95043938 </v>
    <v>       0.05426462       0.76641778       0.98872456 </v>
    <v>       0.48498718       0.37986879       0.00624254 </v>
    <v>       0.55555566       0.08333325       0.25000928 </v>
    <v>       0.55555566       0.33333325       0.25000928 </v>
    <v>       0.44444432       0.41666674       0.74999076 </v>
    <v>       0.55555566       0.58333325       0.25000928 </v>
    <v>       0.44444432       0.66666674       0.74999076 </v>
    <v>       0.55555566       0.83333325       0.25000928 </v>
    <v>       0.44444432       0.91666674       0.74999076 </v>
    <v>       0.88888899       0.33333325       0.25000928 </v>
    <v>       0.77777765       0.16666674       0.74999076 </v>
    <v>       0.77777765       0.41666674       0.74999076 </v>
    <v>       0.88888899       0.58333325       0.25000928 </v>
    <v>       0.77777765       0.66666674       0.74999076 </v>
    <v>       0.88888899       0.83333325       0.25000928 </v>
    <v>       0.77777765       0.91666674       0.74999076 </v>
    <v>       0.11111099       0.91666674       0.74999076 </v>
    <v>       0.88888899       0.08333325       0.25000928 </v>
    <v>       0.22222233       0.83333325       0.25000928 </v>
    <v>       0.44444432       0.16666674       0.74999076 </v>
    <v>       0.22222233       0.58333325       0.25000928 </v>
    <v>       0.11111099       0.41666674       0.74999076 </v>
    <v>       0.22222233       0.33333325       0.25000928 </v>
    <v>       0.22222233       0.08333325       0.25000928 </v>
    <v>       0.11111099       0.16666674       0.74999076 </v>
    <v>       0.11111099       0.66666674       0.74999076 </v>
    <v>       0.77777765       0.16666674       0.29487388 </v>
    <v>       0.88888899       0.08333325       0.79485533 </v>
    <v>       0.77777765       0.16666674       0.20514467 </v>
    <v>       0.88888899       0.08333325       0.70512613 </v>
    <v>       0.22222233       0.08333325       0.70512613 </v>
    <v>       0.11111099       0.16666674       0.20514467 </v>
    <v>       0.77777765       0.41666674       0.29487388 </v>
    <v>       0.88888899       0.33333325       0.79485533 </v>
    <v>       0.11111099       0.66666674       0.20514467 </v>
    <v>       0.55555566       0.83333325       0.70512613 </v>
    <v>       0.88888899       0.33333325       0.70512613 </v>
    <v>       0.22222233       0.08333325       0.79485533 </v>
    <v>       0.11111099       0.16666674       0.29487388 </v>
    <v>       0.77777765       0.66666674       0.29487388 </v>
    <v>       0.88888899       0.58333325       0.79485533 </v>
    <v>       0.77777765       0.66666674       0.20514467 </v>
    <v>       0.88888899       0.58333325       0.70512613 </v>
    <v>       0.77777765       0.91666674       0.29487388 </v>
    <v>       0.88888899       0.83333325       0.79485533 </v>
    <v>       0.77777765       0.41666674       0.20514467 </v>
    <v>       0.44444432       0.91666674       0.20514467 </v>
    <v>       0.44444432       0.91666674       0.29487388 </v>
    <v>       0.22222233       0.58333325       0.70512613 </v>
    <v>       0.22222233       0.58333325       0.79485533 </v>
    <v>       0.11111099       0.91666674       0.29487388 </v>
    <v>       0.22222233       0.83333325       0.79485533 </v>
    <v>       0.11111099       0.91666674       0.20514467 </v>
    <v>       0.22222233       0.83333325       0.70512613 </v>
    <v>       0.11111099       0.66666674       0.29487388 </v>
    <v>       0.77777765       0.91666674       0.20514467 </v>
    <v>       0.44444432       0.16666674       0.29487388 </v>
    <v>       0.55555566       0.08333325       0.79485533 </v>
    <v>       0.44444432       0.16666674       0.20514467 </v>
    <v>       0.55555566       0.08333325       0.70512613 </v>
    <v>       0.44444432       0.41666674       0.29487388 </v>
    <v>       0.55555566       0.33333325       0.79485533 </v>
    <v>       0.44444432       0.41666674       0.20514467 </v>
    <v>       0.55555566       0.33333325       0.70512613 </v>
    <v>       0.22222233       0.33333325       0.70512613 </v>
    <v>       0.11111099       0.41666674       0.20514467 </v>
    <v>       0.44444432       0.66666674       0.29487388 </v>
    <v>       0.55555566       0.58333325       0.79485533 </v>
    <v>       0.44444432       0.66666674       0.20514467 </v>
    <v>       0.55555566       0.58333325       0.70512613 </v>
    <v>       0.22222233       0.33333325       0.79485533 </v>
    <v>       0.11111099       0.41666674       0.29487388 </v>
    <v>       0.55555566       0.83333325       0.79485533 </v>
    <v>       0.88888899       0.83333325       0.70512613 </v>
   </varray>
  </structure>
  <varray name="forces" >
   <v>      -0.10391235       0.07793426       0.06710810 </v>
   <v>      -0.08992227       0.01036087       0.01125718 </v>
   <v>      -0.08911987       0.01734213       0.04414557 </v>
   <v>      -0.08928582      -0.08116432       0.03445745 </v>
   <v>      -0.09831730      -0.05865810       0.01706900 </v>
   <v>       0.08316291       0.06783260      -0.03293629 </v>
   <v>       0.10359054      -0.09593968      -0.04921589 </v>
   <v>       0.08836172      -0.02587898      -0.03699757 </v>
   <v>       0.09012523       0.00392601       0.00812831 </v>
   <v>       0.11318119       0.08193423       0.00211307 </v>
   <v>      -0.00730577       0.00328016      -0.01418780 </v>
   <v>      -0.00320867      -0.03720410       0.01165150 </v>
   <v>      -0.00421919      -0.00911828       0.01321849 </v>
   <v>       0.02796608      -0.01099596       0.01185629 </v>
   <v>       0.00057702      -0.02209591      -0.00210206 </v>
   <v>       0.00097737       0.03313591       0.01435257 </v>
   <v>      -0.01527319       0.02156319      -0.00291327 </v>
   <v>      -0.01348235       0.02464341      -0.00532611 </v>
   <v>      -0.00411424       0.00982221       0.01780702 </v>
   <v>      -0.00562618      -0.03123920      -0.01091480 </v>
   <v>       0.01166696       0.02218555      -0.00641126 </v>
   <v>       0.02481434       0.17577701      -0.01594269 </v>
   <v>       0.02060113       0.17617460      -0.01644073 </v>
   <v>      -0.01757500      -0.17746383       0.01149598 </v>
   <v>       0.01756137       0.17233041      -0.02093213 </v>
   <v>      -0.01743427      -0.17673950       0.01277347 </v>
   <v>       0.02384649       0.17643054      -0.01624036 </v>
   <v>      -0.01672071      -0.17674242       0.01277051 </v>
   <v>       0.02961223       0.17490330      -0.01789533 </v>
   <v>      -0.01158231      -0.17965654       0.01211849 </v>
   <v>      -0.01085604      -0.18011694       0.01150205 </v>
   <v>       0.02972555       0.17594216      -0.01818898 </v>
   <v>      -0.01240671      -0.17835229       0.01201422 </v>
   <v>       0.02574643       0.18337690      -0.01836515 </v>
   <v>      -0.01192563      -0.17855487       0.01234144 </v>
   <v>      -0.01827882      -0.17724145       0.01163208 </v>
   <v>       0.02658924       0.17848403      -0.01813674 </v>
   <v>       0.01762000       0.18028409      -0.01654507 </v>
   <v>      -0.01659030      -0.17806048       0.01193179 </v>
   <v>       0.02038633       0.17793169      -0.02033556 </v>
   <v>      -0.01824161      -0.17759300       0.01163606 </v>
   <v>       0.01662346       0.17802152      -0.02192908 </v>
   <v>       0.01580776       0.17967571      -0.01887864 </v>
   <v>      -0.01914882      -0.17701090       0.01118172 </v>
   <v>      -0.01753777      -0.17639440       0.01213615 </v>
   <v>      -0.01219998      -0.08802289      -0.20343517 </v>
   <v>       0.00775019       0.08964854      -0.19597213 </v>
   <v>      -0.01182681      -0.08949728       0.21461849 </v>
   <v>       0.00768560       0.08874403       0.18692995 </v>
   <v>       0.00895559       0.08863803       0.18691307 </v>
   <v>      -0.01119044      -0.08933830       0.21553640 </v>
   <v>      -0.01241510      -0.08778928      -0.20469890 </v>
   <v>       0.00831100       0.08895664      -0.19549577 </v>
   <v>      -0.01159580      -0.08974286       0.21023360 </v>
   <v>       0.00774891       0.08879810       0.18664603 </v>
   <v>       0.00808452       0.08812642       0.18724720 </v>
   <v>       0.00884061       0.08957308      -0.19551728 </v>
   <v>      -0.01093246      -0.08815928      -0.20304694 </v>
   <v>      -0.01184126      -0.08822149      -0.20462117 </v>
   <v>       0.00796603       0.08986834      -0.19383406 </v>
   <v>      -0.01233590      -0.09201266       0.19548741 </v>
   <v>       0.00770978       0.08880147       0.18750736 </v>
   <v>      -0.01154270      -0.08841656      -0.20356020 </v>
   <v>       0.00816870       0.08935383      -0.19554270 </v>
   <v>      -0.01337240      -0.08956745       0.20639185 </v>
   <v>      -0.01128319      -0.08989063       0.21420894 </v>
   <v>      -0.01159944      -0.08836901      -0.20355091 </v>
   <v>       0.00873227       0.08851013       0.18704018 </v>
   <v>       0.00871351       0.08971165      -0.19548899 </v>
   <v>      -0.01130496      -0.08841215      -0.20343656 </v>
   <v>       0.00916186       0.08996830      -0.19554477 </v>
   <v>      -0.01085225      -0.08913384       0.21341148 </v>
   <v>       0.00909509       0.08863707       0.18712971 </v>
   <v>      -0.01190975      -0.08790483      -0.20425612 </v>
   <v>      -0.01241247      -0.08949043       0.21402966 </v>
   <v>      -0.01142951      -0.08786623      -0.20355100 </v>
   <v>       0.00840563       0.08936706      -0.19631073 </v>
   <v>      -0.01151807      -0.08845697       0.21256848 </v>
   <v>       0.00837107       0.08856244       0.18732922 </v>
   <v>      -0.01102729      -0.08828762      -0.20366520 </v>
   <v>       0.00775069       0.08937841      -0.19512504 </v>
   <v>      -0.00929204      -0.08997294       0.20708767 </v>
   <v>       0.00774233       0.08862821       0.18707051 </v>
   <v>       0.00899543       0.08868743       0.18734105 </v>
   <v>      -0.01189186      -0.09020049       0.21285980 </v>
   <v>      -0.01086723      -0.08800982      -0.20309851 </v>
   <v>       0.00854129       0.08960499      -0.19576563 </v>
   <v>      -0.01051715      -0.08962017       0.21203465 </v>
   <v>       0.00862985       0.08845977       0.18766988 </v>
   <v>       0.00895641       0.08965263      -0.19589569 </v>
   <v>      -0.01145648      -0.08851563      -0.20327768 </v>
   <v>       0.00770730       0.09009837      -0.19564296 </v>
   <v>       0.00813275       0.08805255       0.18717850 </v>
  </varray>
  <varray name="stress" >
   <v>       3.39970573      -0.00801392       0.43360269 </v>
   <v>      -0.00801392      -2.92463246       0.02027953 </v>
   <v>       0.43360266       0.02027959      -7.14365325 </v>
  </varray>
  <energy>
   <i name="e_fr_energy">   -671.33081237 </i>
   <i name="e_wo_entrp">   -671.27330039 </i>
   <i name="e_0_energy">     -0.11502397 </i>
  </energy>
  <time name="totalsc">  287.35  289.02</time>
 </calculation>
 <calculation>
  <scstep>
   <time name="dav">    5.33    5.38</time>
   <time name="total">    6.31    6.37</time>
   <energy>
    <i name="alphaZ">    562.94535741 </i>
    <i name="ewald">  38122.30195046 </i>
    <i name="hartreedc"> -58040.32638502 </i>
    <i name="XCdc">   -663.58512911 </i>
    <i name="pawpsdc">  43234.07134634 </i>
    <i name="pawaedc"> -41474.27277425 </i>
    <i name="eentropy">     -0.12195630 </i>
    <i name="bandstr">  -3314.49086033 </i>
    <i name="atom">  20917.06298232 </i>
    <i name="e_fr_energy">   -656.41546846 </i>
    <i name="e_wo_entrp">   -656.29351217 </i>
    <i name="e_0_energy">   -656.35449032 </i>
   </energy>
  </scstep>
  <scstep>
   <time name="dav">    6.34    6.36</time>
   <time name="total">    7.30    7.34</time>
   <energy>
    <i name="e_fr_energy">   -656.49941583 </i>
    <i name="e_wo_entrp">   -656.40211719 </i>
    <i name="e_0_energy">   -656.45076651 </i>
   </energy>
  </scstep>
  <scstep>
   <time name="dav">    6.46    6.51</time>
   <time name="total">    7.44    7.50</time>
   <energy>
    <i name="e_fr_energy">   -656.73069680 </i>
    <i name="e_wo_entrp">   -656.62270397 </i>
    <i name="e_0_energy">   -656.67670039 </i>
   </energy>
  </scstep>
  <scstep>
   <time name="dav">    6.18    6.21</time>
   <time name="total">    7.16    7.19</time>
   <energy>
    <i name="e_fr_energy">   -656.46647451 </i>
    <i name="e_wo_entrp">   -656.34966418 </i>
    <i name="e_0_energy">   -656.40806935 </i>
   </energy>
  </scstep>
  <scstep>
   <time name="dav">    6.16    6.20</time>
   <time name="total">    7.13    7.19</time>
   <energy>
    <i name="e_fr_energy">   -656.46647228 </i>
    <i name="e_wo_entrp">   -656.34579324 </i>
    <i name="e_0_energy">   -656.40613276 </i>
   </energy>
  </scstep>
  <scstep>
   <time name="dav">    6.25    6.30</time>
   <time name="total">    7.23    7.28</time>
   <energy>
    <i name="e_fr_energy">   -656.45781298 </i>
    <i name="e_wo_entrp">   -656.34105977 </i>
    <i name="e_0_energy">   -656.39943637 </i>
   </energy>
  </scstep>
  <scstep>
   <time name="dav">    6.63    6.68</time>
   <time name="total">    7.61    7.67</time>
   <energy>
    <i name="e_fr_energy">   -656.45921561 </i>
    <i name="e_wo_entrp">   -656.35300729 </i>
    <i name="e_0_energy">   -656.40611145 </i>
   </energy>
  </scstep>
  <scstep>
   <time name="dav">    6.32    6.43</time>
   <time name="total">    7.29    7.41</time>
   <energy>
    <i name="e_fr_energy">   -656.45517046 </i>
    <i name="e_wo_entrp">   -656.33816126 </i>
    <i name="e_0_energy">   -656.39666586 </i>
   </energy>
  </scstep>
  <scstep>
   <time name="dav">    5.81    5.86</time>
   <time name="total">    6.79    6.84</time>
   <energy>
    <i name="e_fr_energy">   -656.45353850 </i>
    <i name="e_wo_entrp">   -656.33817171 </i>
    <i name="e_0_energy">   -656.39585510 </i>
   </energy>
  </scstep>
  <scstep>
   <time name="dav">    5.02    5.06</time>
   <time name="total">    5.99    6.05</time>
   <energy>
    <i name="e_fr_energy">   -656.45137763 </i>
    <i name="e_wo_entrp">   -656.32997637 </i>
    <i name="e_0_energy">   -656.39067700 </i>
   </energy>
  </scstep>
  <scstep>
   <time name="dav">    6.00    6.09</time>
   <time name="total">    6.99    7.09</time>
   <energy>
    <i name="e_fr_energy">   -656.45065797 </i>
    <i name="e_wo_entrp">   -656.32400827 </i>
    <i name="e_0_energy">   -656.38733312 </i>
   </energy>
  </scstep>
  <scstep>
   <time name="dav">    4.53    4.56</time>
   <time name="total">    5.51    5.56</time>
   <energy>
    <i name="e_fr_energy">   -656.45018851 </i>
    <i name="e_wo_entrp">   -656.32573648 </i>
    <i name="e_0_energy">   -656.38796249 </i>
   </energy>
  </scstep>
  <scstep>
   <time name="dav">    4.06    4.09</time>
   <time name="total">    4.43    4.47</time>
   <energy>
    <i name="alphaZ">    562.94535741 </i>
    <i name="ewald">  38122.30195046 </i>
    <i name="hartreedc"> -58042.94886800 </i>
    <i name="XCdc">   -663.60487974 </i>
    <i name="pawpsdc">  43630.82801274 </i>
    <i name="pawaedc"> -41871.71330277 </i>
    <i name="eentropy">     -0.12398462 </i>
    <i name="bandstr">  -3311.19749740 </i>
    <i name="atom">  20917.06298232 </i>
    <i name="e_fr_energy">   -656.45022960 </i>
    <i name="e_wo_entrp">   -656.32624498 </i>
    <i name="e_0_energy">   -656.38823729 </i>
   </energy>
  </scstep>
  <structure>
   <crystal>
    <varray name="basis" >
     <v>       9.57094646       0.00000000       0.00000000 </v>
     <v>      -6.38062803      11.05157872       0.00000000 </v>
     <v>       0.00000000       0.00000000      34.88026251 </v>
    </varray>
    <i name="volume">   3689.42726549 </i>
    <varray name="rec_basis" >
     <v>       0.10448287       0.06032318       0.00000000 </v>
     <v>       0.00000000       0.09048481       0.00000000 </v>
     <v>       0.00000000       0.00000000       0.02866951 </v>
    </varray>
   </crystal>
   <varray name="positions" >
    <v>       0.90773420       0.46997367       0.00570532 </v>
    <v>       0.97882092       0.52320248       0.04170345 </v>
    <v>       0.93211099       0.56492554       0.97996849 </v>
    <v>       0.01868329       0.67692492       0.00011833 </v>
    <v>       0.04735361       0.65123843       0.03828050 </v>
    <v>       0.59937871       0.46728976       0.06241003 </v>
    <v>       0.68741342       0.66253768       0.04177078 </v>
    <v>       0.68431804       0.59138632       0.07378418 </v>
    <v>       0.60488445       0.58263684       0.01064579 </v>
    <v>       0.55047892       0.46185867       0.02340983 </v>
    <v>       0.80069313       0.56485947       0.02758517 </v>
    <v>       0.10821256       0.71758643       0.06089162 </v>
    <v>       0.73915765       0.62577550       0.10168901 </v>
    <v>       0.58824006       0.60902192       0.98209947 </v>
    <v>       0.74565025       0.76103139       0.04111697 </v>
    <v>       0.57813156       0.39040504       0.08011233 </v>
    <v>       0.97826477       0.47475369       0.06740938 </v>
    <v>       0.84363126       0.37348155       0.99916529 </v>
    <v>       0.89026466       0.55354378       0.95046401 </v>
    <v>       0.05414535       0.76628141       0.98870946 </v>
    <v>       0.48511055       0.37996563       0.00623367 </v>
    <v>       0.55619227       0.08410055       0.24998723 </v>
    <v>       0.55617219       0.33410229       0.24998654 </v>
    <v>       0.44383929       0.41589207       0.75000666 </v>
    <v>       0.55614569       0.58408551       0.24998033 </v>
    <v>       0.44384210       0.66589523       0.75000842 </v>
    <v>       0.55618930       0.83410341       0.24998682 </v>
    <v>       0.44384569       0.91589522       0.75000842 </v>
    <v>       0.88954725       0.33409674       0.24998453 </v>
    <v>       0.77719644       0.16588250       0.75000752 </v>
    <v>       0.77719877       0.41588049       0.75000667 </v>
    <v>       0.88955084       0.58410127       0.24998413 </v>
    <v>       0.77719608       0.66588819       0.75000737 </v>
    <v>       0.88955242       0.83413373       0.24998388 </v>
    <v>       0.77719792       0.91588731       0.75000783 </v>
    <v>       0.11050305       0.91589304       0.75000685 </v>
    <v>       0.88954243       0.08411237       0.24998420 </v>
    <v>       0.22283579       0.83412023       0.24998640 </v>
    <v>       0.44384251       0.16588947       0.75000726 </v>
    <v>       0.22284289       0.58410996       0.24998116 </v>
    <v>       0.11050222       0.41589151       0.75000685 </v>
    <v>       0.22282419       0.33411035       0.24997895 </v>
    <v>       0.22282489       0.08411757       0.24998317 </v>
    <v>       0.11049934       0.16589405       0.75000622 </v>
    <v>       0.11050925       0.66589674       0.75000754 </v>
    <v>       0.77746000       0.16628250       0.29459251 </v>
    <v>       0.88918895       0.08372458       0.79458428 </v>
    <v>       0.77745759       0.16627607       0.20544151 </v>
    <v>       0.88918599       0.08372064       0.70538467 </v>
    <v>       0.22252542       0.08372017       0.70538465 </v>
    <v>       0.11079459       0.16627676       0.20544278 </v>
    <v>       0.77745959       0.41628352       0.29459076 </v>
    <v>       0.88918976       0.33372156       0.79458494 </v>
    <v>       0.11079137       0.66627499       0.20543544 </v>
    <v>       0.55585313       0.83372087       0.70538428 </v>
    <v>       0.88918620       0.33371794       0.70538511 </v>
    <v>       0.22252756       0.08372425       0.79458491 </v>
    <v>       0.11079932       0.16628191       0.29459305 </v>
    <v>       0.77746123       0.66628164       0.29459087 </v>
    <v>       0.88919068       0.58372554       0.79458724 </v>
    <v>       0.77744770       0.66626509       0.20541505 </v>
    <v>       0.88918628       0.58372089       0.70538547 </v>
    <v>       0.77746217       0.91628078       0.29459234 </v>
    <v>       0.88919020       0.83372330       0.79458487 </v>
    <v>       0.77744959       0.41627576       0.20543013 </v>
    <v>       0.44412585       0.91627435       0.20544094 </v>
    <v>       0.44412868       0.91628099       0.29459235 </v>
    <v>       0.22252392       0.58371961       0.70538483 </v>
    <v>       0.22252732       0.58372486       0.79458495 </v>
    <v>       0.11079671       0.91628080       0.29459251 </v>
    <v>       0.22253033       0.83372598       0.79458487 </v>
    <v>       0.11079689       0.91627765       0.20543984 </v>
    <v>       0.22252612       0.83372017       0.70538495 </v>
    <v>       0.11079514       0.66628302       0.29459138 </v>
    <v>       0.77745466       0.91627610       0.20544069 </v>
    <v>       0.44413100       0.16628319       0.29459235 </v>
    <v>       0.55585810       0.08372335       0.79458381 </v>
    <v>       0.44412884       0.16628061       0.20543867 </v>
    <v>       0.55585558       0.08371984       0.70538523 </v>
    <v>       0.44413181       0.41628135       0.29459219 </v>
    <v>       0.55585483       0.33372340       0.79458545 </v>
    <v>       0.44413565       0.41627399       0.20543109 </v>
    <v>       0.55585261       0.33372013       0.70538487 </v>
    <v>       0.22252576       0.33372039       0.70538524 </v>
    <v>       0.11078855       0.41627300       0.20543908 </v>
    <v>       0.44413342       0.66628256       0.29459298 </v>
    <v>       0.55585948       0.58372439       0.79458457 </v>
    <v>       0.44413050       0.66627553       0.20543794 </v>
    <v>       0.55585659       0.58371939       0.70538570 </v>
    <v>       0.22252837       0.33372460       0.79458439 </v>
    <v>       0.11079565       0.41628035       0.29459273 </v>
    <v>       0.55585671       0.83372655       0.79458474 </v>
    <v>       0.88918623       0.83371762       0.70538502 </v>
   </varray>
  </structure>
  <varray name="forces" >
   <v>      -0.10975653      -0.22639042      -0.04718673 </v>
   <v>      -0.01559217      -0.04666817       0.14918917 </v>
   <v>      -0.09228697      -0.03452657      -0.07933562 </v>
   <v>      -0.11778829       0.18146911      -0.03099131 </v>
   <v>      -0.06622445       0.08015208       0.13109867 </v>
   <v>       0.12141204      -0.14097258       0.10089342 </v>
   <v>       0.08464714       0.28574714       0.00940129 </v>
   <v>       0.10781221       0.06282471       0.11675719 </v>
   <v>       0.00325311       0.01353621      -0.17648174 </v>
   <v>       0.07753136      -0.17493453      -0.14931715 </v>
   <v>       0.00616944       0.00209629       0.00320798 </v>
   <v>      -0.02165348      -0.05024618      -0.00607209 </v>
   <v>       0.00017840      -0.01443539      -0.01712593 </v>
   <v>       0.03626239      -0.00802901       0.01694499 </v>
   <v>       0.02197879      -0.12849783      -0.00559227 </v>
   <v>       0.00305341       0.05835869      -0.01465654 </v>
   <v>      -0.02358140       0.01171451       0.00346779 </v>
   <v>      -0.02692817       0.10918690       0.02420274 </v>
   <v>      -0.01720338       0.00653235       0.01076989 </v>
   <v>      -0.00594799      -0.07767848       0.01832660 </v>
   <v>       0.03525716       0.09214672       0.04082776 </v>
   <v>      -0.01273822      -0.08149081       0.01307173 </v>
   <v>      -0.01105896      -0.08117776       0.01048256 </v>
   <v>       0.00627605       0.08197895      -0.01050681 </v>
   <v>      -0.00886707      -0.08092787       0.00868772 </v>
   <v>       0.00557075       0.08258177      -0.01096413 </v>
   <v>      -0.01158747      -0.08333356       0.01324834 </v>
   <v>       0.00582833       0.08205622      -0.01145337 </v>
   <v>      -0.01688390      -0.08129769       0.01162663 </v>
   <v>       0.00288789       0.08349510      -0.01145545 </v>
   <v>       0.00232376       0.08373236      -0.01024641 </v>
   <v>      -0.01640639      -0.08293525       0.00663673 </v>
   <v>       0.00326969       0.08313043      -0.01053743 </v>
   <v>      -0.01561241      -0.08671763       0.00904845 </v>
   <v>       0.00265022       0.08303458      -0.01155291 </v>
   <v>       0.00806363       0.08306316      -0.01098117 </v>
   <v>      -0.01502386      -0.08402630       0.01479209 </v>
   <v>      -0.00856985      -0.08376068       0.01224963 </v>
   <v>       0.00529029       0.08228782      -0.01108699 </v>
   <v>      -0.00940440      -0.08259874       0.01239378 </v>
   <v>       0.00789966       0.08340378      -0.01060448 </v>
   <v>      -0.00712005      -0.08225056       0.01320939 </v>
   <v>      -0.00767624      -0.08346586       0.01422403 </v>
   <v>       0.00855702       0.08233186      -0.01082699 </v>
   <v>       0.00800564       0.08247446      -0.01046653 </v>
   <v>       0.00671308       0.04046316      -0.03441125 </v>
   <v>      -0.00151251      -0.04214275      -0.02330656 </v>
   <v>       0.00628720       0.04014908       0.01438197 </v>
   <v>      -0.00163693      -0.04232873       0.03673537 </v>
   <v>      -0.00292792      -0.04065166       0.03803271 </v>
   <v>       0.00451328       0.04171329       0.01103553 </v>
   <v>       0.00679397       0.04023571      -0.03669868 </v>
   <v>      -0.00180307      -0.04190614      -0.02330220 </v>
   <v>       0.00569113       0.04206796       0.01187452 </v>
   <v>      -0.00183309      -0.04070660       0.03883985 </v>
   <v>      -0.00173508      -0.04201961       0.03668540 </v>
   <v>      -0.00326657      -0.04061541      -0.02514975 </v>
   <v>       0.00476548       0.04297928      -0.03336075 </v>
   <v>       0.00493944       0.04038829      -0.04114485 </v>
   <v>      -0.00142481      -0.04225895      -0.02358551 </v>
   <v>       0.00574604       0.03967406       0.01142542 </v>
   <v>      -0.00133338      -0.04215492       0.03775975 </v>
   <v>       0.00667999       0.04140739      -0.03447165 </v>
   <v>      -0.00188210      -0.04128687      -0.02330282 </v>
   <v>       0.00627432       0.03927107       0.01347531 </v>
   <v>       0.00551068       0.04081317       0.01485908 </v>
   <v>       0.00513844       0.04074916      -0.03376380 </v>
   <v>      -0.00275477      -0.04024244       0.03835082 </v>
   <v>      -0.00301496      -0.04039742      -0.02484473 </v>
   <v>       0.00404051       0.04340890      -0.03297339 </v>
   <v>      -0.00314802      -0.04025407      -0.02444156 </v>
   <v>       0.00502534       0.04329853       0.01208831 </v>
   <v>      -0.00274802      -0.04040816       0.03813949 </v>
   <v>       0.00577546       0.04146798      -0.03445774 </v>
   <v>       0.00571938       0.04167037       0.01398929 </v>
   <v>       0.00434534       0.04028779      -0.03501422 </v>
   <v>      -0.00232501      -0.04052279      -0.02389829 </v>
   <v>       0.00540836       0.04060026       0.01450984 </v>
   <v>      -0.00218160      -0.04085540       0.03774338 </v>
   <v>       0.00306059       0.04034477      -0.03620042 </v>
   <v>      -0.00184504      -0.04076965      -0.02515883 </v>
   <v>       0.00544849       0.03903446       0.01088746 </v>
   <v>      -0.00162978      -0.04099318       0.03840333 </v>
   <v>      -0.00307667      -0.04062647       0.03737289 </v>
   <v>       0.00429471       0.04143931       0.01103891 </v>
   <v>       0.00525846       0.03941309      -0.03559872 </v>
   <v>      -0.00268451      -0.04037143      -0.02445637 </v>
   <v>       0.00498939       0.04071782       0.01322000 </v>
   <v>      -0.00264944      -0.04036673       0.03819808 </v>
   <v>      -0.00315466      -0.04084742      -0.02474313 </v>
   <v>       0.00566034       0.04200208      -0.03456334 </v>
   <v>      -0.00185530      -0.04033467      -0.02460934 </v>
   <v>      -0.00192289      -0.04150886       0.03709464 </v>
  </varray>
  <varray name="stress" >
   <v>       3.96265614       0.24442222       0.31302584 </v>
   <v>       0.24442212      -4.35466825       0.02215749 </v>
   <v>       0.31302579       0.02215751      -2.52904248 </v>
  </varray>
  <energy>
   <i name="e_fr_energy">   -671.40087350 </i>
   <i name="e_wo_entrp">   -671.33888119 </i>
   <i name="e_0_energy">     -0.12398462 </i>
  </energy>
  <time name="totalsc">   96.98   97.80</time>
 </calculation>
 <calculation>
  <scstep>
   <time name="dav">    5.40    5.44</time>
   <time name="total">    6.37    6.44</time>
   <energy>
    <i name="alphaZ">    562.94535741 </i>
    <i name="ewald">  38101.88557374 </i>
    <i name="hartreedc"> -58023.49608149 </i>
    <i name="XCdc">   -663.70775017 </i>
    <i name="pawpsdc">  43631.64326113 </i>
    <i name="pawaedc"> -41872.52240266 </i>
    <i name="eentropy">     -0.12194888 </i>
    <i name="bandstr">  -3310.14162406 </i>
    <i name="atom">  20917.06298232 </i>
    <i name="e_fr_energy">   -656.45263266 </i>
    <i name="e_wo_entrp">   -656.33068378 </i>
    <i name="e_0_energy">   -656.39165822 </i>
   </energy>
  </scstep>
  <scstep>
   <time name="dav">    6.31    6.36</time>
   <time name="total">    7.28    7.34</time>
   <energy>
    <i name="e_fr_energy">   -656.49442696 </i>
    <i name="e_wo_entrp">   -656.37249578 </i>
    <i name="e_0_energy">   -656.43346137 </i>
   </energy>
  </scstep>
  <scstep>
   <time name="dav">    6.28    6.31</time>
   <time name="total">    7.26    7.29</time>
   <energy>
    <i name="e_fr_energy">   -656.45632656 </i>
    <i name="e_wo_entrp">   -656.33964319 </i>
    <i name="e_0_energy">   -656.39798487 </i>
   </energy>
  </scstep>
  <scstep>
   <time name="dav">    5.37    5.38</time>
   <time name="total">    6.35    6.37</time>
   <energy>
    <i name="e_fr_energy">   -656.45374228 </i>
    <i name="e_wo_entrp">   -656.32664355 </i>
    <i name="e_0_energy">   -656.39019292 </i>
   </energy>
  </scstep>
  <scstep>
   <time name="dav">    4.91    4.93</time>
   <time name="total">    5.89    5.92</time>
   <energy>
    <i name="e_fr_energy">   -656.45280464 </i>
    <i name="e_wo_entrp">   -656.32840581 </i>
    <i name="e_0_energy">   -656.39060523 </i>
   </energy>
  </scstep>
  <scstep>
   <time name="dav">    4.80    4.82</time>
   <time name="total">    5.79    5.80</time>
   <energy>
    <i name="e_fr_energy">   -656.45303762 </i>
    <i name="e_wo_entrp">   -656.33121573 </i>
    <i name="e_0_energy">   -656.39212668 </i>
   </energy>
  </scstep>
  <scstep>
   <time name="dav">    4.20    4.21</time>
   <time name="total">    4.57    4.59</time>
   <energy>
    <i name="alphaZ">    562.94535741 </i>
    <i name="ewald">  38101.88557374 </i>
    <i name="hartreedc"> -58023.32504835 </i>
    <i name="XCdc">   -663.70405725 </i>
    <i name="pawpsdc">  43604.51740583 </i>
    <i name="pawaedc"> -41845.33772894 </i>
    <i name="eentropy">     -0.12187530 </i>
    <i name="bandstr">  -3310.37562144 </i>
    <i name="atom">  20917.06298232 </i>
    <i name="e_fr_energy">   -656.45301198 </i>
    <i name="e_wo_entrp">   -656.33113668 </i>
    <i name="e_0_energy">   -656.39207433 </i>
   </energy>
  </scstep>
  <structure>
   <crystal>
    <varray name="basis" >
     <v>       9.57094646       0.00000000       0.00000000 </v>
     <v>      -6.38062803      11.05157872       0.00000000 </v>
     <v>       0.00000000       0.00000000      34.88026251 </v>
    </varray>
    <i name="volume">   3689.42726549 </i>
    <varray name="rec_basis" >
     <v>       0.10448287       0.06032318       0.00000000 </v>
     <v>       0.00000000       0.09048481       0.00000000 </v>
     <v>       0.00000000       0.00000000       0.02866951 </v>
    </varray>
   </crystal>
   <varray name="positions" >
    <v>       0.90775933       0.46994488       0.00569747 </v>
    <v>       0.97885673       0.52319865       0.04170213 </v>
    <v>       0.93214473       0.56491914       0.97996332 </v>
    <v>       0.01874137       0.67695490       0.00011430 </v>
    <v>       0.04741000       0.65126010       0.03827850 </v>
    <v>       0.59932653       0.46726470       0.06241388 </v>
    <v>       0.68739286       0.66257313       0.04177654 </v>
    <v>       0.68428672       0.59139588       0.07378851 </v>
    <v>       0.60484503       0.58263539       0.01064484 </v>
    <v>       0.55041046       0.46182840       0.02340958 </v>
    <v>       0.80069544       0.56485826       0.02758684 </v>
    <v>       0.10822310       0.71760017       0.06089026 </v>
    <v>       0.73916170       0.62577887       0.10168746 </v>
    <v>       0.58823084       0.60902598       0.98209809 </v>
    <v>       0.74565545       0.76103956       0.04111722 </v>
    <v>       0.57812298       0.39039279       0.08011065 </v>
    <v>       0.97826598       0.47474573       0.06740972 </v>
    <v>       0.84363094       0.37347245       0.99916592 </v>
    <v>       0.89026400       0.55354015       0.95046193 </v>
    <v>       0.05415545       0.76629296       0.98871074 </v>
    <v>       0.48510011       0.37995743       0.00623442 </v>
    <v>       0.55613839       0.08403561       0.24998910 </v>
    <v>       0.55612001       0.33403720       0.24998847 </v>
    <v>       0.44389049       0.41595764       0.75000531 </v>
    <v>       0.55609575       0.58402184       0.24998278 </v>
    <v>       0.44389307       0.66596053       0.75000693 </v>
    <v>       0.55613567       0.83403822       0.24998872 </v>
    <v>       0.44389636       0.91596052       0.75000693 </v>
    <v>       0.88949154       0.33403212       0.24998663 </v>
    <v>       0.77724564       0.16594888       0.75000610 </v>
    <v>       0.77724776       0.41594704       0.75000532 </v>
    <v>       0.88949483       0.58403627       0.24998626 </v>
    <v>       0.77724531       0.66595409       0.75000597 </v>
    <v>       0.88949627       0.83406598       0.24998603 </v>
    <v>       0.77724699       0.91595328       0.75000638 </v>
    <v>       0.11055450       0.91595853       0.75000548 </v>
    <v>       0.88948713       0.08404643       0.24998632 </v>
    <v>       0.22278387       0.83405362       0.24998834 </v>
    <v>       0.44389345       0.16595525       0.75000586 </v>
    <v>       0.22279037       0.58404422       0.24998354 </v>
    <v>       0.11055374       0.41595712       0.75000549 </v>
    <v>       0.22277325       0.33404458       0.24998152 </v>
    <v>       0.22277389       0.08405119       0.24998538 </v>
    <v>       0.11055110       0.16595945       0.75000491 </v>
    <v>       0.11056018       0.66596191       0.75000612 </v>
    <v>       0.77748688       0.16631502       0.29461633 </v>
    <v>       0.88916356       0.08369146       0.79460722 </v>
    <v>       0.77748468       0.16630913       0.20541639 </v>
    <v>       0.88916085       0.08368785       0.70536279 </v>
    <v>       0.22249976       0.08368742       0.70536277 </v>
    <v>       0.11082137       0.16630977       0.20541755 </v>
    <v>       0.77748651       0.41631596       0.29461473 </v>
    <v>       0.88916431       0.33368870       0.79460782 </v>
    <v>       0.11081842       0.66630815       0.20541083 </v>
    <v>       0.55582796       0.83368806       0.70536243 </v>
    <v>       0.88916105       0.33368538       0.70536319 </v>
    <v>       0.22250172       0.08369116       0.79460780 </v>
    <v>       0.11082570       0.16631448       0.29461682 </v>
    <v>       0.77748801       0.66631423       0.29461482 </v>
    <v>       0.88916514       0.58369234       0.79460993 </v>
    <v>       0.77747563       0.66629908       0.20539217 </v>
    <v>       0.88916112       0.58368808       0.70536352 </v>
    <v>       0.77748887       0.91631345       0.29461617 </v>
    <v>       0.88916471       0.83369028       0.79460776 </v>
    <v>       0.77747736       0.41630885       0.20540597 </v>
    <v>       0.44415280       0.91630756       0.20541587 </v>
    <v>       0.44415540       0.91631364       0.29461618 </v>
    <v>       0.22249839       0.58368691       0.70536293 </v>
    <v>       0.22250151       0.58369171       0.79460783 </v>
    <v>       0.11082331       0.91631347       0.29461632 </v>
    <v>       0.22250426       0.83369274       0.79460776 </v>
    <v>       0.11082348       0.91631058       0.20541486 </v>
    <v>       0.22250041       0.83368742       0.70536304 </v>
    <v>       0.11082187       0.66631549       0.29461529 </v>
    <v>       0.77748199       0.91630916       0.20541564 </v>
    <v>       0.44415752       0.16631565       0.29461618 </v>
    <v>       0.55583250       0.08369034       0.79460679 </v>
    <v>       0.44415554       0.16631329       0.20541379 </v>
    <v>       0.55583020       0.08368712       0.70536330 </v>
    <v>       0.44415826       0.41631397       0.29461603 </v>
    <v>       0.55582951       0.33369038       0.79460829 </v>
    <v>       0.44416177       0.41630723       0.20540685 </v>
    <v>       0.55582747       0.33368739       0.70536297 </v>
    <v>       0.22250008       0.33368762       0.70536331 </v>
    <v>       0.11081584       0.41630632       0.20541416 </v>
    <v>       0.44415973       0.66631508       0.29461675 </v>
    <v>       0.55583376       0.58369129       0.79460748 </v>
    <v>       0.44415706       0.66630864       0.20541311 </v>
    <v>       0.55583112       0.58368671       0.70536373 </v>
    <v>       0.22250247       0.33369148       0.79460732 </v>
    <v>       0.11082233       0.41631305       0.29461653 </v>
    <v>       0.55583123       0.83369326       0.79460764 </v>
    <v>       0.88916108       0.83368509       0.70536311 </v>
   </varray>
  </structure>
  <varray name="forces" >
   <v>      -0.10591423      -0.19055071      -0.03134321 </v>
   <v>      -0.01702937      -0.03746722       0.12937429 </v>
   <v>      -0.08514302      -0.02440697      -0.06008291 </v>
   <v>      -0.10908255       0.14974292      -0.02544671 </v>
   <v>      -0.06862457       0.05929357       0.11511609 </v>
   <v>       0.11066954      -0.11496380       0.08931463 </v>
   <v>       0.08271972       0.24234676       0.00316985 </v>
   <v>       0.10149824       0.04725832       0.09698916 </v>
   <v>       0.00626613       0.01260037      -0.14857466 </v>
   <v>       0.08057073      -0.14398371      -0.12807623 </v>
   <v>       0.00495032       0.00182876       0.00282343 </v>
   <v>      -0.02013782      -0.05339907      -0.00917307 </v>
   <v>      -0.00312588      -0.01654972      -0.02002269 </v>
   <v>       0.03607926      -0.00998154       0.02274866 </v>
   <v>       0.01947403      -0.12611083      -0.00473754 </v>
   <v>      -0.00037035       0.06189627      -0.01565125 </v>
   <v>      -0.02363163       0.01631452      -0.00327390 </v>
   <v>      -0.02481917       0.10780629       0.02294040 </v>
   <v>      -0.01343081       0.00766181       0.01625844 </v>
   <v>      -0.00345566      -0.07938915       0.01791475 </v>
   <v>       0.03286552       0.09089777       0.04038160 </v>
   <v>      -0.01144433      -0.05916151       0.00989925 </v>
   <v>      -0.01023578      -0.05880368       0.00722874 </v>
   <v>       0.00399380       0.06027826      -0.00833644 </v>
   <v>      -0.00855282      -0.05872063       0.00550866 </v>
   <v>       0.00340135       0.06051393      -0.00889956 </v>
   <v>      -0.01047731      -0.06089991       0.00977183 </v>
   <v>       0.00374845       0.06002315      -0.00935742 </v>
   <v>      -0.01463816      -0.05868196       0.00854752 </v>
   <v>       0.00116566       0.06056915      -0.00933658 </v>
   <v>       0.00080514       0.06052583      -0.00835474 </v>
   <v>      -0.01424660      -0.06010223       0.00394253 </v>
[...]
       <r>   -18.5495     0.0000     4.0000 </r>
       <r>   -18.4720     0.0000     4.0000 </r>
       <r>   -18.3945     0.0000     4.0000 </r>
       <r>   -18.3169     0.0000     4.0000 </r>
       <r>   -18.2394     0.0000     4.0000 </r>
       <r>   -18.1619     0.0000     4.0000 </r>
       <r>   -18.0844     0.0000     4.0000 </r>
       <r>   -18.0069     0.0000     4.0000 </r>
       <r>   -17.9294     0.0000     4.0000 </r>
       <r>   -17.8519     0.0000     4.0000 </r>
       <r>   -17.7744     0.0000     4.0000 </r>
       <r>   -17.6968     0.0000     4.0000 </r>
       <r>   -17.6193     0.0000     4.0000 </r>
       <r>   -17.5418     0.0000     4.0000 </r>
       <r>   -17.4643     0.0000     4.0000 </r>
       <r>   -17.3868     0.0000     4.0000 </r>
       <r>   -17.3093     0.0000     4.0000 </r>
       <r>   -17.2318     0.0000     4.0000 </r>
       <r>   -17.1543     0.0000     4.0000 </r>
       <r>   -17.0768     0.0000     4.0000 </r>
       <r>   -16.9992     0.0000     4.0000 </r>
       <r>   -16.9217     0.0000     4.0000 </r>
       <r>   -16.8442     0.0000     4.0000 </r>
       <r>   -16.7667     0.0000     4.0000 </r>
       <r>   -16.6892     0.0000     4.0000 </r>
       <r>   -16.6117     0.0000     4.0000 </r>
       <r>   -16.5342     0.0000     4.0000 </r>
       <r>   -16.4567     0.0000     4.0000 </r>
       <r>   -16.3791     0.0000     4.0000 </r>
       <r>   -16.3016     0.0000     4.0000 </r>
       <r>   -16.2241     0.0000     4.0000 </r>
       <r>   -16.1466     0.0000     4.0000 </r>
       <r>   -16.0691     0.0000     4.0000 </r>
       <r>   -15.9916     0.0000     4.0000 </r>
       <r>   -15.9141     0.0000     4.0000 </r>
       <r>   -15.8366     0.0022     4.0002 </r>
       <r>   -15.7590     0.1135     4.0090 </r>
       <r>   -15.6815     1.9274     4.1584 </r>
       <r>   -15.6040    10.9413     5.0065 </r>
       <r>   -15.5265    21.1503     6.6458 </r>
       <r>   -15.4490    14.0388     7.7340 </r>
       <r>   -15.3715     3.1828     7.9807 </r>
       <r>   -15.2940     0.2425     7.9995 </r>
       <r>   -15.2165     0.0062     8.0000 </r>
       <r>   -15.1389     0.0147     8.0011 </r>
       <r>   -15.0614     0.5465     8.0435 </r>
       <r>   -14.9839     6.9082     8.5790 </r>
       <r>   -14.9064    31.6940    11.0356 </r>
       <r>   -14.8289    61.6606    15.8151 </r>
       <r>   -14.7514    63.2173    20.7152 </r>
       <r>   -14.6739    34.4877    23.3884 </r>
       <r>   -14.5964    13.8306    24.4604 </r>
       <r>   -14.5189    28.4790    26.6679 </r>
       <r>   -14.4413    47.7616    30.3700 </r>
       <r>   -14.3638    53.7576    34.5369 </r>
       <r>   -14.2863    66.9456    39.7259 </r>
       <r>   -14.2088    43.8879    43.1278 </r>
       <r>   -14.1313    11.0351    43.9831 </r>
       <r>   -14.0538     8.4402    44.6373 </r>
       <r>   -13.9763    32.8090    47.1804 </r>
       <r>   -13.8988    66.5291    52.3372 </r>
       <r>   -13.8212   112.9294    61.0906 </r>
       <r>   -13.7437   142.9269    72.1692 </r>
       <r>   -13.6662    98.1982    79.7807 </r>
       <r>   -13.5887    73.2260    85.4566 </r>
       <r>   -13.5112    92.3870    92.6177 </r>
       <r>   -13.4337    94.1036    99.9119 </r>
       <r>   -13.3562    67.8374   105.1701 </r>
       <r>   -13.2787    30.1718   107.5088 </r>
       <r>   -13.2011     5.9111   107.9670 </r>
       <r>   -13.1236     0.4162   107.9992 </r>
       <r>   -13.0461     0.0098   108.0000 </r>
       <r>   -12.9686     0.0001   108.0000 </r>
       <r>   -12.8911     0.0000   108.0000 </r>
       <r>   -12.8136     0.0000   108.0000 </r>
       <r>   -12.7361     0.0000   108.0000 </r>
       <r>   -12.6586     0.0000   108.0000 </r>
       <r>   -12.5811     0.0000   108.0000 </r>
       <r>   -12.5035     0.0000   108.0000 </r>
       <r>   -12.4260     0.0000   108.0000 </r>
       <r>   -12.3485     0.0000   108.0000 </r>
       <r>   -12.2710     0.0000   108.0000 </r>
       <r>   -12.1935     0.0000   108.0000 </r>
       <r>   -12.1160     0.0000   108.0000 </r>
       <r>   -12.0385     0.0000   108.0000 </r>
       <r>   -11.9610     0.0000   108.0000 </r>
       <r>   -11.8834     0.0000   108.0000 </r>
       <r>   -11.8059     0.0000   108.0000 </r>
       <r>   -11.7284     0.0000   108.0000 </r>
       <r>   -11.6509     0.0000   108.0000 </r>
       <r>   -11.5734     0.0000   108.0000 </r>
       <r>   -11.4959     0.0000   108.0000 </r>
       <r>   -11.4184     0.0000   108.0000 </r>
       <r>   -11.3409     0.0000   108.0000 </r>
       <r>   -11.2633     0.0000   108.0000 </r>
       <r>   -11.1858     0.0000   108.0000 </r>
       <r>   -11.1083     0.0000   108.0000 </r>
       <r>   -11.0308     0.0000   108.0000 </r>
       <r>   -10.9533     0.0009   108.0001 </r>
       <r>   -10.8758     0.0603   108.0047 </r>
       <r>   -10.7983     1.2682   108.1030 </r>
       <r>   -10.7208     8.7998   108.7851 </r>
       <r>   -10.6433    20.7033   110.3899 </r>
       <r>   -10.5657    19.2942   111.8854 </r>
       <r>   -10.4882    20.5378   113.4774 </r>
       <r>   -10.4107    31.0739   115.8860 </r>
       <r>   -10.3332    21.3348   117.5397 </r>
       <r>   -10.2557     5.7102   117.9823 </r>
       <r>   -10.1782     3.2262   118.2324 </r>
       <r>   -10.1007     8.9275   118.9243 </r>
       <r>   -10.0232     9.7913   119.6833 </r>
       <r>    -9.9456     3.6221   119.9640 </r>
       <r>    -9.8681     0.4457   119.9986 </r>
       <r>    -9.7906     0.0179   120.0000 </r>
       <r>    -9.7131     0.0002   120.0000 </r>
       <r>    -9.6356     0.0000   120.0000 </r>
       <r>    -9.5581     0.0000   120.0000 </r>
       <r>    -9.4806     0.0000   120.0000 </r>
       <r>    -9.4031     0.0000   120.0000 </r>
       <r>    -9.3255     0.0000   120.0000 </r>
       <r>    -9.2480     0.0000   120.0000 </r>
       <r>    -9.1705     0.0000   120.0000 </r>
       <r>    -9.0930     0.0000   120.0000 </r>
       <r>    -9.0155     0.0000   120.0000 </r>
       <r>    -8.9380     0.0000   120.0000 </r>
       <r>    -8.8605     0.0000   120.0000 </r>
       <r>    -8.7830     0.0000   120.0000 </r>
       <r>    -8.7054     0.0000   120.0000 </r>
       <r>    -8.6279     0.0000   120.0000 </r>
       <r>    -8.5504     0.0000   120.0000 </r>
       <r>    -8.4729     0.0000   120.0000 </r>
       <r>    -8.3954     0.0000   120.0000 </r>
       <r>    -8.3179     0.0000   120.0000 </r>
       <r>    -8.2404     0.0000   120.0000 </r>
       <r>    -8.1629     0.0000   120.0000 </r>
       <r>    -8.0854     0.0000   120.0000 </r>
       <r>    -8.0078     0.0001   120.0000 </r>
       <r>    -7.9303     0.0102   120.0008 </r>
       <r>    -7.8528     0.2995   120.0240 </r>
       <r>    -7.7753     2.8605   120.2457 </r>
       <r>    -7.6978     9.0666   120.9485 </r>
       <r>    -7.6203     9.6661   121.6977 </r>
       <r>    -7.5428     3.4695   121.9667 </r>
       <r>    -7.4653     0.4447   122.0011 </r>
       <r>    -7.3877     0.9667   122.0761 </r>
       <r>    -7.3102     9.7566   122.8323 </r>
       <r>    -7.2327    34.2061   125.4837 </r>
       <r>    -7.1552    45.0415   128.9750 </r>
       <r>    -7.0777    33.8635   131.5998 </r>
       <r>    -7.0002    27.2176   133.7095 </r>
       <r>    -6.9227    27.2443   135.8213 </r>
       <r>    -6.8452    40.6860   138.9749 </r>
       <r>    -6.7676    82.9106   145.4015 </r>
       <r>    -6.6901   119.6774   154.6779 </r>
       <r>    -6.6126    85.0762   161.2724 </r>
       <r>    -6.5351    77.9553   167.3148 </r>
       <r>    -6.4576   148.2438   178.8055 </r>
       <r>    -6.3801   168.4267   191.8606 </r>
       <r>    -6.3026   120.0540   201.1662 </r>
       <r>    -6.2251    63.4837   206.0870 </r>
       <r>    -6.1476    21.0789   207.7209 </r>
       <r>    -6.0700     3.3821   207.9830 </r>
       <r>    -5.9925     0.2144   207.9996 </r>
       <r>    -5.9150     0.0102   208.0004 </r>
       <r>    -5.8375     0.2668   208.0211 </r>
       <r>    -5.7600     4.3686   208.3597 </r>
       <r>    -5.6825    24.7556   210.2786 </r>
       <r>    -5.6050    52.6917   214.3628 </r>
       <r>    -5.5275    51.1223   218.3254 </r>
       <r>    -5.4499    54.8049   222.5734 </r>
       <r>    -5.3724   142.9762   233.6558 </r>
       <r>    -5.2949   235.1124   251.8799 </r>
       <r>    -5.2174   161.3156   264.3838 </r>
       <r>    -5.1399    46.5955   267.9955 </r>
       <r>    -5.0624    26.3397   270.0371 </r>
       <r>    -4.9849    42.5271   273.3335 </r>
       <r>    -4.9074    28.0251   275.5058 </r>
       <r>    -4.8298    11.8306   276.4228 </r>
       <r>    -4.7523    39.3478   279.4727 </r>
       <r>    -4.6748    97.2543   287.0111 </r>
       <r>    -4.5973    97.8989   294.5994 </r>
       <r>    -4.5198    72.4208   300.2129 </r>
       <r>    -4.4423    82.0005   306.5689 </r>
       <r>    -4.3648    92.8410   313.7652 </r>
       <r>    -4.2873    83.4935   320.2370 </r>
       <r>    -4.2098    47.1133   323.8888 </r>
       <r>    -4.1322    38.4955   326.8727 </r>
       <r>    -4.0547    59.0099   331.4467 </r>
       <r>    -3.9772    65.0385   336.4879 </r>
       <r>    -3.8997    58.6774   341.0361 </r>
       <r>    -3.8222    52.4932   345.1050 </r>
       <r>    -3.7447    33.5739   347.7074 </r>
       <r>    -3.6672    21.4864   349.3728 </r>
       <r>    -3.5897    23.0773   351.1616 </r>
       <r>    -3.5121    23.7235   353.0005 </r>
       <r>    -3.4346    43.6320   356.3825 </r>
       <r>    -3.3571    69.7053   361.7855 </r>
       <r>    -3.2796   113.4622   370.5801 </r>
       <r>    -3.2021   151.3386   382.3107 </r>
       <r>    -3.1246   128.4930   392.2705 </r>
       <r>    -3.0471    94.0138   399.5577 </r>
       <r>    -2.9696    74.3797   405.3230 </r>
       <r>    -2.8920    73.4140   411.0135 </r>
       <r>    -2.8145   102.5005   418.9585 </r>
       <r>    -2.7370   107.3870   427.2823 </r>
       <r>    -2.6595    58.2947   431.8008 </r>
       <r>    -2.5820    26.0588   433.8207 </r>
       <r>    -2.5045    38.9929   436.8431 </r>
       <r>    -2.4270    81.0553   443.1259 </r>
       <r>    -2.3495    98.1737   450.7355 </r>
       <r>    -2.2720    70.9615   456.2359 </r>
       <r>    -2.1944    48.2154   459.9732 </r>
       <r>    -2.1169    59.2010   464.5619 </r>
       <r>    -2.0394    59.4029   469.1664 </r>
       <r>    -1.9619    53.3757   473.3036 </r>
       <r>    -1.8844    42.7942   476.6207 </r>
       <r>    -1.8069    17.4562   477.9738 </r>
       <r>    -1.7294    16.1548   479.2260 </r>
       <r>    -1.6519    38.8395   482.2365 </r>
       <r>    -1.5743    38.2659   485.2026 </r>
       <r>    -1.4968    23.3085   487.0093 </r>
       <r>    -1.4193    22.5100   488.7540 </r>
       <r>    -1.3418    13.1332   489.7720 </r>
       <r>    -1.2643     2.7439   489.9847 </r>
       <r>    -1.1868     0.1927   489.9997 </r>
       <r>    -1.1093     0.0044   490.0000 </r>
       <r>    -1.0318     0.0000   490.0000 </r>
       <r>    -0.9542     0.0000   490.0000 </r>
       <r>    -0.8767     0.0000   490.0000 </r>
       <r>    -0.7992     0.0000   490.0000 </r>
       <r>    -0.7217     0.0000   490.0000 </r>
       <r>    -0.6442     0.0000   490.0000 </r>
       <r>    -0.5667     0.0000   490.0000 </r>
       <r>    -0.4892     0.0000   490.0000 </r>
       <r>    -0.4117     0.0000   490.0000 </r>
       <r>    -0.3341     0.0000   490.0000 </r>
       <r>    -0.2566     0.0000   490.0000 </r>
       <r>    -0.1791     0.0000   490.0000 </r>
       <r>    -0.1016     0.0000   490.0000 </r>
       <r>    -0.0241     0.0000   490.0000 </r>
       <r>     0.0534     0.0002   490.0000 </r>
       <r>     0.1309     0.0206   490.0016 </r>
       <r>     0.2084     0.7105   490.0567 </r>
       <r>     0.2859     8.6636   490.7282 </r>
       <r>     0.3635    38.3891   493.7038 </r>
       <r>     0.4410    63.7276   498.6435 </r>
       <r>     0.5185    50.5060   502.5583 </r>
       <r>     0.5960    57.0169   506.9778 </r>
       <r>     0.6735   106.5581   515.2373 </r>
       <r>     0.7510   162.8265   527.8584 </r>
       <r>     0.8285   152.7117   539.6954 </r>
       <r>     0.9060   134.7075   550.1368 </r>
       <r>     0.9836   104.3983   558.2289 </r>
       <r>     1.0611    41.8733   561.4746 </r>
       <r>     1.1386    15.1469   562.6487 </r>
       <r>     1.2161    43.6004   566.0282 </r>
       <r>     1.2936    97.3991   573.5778 </r>
       <r>     1.3711   117.5619   582.6903 </r>
       <r>     1.4486   100.4825   590.4789 </r>
       <r>     1.5261    72.6374   596.1092 </r>
       <r>     1.6037    38.1655   599.0675 </r>
       <r>     1.6812    10.6770   599.8951 </r>
       <r>     1.7587     1.2932   599.9953 </r>
       <r>     1.8362     0.0597   599.9999 </r>
       <r>     1.9137     0.0010   600.0000 </r>
       <r>     1.9912     0.0000   600.0000 </r>
       <r>     2.0687     0.0000   600.0000 </r>
       <r>     2.1462     0.0000   600.0000 </r>
       <r>     2.2237     0.0000   600.0000 </r>
       <r>     2.3013     0.0000   600.0000 </r>
       <r>     2.3788     0.0000   600.0000 </r>
       <r>     2.4563     0.0000   600.0000 </r>
       <r>     2.5338     0.0000   600.0000 </r>
       <r>     2.6113     0.0000   600.0000 </r>
      </set>
     </set>
    </array>
   </total>
  </dos>
 </calculation>
 <structure name="finalpos" >
  <crystal>
   <varray name="basis" >
    <v>       9.57094646       0.00000000       0.00000000 </v>
    <v>      -6.38062803      11.05157872       0.00000000 </v>
    <v>       0.00000000       0.00000000      34.88026251 </v>
   </varray>
   <i name="volume">   3689.42726549 </i>
   <varray name="rec_basis" >
    <v>       0.10448287       0.06032318       0.00000000 </v>
    <v>       0.00000000       0.09048481       0.00000000 </v>
    <v>       0.00000000       0.00000000       0.02866951 </v>
   </varray>
  </crystal>
  <varray name="positions" >
   <v>       0.90397932       0.46957561       0.00601589 </v>
   <v>       0.97634598       0.52276265       0.04208716 </v>
   <v>       0.92960300       0.56497784       0.98019894 </v>
   <v>       0.01589388       0.67699632       0.00047427 </v>
   <v>       0.04457116       0.65091727       0.03875565 </v>
   <v>       0.60222811       0.46747891       0.06258631 </v>
   <v>       0.69056259       0.66299726       0.04169279 </v>
   <v>       0.68670599       0.59176156       0.07392928 </v>
   <v>       0.60728509       0.58266309       0.01054010 </v>
   <v>       0.55397777       0.46184624       0.02334204 </v>
   <v>       0.80084641       0.56500557       0.02781534 </v>
   <v>       0.10377772       0.71651433       0.06159600 </v>
   <v>       0.74182022       0.62607844       0.10179047 </v>
   <v>       0.59220705       0.60892246       0.98185825 </v>
   <v>       0.74966494       0.76118678       0.04085795 </v>
   <v>       0.58234269       0.39120948       0.08034644 </v>
   <v>       0.97466432       0.47436315       0.06789470 </v>
   <v>       0.83831521       0.37336255       0.99951645 </v>
   <v>       0.88695784       0.55384806       0.95076811 </v>
   <v>       0.04990549       0.76590677       0.98907239 </v>
   <v>       0.49089082       0.38043605       0.00600659 </v>
   <v>       0.55595212       0.08383982       0.24987781 </v>
   <v>       0.55592936       0.33384260       0.24982370 </v>
   <v>       0.44406825       0.41616170       0.75005105 </v>
   <v>       0.55590776       0.58381394       0.24977827 </v>
   <v>       0.44407132       0.66616869       0.75005524 </v>
   <v>       0.55595190       0.83383372       0.24985727 </v>
   <v>       0.44407673       0.91616691       0.75005134 </v>
   <v>       0.88929210       0.33384066       0.24984228 </v>
   <v>       0.77741718       0.16613286       0.75004701 </v>
   <v>       0.77741780       0.41612943       0.75005340 </v>
   <v>       0.88929486       0.58383726       0.24979051 </v>
   <v>       0.77741635       0.66613809       0.75005569 </v>
   <v>       0.88929092       0.83385645       0.24981481 </v>
   <v>       0.77741791       0.91613777       0.75004826 </v>
   <v>       0.11073656       0.91614455       0.75004736 </v>
   <v>       0.88929873       0.08385363       0.24987100 </v>
   <v>       0.22261078       0.83387314       0.24985336 </v>
   <v>       0.44406768       0.16615785       0.75004817 </v>
   <v>       0.22261818       0.58385985       0.24982291 </v>
   <v>       0.11073699       0.41614558       0.75004882 </v>
   <v>       0.22260163       0.33386299       0.24982511 </v>
   <v>       0.22259749       0.08387119       0.24985930 </v>
   <v>       0.11072878       0.16614166       0.75004286 </v>
   <v>       0.11074375       0.66614959       0.75005484 </v>
   <v>       0.77755942       0.16643024       0.29443153 </v>
   <v>       0.88915337       0.08359998       0.79458730 </v>
   <v>       0.77747671       0.16633269       0.20535304 </v>
   <v>       0.88913353       0.08358352       0.70547442 </v>
   <v>       0.22248161       0.08360378       0.70547591 </v>
   <v>       0.11079531       0.16635217       0.20533781 </v>
   <v>       0.77753152       0.41644589       0.29437581 </v>
   <v>       0.88915223       0.33358942       0.79459196 </v>
   <v>       0.11093052       0.66645096       0.20529860 </v>
   <v>       0.55580936       0.83361964       0.70548107 </v>
   <v>       0.88914288       0.33359320       0.70547938 </v>
   <v>       0.22247785       0.08361779       0.79458613 </v>
   <v>       0.11091172       0.16646794       0.29442089 </v>
   <v>       0.77747089       0.66633721       0.29434069 </v>
   <v>       0.88915158       0.58359674       0.79459916 </v>
   <v>       0.77752022       0.66638287       0.20523850 </v>
   <v>       0.88914507       0.58359010       0.70548713 </v>
   <v>       0.77755297       0.91633877       0.29441224 </v>
   <v>       0.88915826       0.83361142       0.79459230 </v>
   <v>       0.77747634       0.41630465       0.20528722 </v>
   <v>       0.44421612       0.91640752       0.20535226 </v>
   <v>       0.44415348       0.91634249       0.29443014 </v>
   <v>       0.22248585       0.58361756       0.70548345 </v>
   <v>       0.22248552       0.58361558       0.79459335 </v>
   <v>       0.11077534       0.91637666       0.29440676 </v>
   <v>       0.22249466       0.83363093       0.79459191 </v>
   <v>       0.11092169       0.91644496       0.20532482 </v>
   <v>       0.22248297       0.83360302       0.70548130 </v>
   <v>       0.11077630       0.66635451       0.29438134 </v>
   <v>       0.77749106       0.91642989       0.20533360 </v>
   <v>       0.44419351       0.16644017       0.29441882 </v>
   <v>       0.55582298       0.08363452       0.79458886 </v>
   <v>       0.44416507       0.16631934       0.20533912 </v>
   <v>       0.55581104       0.08361952       0.70547806 </v>
   <v>       0.44421416       0.41643390       0.29437043 </v>
   <v>       0.55580915       0.33362122       0.79459147 </v>
   <v>       0.44412652       0.41629389       0.20527573 </v>
   <v>       0.55582116       0.33362644       0.70548193 </v>
   <v>       0.22248745       0.33361634       0.70547766 </v>
   <v>       0.11080229       0.41637086       0.20531162 </v>
   <v>       0.44419899       0.66630494       0.29438315 </v>
   <v>       0.55581389       0.58362981       0.79459411 </v>
   <v>       0.44417406       0.66643165       0.20530086 </v>
   <v>       0.55581876       0.58362969       0.70548559 </v>
   <v>       0.22247515       0.33360615       0.79458744 </v>
   <v>       0.11088700       0.41642807       0.29439430 </v>
   <v>       0.55583088       0.83364446       0.79459145 </v>
   <v>       0.88913669       0.83357908       0.70548018 </v>
  </varray>
 </structure>
</modeling>
