basalPlane                              
           1
     9.570946    0.000000    0.000000
    -6.380628   11.051579    0.000000
     0.000000    0.000000   34.880263
   C    Co   H    Mo   S 
  10   1  10  24  48
Direct configuration=     1
   0.90803117  0.46963347  0.00561251
   0.97924403  0.52315725  0.04168788
   0.93250973  0.56484984  0.97990743
   0.01936954  0.67727922  0.00007068
   0.04801989  0.65149448  0.03825689
   0.59876212  0.46699365  0.06245558
   0.68717047  0.66295648  0.04183885
   0.68394796  0.59149929  0.07383535
   0.60441874  0.58261970  0.01063455
   0.54966999  0.46150101  0.02340691
   0.80072041  0.56484515  0.02760480
   0.10833701  0.71774883  0.06087551
   0.73920545  0.62581530  0.10167072
   0.58813110  0.60906992  0.98208308
   0.74571165  0.76112785  0.04111988
   0.57803020  0.39026039  0.08009248
   0.97827901  0.47465956  0.06741341
   0.84362750  0.37337398  0.99917266
   0.89025681  0.55350090  0.95043938
   0.05426462  0.76641778  0.98872456
   0.48498718  0.37986879  0.00624254
   0.55555566  0.08333325  0.25000928
   0.55555566  0.33333325  0.25000928
   0.44444432  0.41666674  0.74999076
   0.55555566  0.58333325  0.25000928
   0.44444432  0.66666674  0.74999076
   0.55555566  0.83333325  0.25000928
   0.44444432  0.91666674  0.74999076
   0.88888899  0.33333325  0.25000928
   0.77777765  0.16666674  0.74999076
   0.77777765  0.41666674  0.74999076
   0.88888899  0.58333325  0.25000928
   0.77777765  0.66666674  0.74999076
   0.88888899  0.83333325  0.25000928
   0.77777765  0.91666674  0.74999076
   0.11111099  0.91666674  0.74999076
   0.88888899  0.08333325  0.25000928
   0.22222233  0.83333325  0.25000928
   0.44444432  0.16666674  0.74999076
   0.22222233  0.58333325  0.25000928
   0.11111099  0.41666674  0.74999076
   0.22222233  0.33333325  0.25000928
   0.22222233  0.08333325  0.25000928
   0.11111099  0.16666674  0.74999076
   0.11111099  0.66666674  0.74999076
   0.77777765  0.16666674  0.29487388
   0.88888899  0.08333325  0.79485533
   0.77777765  0.16666674  0.20514467
   0.88888899  0.08333325  0.70512613
   0.22222233  0.08333325  0.70512613
   0.11111099  0.16666674  0.20514467
   0.77777765  0.41666674  0.29487388
   0.88888899  0.33333325  0.79485533
   0.11111099  0.66666674  0.20514467
   0.55555566  0.83333325  0.70512613
   0.88888899  0.33333325  0.70512613
   0.22222233  0.08333325  0.79485533
   0.11111099  0.16666674  0.29487388
   0.77777765  0.66666674  0.29487388
   0.88888899  0.58333325  0.79485533
   0.77777765  0.66666674  0.20514467
   0.88888899  0.58333325  0.70512613
   0.77777765  0.91666674  0.29487388
   0.88888899  0.83333325  0.79485533
   0.77777765  0.41666674  0.20514467
   0.44444432  0.91666674  0.20514467
   0.44444432  0.91666674  0.29487388
   0.22222233  0.58333325  0.70512613
   0.22222233  0.58333325  0.79485533
   0.11111099  0.91666674  0.29487388
   0.22222233  0.83333325  0.79485533
   0.11111099  0.91666674  0.20514467
   0.22222233  0.83333325  0.70512613
   0.11111099  0.66666674  0.29487388
   0.77777765  0.91666674  0.20514467
   0.44444432  0.16666674  0.29487388
   0.55555566  0.08333325  0.79485533
   0.44444432  0.16666674  0.20514467
   0.55555566  0.08333325  0.70512613
   0.44444432  0.41666674  0.29487388
   0.55555566  0.33333325  0.79485533
   0.44444432  0.41666674  0.20514467
   0.55555566  0.33333325  0.70512613
   0.22222233  0.33333325  0.70512613
   0.11111099  0.41666674  0.20514467
   0.44444432  0.66666674  0.29487388
   0.55555566  0.58333325  0.79485533
   0.44444432  0.66666674  0.20514467
   0.55555566  0.58333325  0.70512613
   0.22222233  0.33333325  0.79485533
   0.11111099  0.41666674  0.29487388
   0.55555566  0.83333325  0.79485533
   0.88888899  0.83333325  0.70512613
Direct configuration=     2
   0.90773420  0.46997367  0.00570532
   0.97882092  0.52320248  0.04170345
   0.93211099  0.56492554  0.97996849
   0.01868329  0.67692492  0.00011833
   0.04735361  0.65123843  0.03828050
   0.59937871  0.46728976  0.06241003
   0.68741342  0.66253768  0.04177078
   0.68431804  0.59138632  0.07378418
   0.60488445  0.58263684  0.01064579
   0.55047892  0.46185867  0.02340983
   0.80069313  0.56485947  0.02758517
   0.10821256  0.71758643  0.06089162
   0.73915765  0.62577550  0.10168901
   0.58824006  0.60902192  0.98209947
   0.74565025  0.76103139  0.04111697
   0.57813156  0.39040504  0.08011233
   0.97826477  0.47475369  0.06740938
   0.84363126  0.37348155  0.99916529
   0.89026466  0.55354378  0.95046401
   0.05414535  0.76628141  0.98870946
   0.48511055  0.37996563  0.00623367
   0.55619227  0.08410055  0.24998723
   0.55617219  0.33410229  0.24998654
   0.44383929  0.41589207  0.75000666
   0.55614569  0.58408551  0.24998033
   0.44384210  0.66589523  0.75000842
   0.55618930  0.83410341  0.24998682
   0.44384569  0.91589522  0.75000842
   0.88954725  0.33409674  0.24998453
   0.77719644  0.16588250  0.75000752
   0.77719877  0.41588049  0.75000667
   0.88955084  0.58410127  0.24998413
   0.77719608  0.66588819  0.75000737
   0.88955242  0.83413373  0.24998388
   0.77719792  0.91588731  0.75000783
   0.11050305  0.91589304  0.75000685
   0.88954243  0.08411237  0.24998420
   0.22283579  0.83412023  0.24998640
   0.44384251  0.16588947  0.75000726
   0.22284289  0.58410996  0.24998116
   0.11050222  0.41589151  0.75000685
   0.22282419  0.33411035  0.24997895
   0.22282489  0.08411757  0.24998317
   0.11049934  0.16589405  0.75000622
   0.11050925  0.66589674  0.75000754
   0.77746000  0.16628250  0.29459251
   0.88918895  0.08372458  0.79458428
   0.77745759  0.16627607  0.20544151
   0.88918599  0.08372064  0.70538467
   0.22252542  0.08372017  0.70538465
   0.11079459  0.16627676  0.20544278
   0.77745959  0.41628352  0.29459076
   0.88918976  0.33372156  0.79458494
   0.11079137  0.66627499  0.20543544
   0.55585313  0.83372087  0.70538428
   0.88918620  0.33371794  0.70538511
   0.22252756  0.08372425  0.79458491
   0.11079932  0.16628191  0.29459305
   0.77746123  0.66628164  0.29459087
   0.88919068  0.58372554  0.79458724
   0.77744770  0.66626509  0.20541505
   0.88918628  0.58372089  0.70538547
   0.77746217  0.91628078  0.29459234
   0.88919020  0.83372330  0.79458487
   0.77744959  0.41627576  0.20543013
   0.44412585  0.91627435  0.20544094
   0.44412868  0.91628099  0.29459235
   0.22252392  0.58371961  0.70538483
   0.22252732  0.58372486  0.79458495
   0.11079671  0.91628080  0.29459251
   0.22253033  0.83372598  0.79458487
   0.11079689  0.91627765  0.20543984
   0.22252612  0.83372017  0.70538495
   0.11079514  0.66628302  0.29459138
   0.77745466  0.91627610  0.20544069
   0.44413100  0.16628319  0.29459235
   0.55585810  0.08372335  0.79458381
   0.44412884  0.16628061  0.20543867
   0.55585558  0.08371984  0.70538523
   0.44413181  0.41628135  0.29459219
   0.55585483  0.33372340  0.79458545
   0.44413565  0.41627399  0.20543109
   0.55585261  0.33372013  0.70538487
   0.22252576  0.33372039  0.70538524
   0.11078855  0.41627300  0.20543908
   0.44413342  0.66628256  0.29459298
   0.55585948  0.58372439  0.79458457
   0.44413050  0.66627553  0.20543794
   0.55585659  0.58371939  0.70538570
   0.22252837  0.33372460  0.79458439
   0.11079565  0.41628035  0.29459273
   0.55585671  0.83372655  0.79458474
   0.88918623  0.83371762  0.70538502
Direct configuration=     3
   0.90775933  0.46994488  0.00569747
   0.97885673  0.52319865  0.04170213
   0.93214473  0.56491914  0.97996332
   0.01874137  0.67695490  0.00011430
   0.04741000  0.65126010  0.03827850
   0.59932653  0.46726470  0.06241388
   0.68739286  0.66257313  0.04177654
   0.68428672  0.59139588  0.07378851
   0.60484503  0.58263539  0.01064484
   0.55041046  0.46182840  0.02340958
   0.80069544  0.56485826  0.02758684
   0.10822310  0.71760017  0.06089026
   0.73916170  0.62577887  0.10168746
   0.58823084  0.60902598  0.98209809
   0.74565545  0.76103956  0.04111722
   0.57812298  0.39039279  0.08011065
   0.97826598  0.47474573  0.06740972
   0.84363094  0.37347245  0.99916592
   0.89026400  0.55354015  0.95046193
   0.05415545  0.76629296  0.98871074
   0.48510011  0.37995743  0.00623442
   0.55613839  0.08403561  0.24998910
   0.55612001  0.33403720  0.24998847
   0.44389049  0.41595764  0.75000531
   0.55609575  0.58402184  0.24998278
   0.44389307  0.66596053  0.75000693
   0.55613567  0.83403822  0.24998872
   0.44389636  0.91596052  0.75000693
   0.88949154  0.33403212  0.24998663
   0.77724564  0.16594888  0.75000610
   0.77724776  0.41594704  0.75000532
   0.88949483  0.58403627  0.24998626
   0.77724531  0.66595409  0.75000597
   0.88949627  0.83406598  0.24998603
   0.77724699  0.91595328  0.75000638
   0.11055450  0.91595853  0.75000548
   0.88948713  0.08404643  0.24998632
   0.22278387  0.83405362  0.24998834
   0.44389345  0.16595525  0.75000586
   0.22279037  0.58404422  0.24998354
   0.11055374  0.41595712  0.75000549
   0.22277325  0.33404458  0.24998152
   0.22277389  0.08405119  0.24998538
   0.11055110  0.16595945  0.75000491
   0.11056018  0.66596191  0.75000612
   0.77748688  0.16631502  0.29461633
   0.88916356  0.08369146  0.79460722
   0.77748468  0.16630913  0.20541639
   0.88916085  0.08368785  0.70536279
   0.22249976  0.08368742  0.70536277
   0.11082137  0.16630977  0.20541755
   0.77748651  0.41631596  0.29461473
   0.88916431  0.33368870  0.79460782
   0.11081842  0.66630815  0.20541083
   0.55582796  0.83368806  0.70536243
   0.88916105  0.33368538  0.70536319
   0.22250172  0.08369116  0.79460780
   0.11082570  0.16631448  0.29461682
   0.77748801  0.66631423  0.29461482
   0.88916514  0.58369234  0.79460993
   0.77747563  0.66629908  0.20539217
   0.88916112  0.58368808  0.70536352
   0.77748887  0.91631345  0.29461617
   0.88916471  0.83369028  0.79460776
   0.77747736  0.41630885  0.20540597
   0.44415280  0.91630756  0.20541587
   0.44415540  0.91631364  0.29461618
   0.22249839  0.58368691  0.70536293
   0.22250151  0.58369171  0.79460783
   0.11082331  0.91631347  0.29461632
   0.22250426  0.83369274  0.79460776
   0.11082348  0.91631058  0.20541486
   0.22250041  0.83368742  0.70536304
   0.11082187  0.66631549  0.29461529
   0.77748199  0.91630916  0.20541564
   0.44415752  0.16631565  0.29461618
   0.55583250  0.08369034  0.79460679
   0.44415554  0.16631329  0.20541379
   0.55583020  0.08368712  0.70536330
   0.44415826  0.41631397  0.29461603
   0.55582951  0.33369038  0.79460829
   0.44416177  0.41630723  0.20540685
   0.55582747  0.33368739  0.70536297
   0.22250008  0.33368762  0.70536331
   0.11081584  0.41630632  0.20541416
   0.44415973  0.66631508  0.29461675
   0.55583376  0.58369129  0.79460748
   0.44415706  0.66630864  0.20541311
   0.55583112  0.58368671  0.70536373
   0.22250247  0.33369148  0.79460732
   0.11082233  0.41631305  0.29461653
   0.55583123  0.83369326  0.79460764
   0.88916108  0.83368509  0.70536311
Direct configuration=     4
   0.90663400  0.46919058  0.00567215
   0.97858629  0.52304630  0.04188094
   0.93157868  0.56482851  0.97989301
   0.01850132  0.67753146  0.00008859
   0.04711539  0.65146682  0.03843942
   0.59966096  0.46682655  0.06252683
   0.68854137  0.66353505  0.04176816
   0.68499385  0.59157762  0.07391085
   0.60499894  0.58269265  0.01044492
   0.55054857  0.46127719  0.02323599
   0.80072011  0.56486878  0.02758702
   0.10794734  0.71734074  0.06088079
   0.73908995  0.62570043  0.10166364
   0.58840138  0.60897420  0.98213207
   0.74537971  0.76048039  0.04111024
   0.57831712  0.39068537  0.08009307
   0.97819290  0.47483328  0.06740452
   0.84381708  0.37395513  0.99919574
   0.89022082  0.55358102  0.95048863
   0.05388897  0.76592685  0.98873229
   0.48554601  0.38036556  0.00628767
   0.55603110  0.08392476  0.24999845
   0.55601599  0.33392821  0.24999406
   0.44396995  0.41607191  0.74999694
   0.55599536  0.58391008  0.24998488
   0.44397079  0.66607640  0.74999812
   0.55602764  0.83392045  0.24999782
   0.44397506  0.91607428  0.74999749
   0.88937382  0.33392262  0.24999364
   0.77731635  0.16606261  0.74999653
   0.77731700  0.41606021  0.74999693
   0.88937566  0.58392152  0.24998693
   0.77731652  0.66606766  0.74999754
   0.88937084  0.83394459  0.24998945
   0.77731549  0.91606619  0.74999658
   0.11064133  0.91607217  0.74999622
   0.88936793  0.08393069  0.24999709
   0.22268437  0.83393980  0.24999650
   0.44396987  0.16607013  0.74999688
   0.22269319  0.58393252  0.24999064
   0.11064065  0.41607196  0.74999672
   0.22268124  0.33393369  0.24998894
   0.22267730  0.08393829  0.24999514
   0.11063743  0.16607066  0.74999567
   0.11064683  0.66607419  0.74999771
   0.77754336  0.16637045  0.29450436
   0.88912698  0.08363138  0.79450619
   0.77753659  0.16636068  0.20550764
   0.88912252  0.08362611  0.70547655
   0.22246106  0.08363212  0.70547826
   0.11087083  0.16636840  0.20550481
   0.77754243  0.41637069  0.29449923
   0.88912727  0.33362849  0.79450701
   0.11087350  0.66636801  0.20549729
   0.55579303  0.83363259  0.70547896
   0.88912314  0.33362382  0.70547708
   0.22246265  0.08363683  0.79450479
   0.11088109  0.16637943  0.29450589
   0.77753673  0.66636911  0.29449400
   0.88912918  0.58363235  0.79450931
   0.77752171  0.66634647  0.20547244
   0.88912484  0.58362722  0.70547882
   0.77754831  0.91637220  0.29450393
   0.88912879  0.83363284  0.79450691
   0.77752454  0.41635714  0.20549310
   0.44420390  0.91636171  0.20550738
   0.44420541  0.91636965  0.29450491
   0.22246101  0.58363287  0.70547885
   0.22246396  0.58363828  0.79450527
   0.11087593  0.91637972  0.29450580
   0.22246738  0.83364012  0.79450564
   0.11087989  0.91637559  0.20550258
   0.22246356  0.83363305  0.70547876
   0.11087694  0.66637491  0.29450257
   0.77753455  0.91636682  0.20550616
   0.44420311  0.16637042  0.29450323
   0.55579741  0.08363599  0.79450496
   0.44420629  0.16636841  0.20550439
   0.55579411  0.08363076  0.70547871
   0.44419849  0.41636829  0.29450162
   0.55579497  0.33363499  0.79450539
   0.44421046  0.41635428  0.20549084
   0.55579217  0.33363021  0.70547912
   0.22246069  0.33363225  0.70547814
   0.11086176  0.41636263  0.20550040
   0.44420802  0.66636637  0.29450325
   0.55579799  0.58363769  0.79450526
   0.44420670  0.66636282  0.20550186
   0.55579447  0.58363216  0.70547983
   0.22246348  0.33363639  0.79450468
   0.11087822  0.41637355  0.29450406
   0.55579828  0.83364043  0.79450520
   0.88912361  0.83362573  0.70547750
Direct configuration=     5
   0.90735015  0.46967061  0.00568826
   0.97875840  0.52314326  0.04176715
   0.93193891  0.56488618  0.97993776
   0.01865409  0.67716454  0.00010495
   0.04730288  0.65133526  0.03833701
   0.59944813  0.46710538  0.06245495
   0.68781047  0.66292289  0.04177349
   0.68454384  0.59146196  0.07383299
   0.60490100  0.58265621  0.01057215
   0.55046068  0.46162797  0.02334646
   0.80070441  0.56486209  0.02758690
   0.10812283  0.71750584  0.06088682
   0.73913561  0.62575035  0.10167880
   0.58829285  0.60900715  0.98211044
   0.74555519  0.76083624  0.04111468
   0.57819357  0.39049918  0.08010426
   0.97823941  0.47477756  0.06740783
   0.84369862  0.37364796  0.99917676
   0.89024830  0.55355501  0.95047164
   0.05405855  0.76615984  0.98871858
   0.48526224  0.38010583  0.00625378
   0.55609938  0.08399531  0.24999250
   0.55608219  0.33399757  0.24999050
   0.44391938  0.41599919  0.75000227
   0.55605925  0.58398120  0.24998354
   0.44392133  0.66600266  0.75000373
   0.55609639  0.83399540  0.24999203
   0.44392497  0.91600188  0.75000350
   0.88944874  0.33399231  0.24998918
   0.77727135  0.16599023  0.75000262
   0.77727293  0.41598819  0.75000227
   0.88945150  0.58399455  0.24998650
   0.77727120  0.66599538  0.75000290
   0.88945066  0.83402184  0.24998727
   0.77727189  0.91599433  0.75000282
   0.11058608  0.91599985  0.75000212
   0.88944379  0.08400434  0.24999024
   0.22274769  0.83401223  0.24999131
   0.44392124  0.16599702  0.75000260
   0.22275503  0.58400360  0.24998612
   0.11058534  0.41599888  0.75000230
   0.22273979  0.33400426  0.24998422
   0.22273877  0.08401014  0.24998893
   0.11058250  0.16599989  0.75000155
   0.11059169  0.66600274  0.75000306
   0.77750742  0.16633518  0.29457561
   0.88915026  0.08366961  0.79457049
   0.77750355  0.16632787  0.20544957
   0.88914692  0.08366540  0.70540415
   0.22248569  0.08366732  0.70540476
   0.11083936  0.16633109  0.20544928
   0.77750684  0.41633586  0.29457273
   0.88915084  0.33366681  0.79457117
   0.11083845  0.66632992  0.20544227
   0.55581526  0.83366789  0.70540480
   0.88914727  0.33366300  0.70540460
   0.22248752  0.08367141  0.79457034
   0.11084584  0.16633810  0.29457648
   0.77750572  0.66633419  0.29457089
   0.88915207  0.58367053  0.79457334
   0.77749238  0.66631631  0.20542135
   0.88914793  0.58366595  0.70540544
   0.77751048  0.91633481  0.29457536
   0.88915165  0.83366940  0.79457109
   0.77749451  0.41632641  0.20543765
   0.44417138  0.91632725  0.20544914
   0.44417358  0.91633400  0.29457572
   0.22248480  0.58366726  0.70540508
   0.22248786  0.58367229  0.79457054
   0.11084244  0.91633756  0.29457614
   0.22249085  0.83367361  0.79457063
   0.11084399  0.91633422  0.20544675
   0.22248701  0.83366765  0.70540512
   0.11084189  0.66633710  0.29457430
   0.77750111  0.91633012  0.20544855
   0.44417410  0.16633557  0.29457511
   0.55581974  0.08367058  0.79456976
   0.44417399  0.16633333  0.20544673
   0.55581708  0.08366663  0.70540526
   0.44417289  0.41633372  0.29457443
   0.55581695  0.33367024  0.79457088
   0.44417948  0.41632434  0.20543739
   0.55581464  0.33366659  0.70540520
   0.22248576  0.33366749  0.70540506
   0.11083254  0.41632680  0.20544552
   0.44417729  0.66633373  0.29457548
   0.55582075  0.58367180  0.79457031
   0.44417511  0.66632834  0.20544538
   0.55581779  0.58366688  0.70540594
   0.22248829  0.33367145  0.79457000
   0.11084266  0.41633505  0.29457563
   0.55581925  0.83367405  0.79457039
   0.88914745  0.83366350  0.70540470
Direct configuration=     6
   0.90670312  0.46974555  0.00574894
   0.97830021  0.52312541  0.04178877
   0.93147616  0.56483043  0.97999449
   0.01804646  0.67705662  0.00018037
   0.04665243  0.65126344  0.03837769
   0.59999775  0.46721748  0.06240213
   0.68840387  0.66280604  0.04174386
   0.68503630  0.59153084  0.07378384
   0.60533394  0.58262826  0.01057647
   0.55124560  0.46176022  0.02332509
   0.80070449  0.56487326  0.02759228
   0.10796583  0.71742014  0.06095541
   0.73926680  0.62576935  0.10174250
   0.58845148  0.60904264  0.98203682
   0.74567648  0.76086367  0.04110146
   0.57835918  0.39048522  0.08016622
   0.97812819  0.47473029  0.06748867
   0.84350485  0.37365484  0.99917669
   0.89006597  0.55357527  0.95043407
   0.05388787  0.76616892  0.98869230
   0.48547202  0.38013942  0.00622080
   0.55590257  0.08376931  0.24999994
   0.55589048  0.33377238  0.24999390
   0.44408886  0.41623002  0.74999535
   0.55587498  0.58375465  0.24998308
   0.44408902  0.66623471  0.74999630
   0.55589920  0.83376160  0.24999953
   0.44409312  0.91623201  0.74999544
   0.88924020  0.33376951  0.24999391
   0.77743135  0.16622280  0.74999476
   0.77743125  0.41622115  0.74999587
   0.88924122  0.58376575  0.24998391
   0.77743192  0.66622723  0.74999632
   0.88923445  0.83378160  0.24998777
   0.77742974  0.91622569  0.74999472
   0.11076150  0.91622883  0.74999462
   0.88923598  0.08377343  0.24999912
   0.22256022  0.83378024  0.24999743
   0.44408745  0.16622847  0.74999503
   0.22256908  0.58377454  0.24999112
   0.11076080  0.41622905  0.74999525
   0.22256131  0.33377694  0.24998967
   0.22255420  0.08377966  0.24999704
   0.11075739  0.16622617  0.74999405
   0.11076600  0.66622995  0.74999645
   0.77760804  0.16644828  0.29449976
   0.88907043  0.08355104  0.79450245
   0.77759872  0.16643578  0.20550200
   0.88906488  0.08354482  0.70548634
   0.22240353  0.08355376  0.70548864
   0.11093065  0.16644697  0.20549765
   0.77760712  0.41644874  0.29449248
   0.88907064  0.33354856  0.79450330
   0.11093886  0.66644874  0.20548994
   0.55573669  0.83355475  0.70548964
   0.88906592  0.33354324  0.70548694
   0.22240458  0.08355940  0.79450033
   0.11094529  0.16646265  0.29450152
   0.77759686  0.66644494  0.29448365
   0.88907268  0.58355176  0.79450556
   0.77758212  0.66642128  0.20546376
   0.88906817  0.58354630  0.70548945
   0.77761420  0.91645009  0.29449910
   0.88907267  0.83355434  0.79450317
   0.77758480  0.41643003  0.20548604
   0.44426607  0.91643902  0.20550205
   0.44426670  0.91644700  0.29450064
   0.22240439  0.58355550  0.70548953
   0.22240690  0.58356135  0.79450109
   0.11093650  0.91646168  0.29450127
   0.22241046  0.83356382  0.79450153
   0.11094480  0.91645811  0.20549576
   0.22240677  0.83355525  0.70548931
   0.11093885  0.66645342  0.29449678
   0.77759671  0.91644632  0.20549996
   0.44426326  0.16644844  0.29449824
   0.55574117  0.08355887  0.79450132
   0.44426751  0.16644492  0.20549854
   0.55573681  0.08355277  0.70548876
   0.44425608  0.41644656  0.29449509
   0.55573925  0.33355741  0.79450098
   0.44426943  0.41642712  0.20548214
   0.55573608  0.33355201  0.70548962
   0.22240309  0.33355431  0.70548830
   0.11092200  0.41644107  0.20549291
   0.44426907  0.66644010  0.29449741
   0.55574104  0.58356107  0.79450122
   0.44426713  0.66644046  0.20549474
   0.55573700  0.58355523  0.70549029
   0.22240540  0.33355866  0.79450038
   0.11094329  0.41645394  0.29449853
   0.55574347  0.83356381  0.79450118
   0.88906643  0.83354580  0.70548755
Direct configuration=     7
   0.90683570  0.46973020  0.00573650
   0.97839410  0.52312906  0.04178434
   0.93157098  0.56484186  0.97998286
   0.01817096  0.67707873  0.00016492
   0.04678571  0.65127815  0.03836935
   0.59988514  0.46719451  0.06241295
   0.68828228  0.66282998  0.04174994
   0.68493540  0.59151673  0.07379391
   0.60524523  0.58263399  0.01057559
   0.55108477  0.46173312  0.02332947
   0.80070447  0.56487097  0.02759118
   0.10799800  0.71743770  0.06094136
   0.73923992  0.62576546  0.10172945
   0.58841898  0.60903537  0.98205191
   0.74565163  0.76085805  0.04110417
   0.57832525  0.39048808  0.08015352
   0.97815098  0.47473997  0.06747211
   0.84354455  0.37365343  0.99917671
   0.89010333  0.55357111  0.95044176
   0.05392284  0.76616706  0.98869768
   0.48542903  0.38013254  0.00622756
   0.55594290  0.08381561  0.24999842
   0.55592976  0.33381852  0.24999320
   0.44405414  0.41618272  0.74999676
   0.55591274  0.58380107  0.24998317
   0.44405466  0.66618716  0.74999782
   0.55593961  0.83380950  0.24999799
   0.44405867  0.91618486  0.74999709
   0.88928293  0.33381516  0.24999294
   0.77739857  0.16617515  0.74999637
   0.77739881  0.41617342  0.74999718
   0.88928430  0.58381263  0.24998444
   0.77739899  0.66617973  0.74999767
   0.88927875  0.83383082  0.24998767
   0.77739740  0.91617829  0.74999638
   0.11072556  0.91618191  0.74999616
   0.88927856  0.08382074  0.24999730
   0.22259864  0.83382778  0.24999617
   0.44405339  0.16618105  0.74999658
   0.22260718  0.58382148  0.24999009
   0.11072485  0.41618189  0.74999669
   0.22259788  0.33382352  0.24998855
   0.22259202  0.08382689  0.24999538
   0.11072156  0.16617981  0.74999559
   0.11073029  0.66618339  0.74999781
   0.77758742  0.16642511  0.29451530
   0.88908678  0.08357534  0.79451639
   0.77757922  0.16641367  0.20549126
   0.88908169  0.08356952  0.70546950
   0.22242036  0.08357703  0.70547145
   0.11091194  0.16642323  0.20548774
   0.77758657  0.41642561  0.29450893
   0.88908707  0.33357279  0.79451721
   0.11091829  0.66642440  0.20548017
   0.55575278  0.83357793  0.70547225
   0.88908258  0.33356778  0.70547007
   0.22242157  0.08358235  0.79451467
   0.11092492  0.16643713  0.29451688
   0.77757819  0.66642224  0.29450153
   0.88908895  0.58357610  0.79451945
   0.77756373  0.66639977  0.20545507
   0.88908452  0.58357081  0.70547223
   0.77759295  0.91642647  0.29451473
   0.88908885  0.83357792  0.79451709
   0.77756630  0.41640880  0.20547612
   0.44424667  0.91641612  0.20549121
   0.44424762  0.91642385  0.29451603
   0.22242086  0.58357840  0.70547222
   0.22242349  0.58358408  0.79451532
   0.11091723  0.91643625  0.29451661
   0.22242693  0.83358632  0.79451569
   0.11092414  0.91643272  0.20548572
   0.22242321  0.83357828  0.70547206
   0.11091898  0.66642959  0.29451266
   0.77757712  0.91642251  0.20548943
   0.44424499  0.16642531  0.29451399
   0.55575727  0.08358176  0.79451534
   0.44424835  0.16642205  0.20548792
   0.55575325  0.08357610  0.70547165
   0.44423904  0.41642344  0.29451135
   0.55575517  0.33358053  0.79451530
   0.44425100  0.41640606  0.20547297
   0.55575217  0.33357549  0.70547233
   0.22242003  0.33357750  0.70547125
   0.11090367  0.41641765  0.20548320
   0.44425026  0.66641830  0.29451341
   0.55575737  0.58358376  0.79451538
   0.44424827  0.66641748  0.20548463
   0.55575355  0.58357811  0.70547301
   0.22242238  0.33358177  0.79451465
   0.11092267  0.41642958  0.29451433
   0.55575900  0.83358639  0.79451536
   0.88908303  0.83356992  0.70547057
Direct configuration=     8
   0.90651845  0.46980361  0.00578678
   0.97805499  0.52305063  0.04184159
   0.93124694  0.56487969  0.97996743
   0.01773638  0.67697366  0.00018871
   0.04646079  0.65123432  0.03841952
   0.60028701  0.46723787  0.06241697
   0.68856508  0.66274439  0.04170519
   0.68526693  0.59151761  0.07382192
   0.60557191  0.58271961  0.01051910
   0.55149152  0.46179806  0.02331183
   0.80071201  0.56487821  0.02760186
   0.10783366  0.71738800  0.06099753
   0.73933756  0.62575845  0.10174587
   0.58860363  0.60901523  0.98204618
   0.74586383  0.76097561  0.04109141
   0.57850673  0.39051587  0.08018445
   0.97801980  0.47475917  0.06749991
   0.84325377  0.37353558  0.99917454
   0.88997216  0.55359183  0.95045301
   0.05376161  0.76621079  0.98868338
   0.48560582  0.38009817  0.00619013
   0.55594908  0.08380951  0.24998439
   0.55593518  0.33381223  0.24997714
   0.44405942  0.41618937  0.75000601
   0.55591635  0.58379166  0.24996394
   0.44406056  0.66619447  0.75000779
   0.55594728  0.83380323  0.24998398
   0.44406503  0.91619227  0.75000696
   0.88929785  0.33381792  0.24997689
   0.77740248  0.16617468  0.75000603
   0.77740355  0.41617308  0.75000691
   0.88930068  0.58381504  0.24996559
   0.77740359  0.66618023  0.75000761
   0.88929480  0.83383354  0.24996981
   0.77740229  0.91617872  0.75000621
   0.11072222  0.91618060  0.75000589
   0.88929751  0.08382469  0.24998240
   0.22260560  0.83382940  0.24998173
   0.44405864  0.16618645  0.75000586
   0.22261414  0.58382077  0.24997401
   0.11072114  0.41618003  0.75000623
   0.22260429  0.33382424  0.24997122
   0.22259829  0.08382890  0.24998028
   0.11071686  0.16617795  0.75000495
   0.11072701  0.66618248  0.75000786
   0.77758082  0.16642763  0.29452243
   0.88908919  0.08357488  0.79451803
   0.77756770  0.16640912  0.20548562
   0.88908255  0.08356703  0.70546331
   0.22242352  0.08357674  0.70546462
   0.11090078  0.16642033  0.20548179
   0.77758052  0.41643012  0.29451276
   0.88908973  0.33357262  0.79451917
   0.11091729  0.66642687  0.20547199
   0.55575445  0.83357821  0.70546542
   0.88908385  0.33356663  0.70546432
   0.22242489  0.08358343  0.79451694
   0.11092188  0.16644299  0.29452320
   0.77756740  0.66641918  0.29450148
   0.88909156  0.58357560  0.79452176
   0.77755239  0.66639560  0.20544242
   0.88908610  0.58356858  0.70546709
   0.77758791  0.91642349  0.29452112
   0.88909208  0.83357973  0.79451893
   0.77755267  0.41640128  0.20546647
   0.44424069  0.91641478  0.20548610
   0.44423954  0.91642247  0.29452308
   0.22242465  0.58357934  0.70546586
   0.22242810  0.58358582  0.79451801
   0.11090350  0.91643628  0.29452150
   0.22243186  0.83358893  0.79451814
   0.11092079  0.91643596  0.20547920
   0.22242653  0.83357805  0.70546559
   0.11090715  0.66642751  0.29451609
   0.77756411  0.91642329  0.20548250
   0.44423827  0.16642817  0.29452056
   0.55576009  0.08358413  0.79451764
   0.44423946  0.16641839  0.20548180
   0.55575434  0.08357659  0.70546470
   0.44423286  0.41642693  0.29451512
   0.55575780  0.33358192  0.79451780
   0.44424012  0.41639860  0.20546294
   0.55575478  0.33357602  0.70546582
   0.22242350  0.33357798  0.70546473
   0.11089404  0.41641618  0.20547606
   0.44424443  0.66641189  0.29451819
   0.55575953  0.58358655  0.79451797
   0.44423939  0.66641740  0.20547658
   0.55575512  0.58357944  0.70546658
   0.22242552  0.33358233  0.79451689
   0.11091860  0.41643202  0.29451856
   0.55576311  0.83358959  0.79451769
   0.88908418  0.83356805  0.70546476
Direct configuration=     9
   0.90633647  0.46984572  0.00581562
   0.97786046  0.52300564  0.04187443
   0.93106106  0.56490139  0.97995858
   0.01748709  0.67691338  0.00020236
   0.04627441  0.65120917  0.03844829
   0.60051755  0.46726274  0.06241927
   0.68872730  0.66269529  0.04167952
   0.68545710  0.59151812  0.07383798
   0.60575931  0.58276873  0.01048669
   0.55172486  0.46183532  0.02330171
   0.80071633  0.56488237  0.02760799
   0.10773939  0.71735949  0.06102975
   0.73939357  0.62575443  0.10175529
   0.58870956  0.60900367  0.98204289
   0.74598557  0.76104305  0.04108409
   0.57861084  0.39053182  0.08020219
   0.97794456  0.47477018  0.06751585
   0.84308696  0.37346798  0.99917329
   0.88989691  0.55360371  0.95045946
   0.05366912  0.76623587  0.98867517
   0.48570724  0.38007845  0.00616865
   0.55595263  0.08380600  0.24997634
   0.55593828  0.33380863  0.24996793
   0.44406245  0.41619318  0.75001132
   0.55591842  0.58378627  0.24995290
   0.44406395  0.66619866  0.75001351
   0.55595168  0.83379963  0.24997595
   0.44406868  0.91619652  0.75001261
   0.88930642  0.33381951  0.24996768
   0.77740473  0.16617441  0.75001157
   0.77740627  0.41617289  0.75001249
   0.88931007  0.58381642  0.24995478
   0.77740624  0.66618052  0.75001331