  93  93   0   0
  0.3967126E+02  0.9570947E-09  0.1276126E-08  0.3488026E-08  0.5000000E-15
  1.000000000000000E-004
  CAR 
 basalPlane                              
      2.53595708    -20.67871317  301      0.28108810      1.00000000
    -20.679  0.0000E+00  0.0000E+00
    -20.601  0.0000E+00  0.0000E+00
    -20.524  0.0000E+00  0.0000E+00
    -20.447  0.0000E+00  0.0000E+00
    -20.369  0.0000E+00  0.0000E+00
    -20.292  0.0000E+00  0.0000E+00
    -20.214  0.1435E-18  0.1110E-19
    -20.137  0.4910E-15  0.3800E-16
    -20.060  0.8924E-12  0.6909E-13
    -19.982  0.5030E-09  0.3899E-10
    -19.905  0.8876E-07  0.6907E-08
    -19.828  0.4967E-05  0.3913E-06
    -19.750  0.8971E-04  0.7333E-05
    -19.673  0.5335E-03  0.4862E-04
    -19.595  0.1064E-02  0.1309E-03
    -19.518  0.7173E-03  0.1864E-03
    -19.441  0.1634E-03  0.1991E-03
    -19.363  0.3468E-04  0.2018E-03
    -19.286  0.2395E-03  0.2203E-03
    -19.208  0.8467E-03  0.2858E-03
    -19.131  0.1011E-02  0.3640E-03
    -19.054  0.4076E-03  0.3956E-03
    -18.976  0.5495E-04  0.3998E-03
    -18.899  0.2430E-05  0.4000E-03
    -18.822  0.3453E-07  0.4000E-03
    -18.744  0.1552E-09  0.4000E-03
    -18.667  0.2179E-12  0.4000E-03
    -18.589  0.9469E-16  0.4000E-03
    -18.512  0.0000E+00  0.4000E-03
    -18.435  0.0000E+00  0.4000E-03
    -18.357  0.0000E+00  0.4000E-03
    -18.280  0.0000E+00  0.4000E-03
    -18.202  0.0000E+00  0.4000E-03
    -18.125  0.0000E+00  0.4000E-03
    -18.048  0.0000E+00  0.4000E-03
    -17.970  0.0000E+00  0.4000E-03
    -17.893  0.0000E+00  0.4000E-03
    -17.816  0.0000E+00  0.4000E-03
    -17.738  0.0000E+00  0.4000E-03
    -17.661  0.0000E+00  0.4000E-03
    -17.583  0.0000E+00  0.4000E-03
    -17.506  0.0000E+00  0.4000E-03
    -17.429  0.0000E+00  0.4000E-03
    -17.351  0.0000E+00  0.4000E-03
    -17.274  0.0000E+00  0.4000E-03
    -17.197  0.0000E+00  0.4000E-03
    -17.119  0.0000E+00  0.4000E-03
    -17.042  0.0000E+00  0.4000E-03
    -16.964  0.0000E+00  0.4000E-03
    -16.887  0.0000E+00  0.4000E-03
    -16.810  0.0000E+00  0.4000E-03
    -16.732  0.0000E+00  0.4000E-03
    -16.655  0.0000E+00  0.4000E-03
    -16.577  0.0000E+00  0.4000E-03
    -16.500  0.0000E+00  0.4000E-03
    -16.423  0.0000E+00  0.4000E-03
    -16.345  0.0000E+00  0.4000E-03
    -16.268  0.0000E+00  0.4000E-03
    -16.191  0.5739E-18  0.4000E-03
    -16.113  0.2473E-14  0.4000E-03
    -16.036  0.3551E-11  0.4000E-03
    -15.958  0.1588E-08  0.4000E-03
    -15.881  0.2243E-06  0.4000E-03
    -15.804  0.1026E-04  0.4008E-03
    -15.726  0.1582E-03  0.4131E-03
    -15.649  0.8741E-03  0.4807E-03
    -15.571  0.1865E-02  0.6250E-03
    -15.494  0.1618E-02  0.7503E-03
    -15.417  0.5648E-03  0.7940E-03
    -15.339  0.7435E-04  0.7997E-03
    -15.262  0.3435E-05  0.8000E-03
    -15.185  0.4516E-06  0.8000E-03
    -15.107  0.2110E-04  0.8017E-03
    -15.030  0.3723E-03  0.8305E-03
    -14.952  0.2300E-02  0.1008E-02
    -14.875  0.5537E-02  0.1437E-02
    -14.798  0.6439E-02  0.1935E-02
    -14.720  0.4353E-02  0.2272E-02
    -14.643  0.1921E-02  0.2421E-02
    -14.566  0.2348E-02  0.2602E-02
    -14.488  0.4294E-02  0.2935E-02
    -14.411  0.5210E-02  0.3338E-02
    -14.333  0.6298E-02  0.3825E-02
    -14.256  0.5224E-02  0.4229E-02
    -14.179  0.1964E-02  0.4381E-02
    -14.101  0.7951E-03  0.4443E-02
    -14.024  0.2505E-02  0.4637E-02
    -13.946  0.5750E-02  0.5082E-02
    -13.869  0.9890E-02  0.5847E-02
    -13.792  0.1356E-01  0.6897E-02
    -13.714  0.1140E-01  0.7778E-02
    -13.637  0.7745E-02  0.8378E-02
    -13.560  0.8446E-02  0.9031E-02
    -13.482  0.9482E-02  0.9765E-02
    -13.405  0.7734E-02  0.1036E-01
    -13.327  0.4247E-02  0.1069E-01
    -13.250  0.1238E-02  0.1079E-01
    -13.173  0.1501E-03  0.1080E-01
    -13.095  0.6576E-05  0.1080E-01
    -13.018  0.9685E-07  0.1080E-01
    -12.940  0.4606E-09  0.1080E-01
    -12.863  0.6912E-12  0.1080E-01
    -12.786  0.3228E-15  0.1080E-01
    -12.708  0.0000E+00  0.1080E-01
    -12.631  0.0000E+00  0.1080E-01
    -12.554  0.0000E+00  0.1080E-01
    -12.476  0.0000E+00  0.1080E-01
    -12.399  0.0000E+00  0.1080E-01
    -12.321  0.0000E+00  0.1080E-01
    -12.244  0.0000E+00  0.1080E-01
    -12.167  0.0000E+00  0.1080E-01
    -12.089  0.0000E+00  0.1080E-01
    -12.012  0.0000E+00  0.1080E-01
    -11.935  0.0000E+00  0.1080E-01
    -11.857  0.0000E+00  0.1080E-01
    -11.780  0.0000E+00  0.1080E-01
    -11.702  0.0000E+00  0.1080E-01
    -11.625  0.0000E+00  0.1080E-01
    -11.548  0.0000E+00  0.1080E-01
    -11.470  0.0000E+00  0.1080E-01
    -11.393  0.0000E+00  0.1080E-01
    -11.315  0.0000E+00  0.1080E-01
    -11.238  0.4519E-16  0.1080E-01
    -11.161  0.1155E-12  0.1080E-01
    -11.083  0.9138E-10  0.1080E-01
    -11.006  0.2264E-07  0.1080E-01
    -10.929  0.1789E-05  0.1080E-01
    -10.851  0.4644E-04  0.1080E-01
    -10.774  0.4174E-03  0.1084E-01
    -10.696  0.1407E-02  0.1094E-01
    -10.619  0.1985E-02  0.1110E-01
    -10.542  0.1669E-02  0.1123E-01
    -10.464  0.2252E-02  0.1140E-01
    -10.387  0.2949E-02  0.1163E-01
    -10.309  0.1758E-02  0.1177E-01
    -10.232  0.4477E-03  0.1180E-01
    -10.155  0.3833E-03  0.1183E-01
    -10.077  0.9692E-03  0.1191E-01
    -10.000  0.9058E-03  0.1198E-01
     -9.923  0.2860E-03  0.1200E-01
     -9.845  0.3006E-04  0.1200E-01
     -9.768  0.1031E-05  0.1200E-01
     -9.690  0.1133E-07  0.1200E-01
     -9.613  0.3925E-10  0.1200E-01
     -9.536  0.4236E-13  0.1200E-01
     -9.458  0.1435E-16  0.1200E-01
     -9.381  0.0000E+00  0.1200E-01
     -9.304  0.0000E+00  0.1200E-01
     -9.226  0.0000E+00  0.1200E-01
     -9.149  0.0000E+00  0.1200E-01
     -9.071  0.0000E+00  0.1200E-01
     -8.994  0.0000E+00  0.1200E-01
     -8.917  0.0000E+00  0.1200E-01
     -8.839  0.0000E+00  0.1200E-01
     -8.762  0.0000E+00  0.1200E-01
     -8.684  0.0000E+00  0.1200E-01
     -8.607  0.0000E+00  0.1200E-01
     -8.530  0.0000E+00  0.1200E-01
     -8.452  0.0000E+00  0.1200E-01
     -8.375  0.0000E+00  0.1200E-01
     -8.298  0.1435E-18  0.1200E-01
     -8.220  0.9072E-15  0.1200E-01
     -8.143  0.1508E-11  0.1200E-01
     -8.065  0.7775E-09  0.1200E-01
     -7.988  0.1256E-06  0.1200E-01
     -7.911  0.6445E-05  0.1200E-01
     -7.833  0.1069E-03  0.1201E-01
     -7.756  0.5843E-03  0.1205E-01
     -7.678  0.1072E-02  0.1214E-01
     -7.601  0.6658E-03  0.1219E-01
     -7.524  0.1457E-03  0.1220E-01
     -7.446  0.1400E-03  0.1221E-01
     -7.369  0.9248E-03  0.1228E-01
     -7.292  0.2805E-02  0.1250E-01
     -7.214  0.4335E-02  0.1283E-01
     -7.137  0.3750E-02  0.1312E-01
     -7.059  0.2484E-02  0.1332E-01
     -6.982  0.2418E-02  0.1350E-01
     -6.905  0.3161E-02  0.1375E-01
     -6.827  0.6045E-02  0.1422E-01
     -6.750  0.1068E-01  0.1504E-01
     -6.673  0.1073E-01  0.1587E-01
     -6.595  0.7684E-02  0.1647E-01
     -6.518  0.1041E-01  0.1727E-01
     -6.440  0.1496E-01  0.1843E-01
     -6.363  0.1391E-01  0.1951E-01
     -6.286  0.1007E-01  0.2029E-01
     -6.208  0.5102E-02  0.2068E-01
     -6.131  0.1362E-02  0.2079E-01
     -6.053  0.1594E-03  0.2080E-01
     -5.976  0.7310E-05  0.2080E-01
     -5.899  0.6984E-05  0.2080E-01
     -5.821  0.1564E-03  0.2081E-01
     -5.744  0.1275E-02  0.2091E-01
     -5.667  0.4024E-02  0.2122E-01
     -5.589  0.5510E-02  0.2165E-01
     -5.512  0.4972E-02  0.2203E-01
     -5.434  0.9312E-02  0.2275E-01
     -5.357  0.1961E-01  0.2427E-01
     -5.280  0.2086E-01  0.2589E-01
     -5.202  0.9928E-02  0.2665E-01
     -5.125  0.3033E-02  0.2689E-01
     -5.048  0.3505E-02  0.2716E-01
     -4.970  0.3795E-02  0.2745E-01
     -4.893  0.1868E-02  0.2760E-01
     -4.815  0.2295E-02  0.2778E-01
     -4.738  0.6920E-02  0.2831E-01
     -4.661  0.1021E-01  0.2910E-01
     -4.583  0.8337E-02  0.2975E-01
     -4.506  0.7517E-02  0.3033E-01
     -4.428  0.8895E-02  0.3102E-01
     -4.351  0.9321E-02  0.3174E-01
     -4.274  0.6528E-02  0.3224E-01
     -4.196  0.3680E-02  0.3253E-01
     -4.119  0.4764E-02  0.3290E-01
     -4.042  0.6354E-02  0.3339E-01
     -3.964  0.6317E-02  0.3388E-01
     -3.887  0.5638E-02  0.3431E-01
     -3.809  0.4408E-02  0.3465E-01
     -3.732  0.2839E-02  0.3487E-01
     -3.655  0.2464E-02  0.3506E-01
     -3.577  0.2014E-02  0.3522E-01
     -3.500  0.2888E-02  0.3544E-01
     -3.422  0.5422E-02  0.3586E-01
     -3.345  0.8830E-02  0.3655E-01
     -3.268  0.1359E-01  0.3760E-01
     -3.190  0.1448E-01  0.3872E-01
     -3.113  0.1107E-01  0.3958E-01
     -3.036  0.8392E-02  0.4023E-01
     -2.958  0.7298E-02  0.4079E-01
     -2.881  0.8718E-02  0.4146E-01
     -2.803  0.1103E-01  0.4232E-01
     -2.726  0.9093E-02  0.4302E-01
     -2.649  0.4326E-02  0.4336E-01
     -2.571  0.3151E-02  0.4360E-01
     -2.494  0.6635E-02  0.4411E-01
     -2.417  0.8842E-02  0.4480E-01
     -2.339  0.7509E-02  0.4538E-01
     -2.262  0.5267E-02  0.4579E-01
     -2.184  0.5085E-02  0.4618E-01
     -2.107  0.6133E-02  0.4665E-01
     -2.030  0.5615E-02  0.4709E-01
     -1.952  0.5085E-02  0.4748E-01
     -1.875  0.3207E-02  0.4773E-01
     -1.797  0.1377E-02  0.4784E-01
     -1.720  0.2524E-02  0.4803E-01
     -1.643  0.4162E-02  0.4835E-01
     -1.565  0.3031E-02  0.4859E-01
     -1.488  0.2185E-02  0.4876E-01
     -1.411  0.2053E-02  0.4892E-01
     -1.333  0.9123E-03  0.4899E-01
     -1.256  0.1475E-03  0.4900E-01
     -1.178  0.8274E-05  0.4900E-01
     -1.101  0.1557E-06  0.4900E-01
     -1.024  0.9542E-09  0.4900E-01
     -0.946  0.1863E-11  0.4900E-01
     -0.869  0.1140E-14  0.4900E-01
     -0.791  0.0000E+00  0.4900E-01
     -0.714  0.0000E+00  0.4900E-01
     -0.637  0.0000E+00  0.4900E-01
     -0.559  0.0000E+00  0.4900E-01
     -0.482  0.0000E+00  0.4900E-01
     -0.405  0.0000E+00  0.4900E-01
     -0.327  0.0000E+00  0.4900E-01
     -0.250  0.0000E+00  0.4900E-01
     -0.172  0.2486E-15  0.4900E-01
     -0.095  0.5432E-12  0.4900E-01
     -0.018  0.3789E-09  0.4900E-01
      0.060  0.8584E-07  0.4900E-01
      0.137  0.6463E-05  0.4900E-01
      0.214  0.1662E-03  0.4901E-01
      0.292  0.1503E-02  0.4913E-01
      0.369  0.4937E-02  0.4951E-01
      0.447  0.6347E-02  0.5000E-01
      0.524  0.5069E-02  0.5040E-01
      0.601  0.7020E-02  0.5094E-01
      0.679  0.1276E-01  0.5193E-01
      0.756  0.1652E-01  0.5320E-01
      0.834  0.1453E-01  0.5433E-01
      0.911  0.1282E-01  0.5532E-01
      0.988  0.8319E-02  0.5596E-01
      1.066  0.2870E-02  0.5619E-01
      1.143  0.2112E-02  0.5635E-01
      1.220  0.6293E-02  0.5684E-01
      1.298  0.1085E-01  0.5768E-01
      1.375  0.1151E-01  0.5857E-01
      1.453  0.9756E-02  0.5932E-01
      1.530  0.6275E-02  0.5981E-01
      1.607  0.2171E-02  0.5997E-01
      1.685  0.3097E-03  0.6000E-01
      1.762  0.1590E-04  0.6000E-01
      1.840  0.2744E-06  0.6000E-01
      1.917  0.1529E-08  0.6000E-01
      1.994  0.2691E-11  0.6000E-01
      2.072  0.1475E-14  0.6000E-01
      2.149  0.0000E+00  0.6000E-01
      2.226  0.0000E+00  0.6000E-01
      2.304  0.0000E+00  0.6000E-01
      2.381  0.0000E+00  0.6000E-01
      2.459  0.0000E+00  0.6000E-01
      2.536  0.0000E+00  0.6000E-01
