 running on   36 total cores
 distrk:  each k-point on   36 cores,    1 groups
 distr:  one band on    3 cores,   12 groups
 using from now: INCAR     
 vasp.5.4.1 05Feb16 (build Apr 21 2017 13:36:42) gamma-only                     
  
 POSCAR found :  5 types and      93 ions
 scaLAPACK will be used
 LDA part: xc-table for Pade appr. of Perdew
 POSCAR found :  5 types and      93 ions
 POSCAR, INCAR and KPOINTS ok, starting setup
 FFT: planning ...
 WAVECAR not read
 entering main loop
       N       E                     dE             d eps       ncg     rms          rms(c)
DAV:   1     0.436736270315E+04    0.43674E+04   -0.18236E+05   612   0.112E+03
DAV:   2    -0.262020110670E+02   -0.43936E+04   -0.42462E+04   972   0.267E+02
DAV:   3    -0.677868608611E+03   -0.65167E+03   -0.64388E+03   720   0.113E+02
DAV:   4    -0.709118031440E+03   -0.31249E+02   -0.31095E+02   828   0.269E+01
DAV:   5    -0.710195661933E+03   -0.10776E+01   -0.10721E+01   888   0.548E+00    0.123E+02
DAV:   6    -0.691579328214E+03    0.18616E+02   -0.60261E+02   804   0.410E+01    0.784E+01
DAV:   7    -0.708153886307E+03   -0.16575E+02   -0.32069E+02   852   0.562E+01    0.633E+01
DAV:   8    -0.749890296953E+03   -0.41736E+02   -0.27403E+02   840   0.219E+01    0.764E+01
DAV:   9    -0.751136596217E+03   -0.12463E+01   -0.10831E+03   828   0.164E+01    0.692E+01
DAV:  10    -0.692582710614E+03    0.58554E+02   -0.14725E+02   828   0.132E+01    0.353E+01
DAV:  11    -0.661985833597E+03    0.30597E+02   -0.33513E+01   852   0.268E+01    0.244E+01
DAV:  12    -0.658561955067E+03    0.34239E+01   -0.47647E+01   888   0.119E+01    0.266E+01
DAV:  13    -0.658968672667E+03   -0.40672E+00   -0.24909E+00   792   0.220E+00    0.259E+01
DAV:  14    -0.659285718507E+03   -0.31705E+00   -0.17276E-01   912   0.144E+00    0.248E+01
DAV:  15    -0.659316555162E+03   -0.30837E-01   -0.91803E-02   876   0.561E-01    0.239E+01
DAV:  16    -0.660447758818E+03   -0.11312E+01   -0.93159E+00   948   0.292E+00    0.192E+01
DAV:  17    -0.658751559933E+03    0.16962E+01   -0.53035E+00   864   0.352E+00    0.172E+01
DAV:  18    -0.657746883454E+03    0.10047E+01   -0.56184E+00   888   0.622E+00    0.130E+01
DAV:  19    -0.660424782627E+03   -0.26779E+01   -0.17885E+01   888   0.238E+00    0.341E+01
DAV:  20    -0.658715336246E+03    0.17094E+01   -0.12280E+01   924   0.591E+00    0.208E+01
DAV:  21    -0.657338464291E+03    0.13769E+01   -0.73563E-01   852   0.165E+00    0.136E+01
DAV:  22    -0.657078964229E+03    0.25950E+00   -0.37940E-01   840   0.780E-01    0.114E+01
DAV:  23    -0.657261589522E+03   -0.18263E+00   -0.14305E-01   876   0.118E+00    0.122E+01
DAV:  24    -0.656979405290E+03    0.28218E+00   -0.25580E-01   948   0.102E+00    0.903E+00
DAV:  25    -0.656755388459E+03    0.22402E+00   -0.24915E-01   816   0.731E-01    0.656E+00
DAV:  26    -0.656632443307E+03    0.12295E+00   -0.62539E-02   852   0.415E-01    0.571E+00
DAV:  27    -0.656445791080E+03    0.18665E+00   -0.18477E-02   804   0.238E-01    0.516E+00
DAV:  28    -0.656173166767E+03    0.27262E+00   -0.66083E-02   888   0.473E-01    0.388E+00
DAV:  29    -0.655988302933E+03    0.18486E+00   -0.68604E-02   888   0.484E-01    0.312E+00
DAV:  30    -0.655932829343E+03    0.55474E-01   -0.22410E-02   756   0.196E-01    0.295E+00
DAV:  31    -0.655868243069E+03    0.64586E-01   -0.11732E-02   768   0.152E-01    0.191E+00
DAV:  32    -0.655874113605E+03   -0.58705E-02   -0.94171E-04   756   0.656E-02    0.209E+00
DAV:  33    -0.655844280506E+03    0.29833E-01   -0.22214E-01   768   0.149E-01    0.140E+00
DAV:  34    -0.655845929041E+03   -0.16485E-02   -0.13035E-02   792   0.140E-01    0.140E+00
DAV:  35    -0.655845364276E+03    0.56477E-03   -0.73819E-04   588   0.397E-02    0.137E+00
DAV:  36    -0.655844865001E+03    0.49927E-03   -0.37206E-02   816   0.101E-01    0.136E+00
DAV:  37    -0.655844686252E+03    0.17875E-03   -0.11887E-03   720   0.445E-02    0.139E+00
DAV:  38    -0.655847918107E+03   -0.32319E-02   -0.12388E-03   720   0.510E-02    0.145E+00
DAV:  39    -0.655856204771E+03   -0.82867E-02   -0.18895E-02   876   0.231E-01    0.122E+00
DAV:  40    -0.655860347867E+03   -0.41431E-02   -0.68476E-03   792   0.935E-02    0.968E-01
DAV:  41    -0.655867273445E+03   -0.69256E-02   -0.58893E-03   732   0.605E-02    0.771E-01
DAV:  42    -0.655875234248E+03   -0.79608E-02   -0.82931E-04   684   0.420E-02    0.747E-01
DAV:  43    -0.655890551408E+03   -0.15317E-01   -0.89652E-03   792   0.864E-02    0.942E-01
DAV:  44    -0.655903339985E+03   -0.12789E-01   -0.58702E-03   720   0.658E-02    0.806E-01
DAV:  45    -0.655922640066E+03   -0.19300E-01   -0.18388E-03   780   0.687E-02    0.934E-01
DAV:  46    -0.655927398342E+03   -0.47583E-02   -0.25364E-03   636   0.722E-02    0.105E+00
DAV:  47    -0.655931130688E+03   -0.37323E-02   -0.10539E-03   708   0.371E-02    0.115E+00
DAV:  48    -0.655933556909E+03   -0.24262E-02   -0.33974E-03   528   0.408E-02    0.129E+00
DAV:  49    -0.655933937603E+03   -0.38069E-03   -0.23752E-03   672   0.483E-02    0.149E+00
DAV:  50    -0.655932486893E+03    0.14507E-02   -0.35231E-04   660   0.285E-02    0.156E+00
DAV:  51    -0.655940003940E+03   -0.75170E-02   -0.15631E-03   720   0.525E-02    0.176E+00
DAV:  52    -0.655938963276E+03    0.10407E-02   -0.58499E-04   648   0.290E-02    0.186E+00
DAV:  53    -0.655939352600E+03   -0.38932E-03   -0.41682E-05   480   0.107E-02    0.185E+00
DAV:  54    -0.655938830754E+03    0.52185E-03   -0.82488E-06   408   0.502E-03    0.185E+00
DAV:  55    -0.655937510446E+03    0.13203E-02   -0.10418E-04   408   0.140E-02    0.190E+00
DAV:  56    -0.655940320423E+03   -0.28100E-02   -0.32616E-03   672   0.539E-02    0.219E+00
DAV:  57    -0.655933527561E+03    0.67929E-02   -0.52885E-04   672   0.258E-02    0.213E+00
DAV:  58    -0.655934564425E+03   -0.10369E-02   -0.97183E-05   408   0.175E-02    0.212E+00
DAV:  59    -0.655935161489E+03   -0.59706E-03   -0.19417E-04   492   0.181E-02    0.215E+00
DAV:  60    -0.655933375043E+03    0.17864E-02   -0.68744E-05   444   0.144E-02    0.211E+00
DAV:  61    -0.655916746884E+03    0.16628E-01   -0.12606E-03   744   0.437E-02    0.205E+00
DAV:  62    -0.655917333609E+03   -0.58673E-03   -0.25113E-04   444   0.232E-02    0.207E+00
DAV:  63    -0.655916456525E+03    0.87708E-03   -0.53865E-05   408   0.123E-02    0.206E+00
DAV:  64    -0.655915558578E+03    0.89795E-03   -0.49516E-05   372   0.901E-03    0.208E+00
DAV:  65    -0.655913929110E+03    0.16295E-02   -0.38865E-05   408   0.758E-03    0.210E+00
DAV:  66    -0.655907812258E+03    0.61169E-02   -0.26027E-04   552   0.194E-02    0.215E+00
DAV:  67    -0.655902331624E+03    0.54806E-02   -0.13709E-04   492   0.152E-02    0.214E+00
DAV:  68    -0.655899086598E+03    0.32450E-02   -0.38907E-05   372   0.107E-02    0.214E+00
DAV:  69    -0.655890507468E+03    0.85791E-02   -0.29068E-04   540   0.208E-02    0.206E+00
DAV:  70    -0.655865867632E+03    0.24640E-01   -0.27231E-03   696   0.598E-02    0.182E+00
DAV:  71    -0.655871592951E+03   -0.57253E-02   -0.20367E-01   708   0.962E-02    0.248E+00
DAV:  72    -0.655855072098E+03    0.16521E-01   -0.46388E-02   696   0.642E-02    0.185E+00
DAV:  73    -0.655918188013E+03   -0.63116E-01   -0.13675E-01   708   0.551E-02    0.317E+00
DAV:  74    -0.655869052064E+03    0.49136E-01   -0.54596E-04   696   0.570E-02    0.234E+00
DAV:  75    -0.655865306070E+03    0.37460E-02   -0.17841E-04   432   0.343E-02    0.227E+00
DAV:  76    -0.656442129260E+03   -0.57682E+00   -0.99772E-01   708   0.277E-01    0.349E+00
DAV:  77    -0.656444435913E+03   -0.23067E-02   -0.38627E-03   792   0.897E-02    0.348E+00
DAV:  78    -0.656377028868E+03    0.67407E-01   -0.44010E-04   684   0.480E-02    0.344E+00
DAV:  79    -0.656245517834E+03    0.13151E+00   -0.21287E-03   852   0.101E-01    0.335E+00
DAV:  80    -0.656064445959E+03    0.18107E+00   -0.41981E-03   828   0.161E-01    0.321E+00
DAV:  81    -0.656136085509E+03   -0.71640E-01   -0.15634E-03   732   0.818E-02    0.326E+00
DAV:  82    -0.656121490914E+03    0.14595E-01   -0.97093E-05   468   0.223E-02    0.325E+00
DAV:  83    -0.656087446336E+03    0.34045E-01   -0.13401E-04   588   0.326E-02    0.322E+00
DAV:  84    -0.655897311761E+03    0.19013E+00   -0.19048E-02   852   0.169E-01    0.112E+00
DAV:  85    -0.655872411078E+03    0.24901E-01   -0.21951E-03   756   0.128E-01    0.757E-01
DAV:  86    -0.656026849943E+03   -0.15444E+00   -0.48366E-01   792   0.175E-01    0.325E+00
DAV:  87    -0.655930354045E+03    0.96496E-01   -0.88290E-03   780   0.123E-01    0.275E+00
DAV:  88    -0.655858964297E+03    0.71390E-01   -0.92174E-01   648   0.763E-02    0.207E+00
DAV:  89    -0.655896624265E+03   -0.37660E-01   -0.59989E-01   708   0.168E-01    0.242E+00
DAV:  90    -0.655888282033E+03    0.83422E-02   -0.19429E-03   768   0.114E-01    0.200E+00
DAV:  91    -0.655855651997E+03    0.32630E-01   -0.88266E-02   636   0.464E-02    0.587E-01
DAV:  92    -0.655860705191E+03   -0.50532E-02   -0.85660E-03   564   0.598E-02    0.105E+00
DAV:  93    -0.655850436806E+03    0.10268E-01   -0.16416E-02   456   0.328E-02    0.535E-01
DAV:  94    -0.655854043764E+03   -0.36070E-02   -0.52835E-03   492   0.454E-02    0.796E-01
DAV:  95    -0.655846492308E+03    0.75515E-02   -0.76146E-03   480   0.280E-02    0.492E-01
DAV:  96    -0.655844615853E+03    0.18765E-02   -0.20427E-04   480   0.331E-02    0.522E-01
DAV:  97    -0.655847825002E+03   -0.32091E-02   -0.12429E-04   372   0.194E-02    0.462E-01
DAV:  98    -0.655846566232E+03    0.12588E-02   -0.97930E-05   468   0.261E-02    0.413E-01
DAV:  99    -0.655843174376E+03    0.33919E-02   -0.20061E-04   420   0.188E-02    0.296E-01
DAV: 100    -0.655843173618E+03    0.75788E-06   -0.47902E-04   384   0.248E-02
   1 F= -.67114315E+03 E0= -.67108128E+03  d E =-.671143E+03
 curvature:   0.00 expect dE= 0.000E+00 dE for cont linesearch  0.000E+00
 trial: gam= 0.00000 g(F)=  0.315E+00 g(S)=  0.000E+00 ort = 0.000E+00 (trialstep = 0.100E+01)
 search vector abs. value=  0.315E+00
 bond charge predicted
       N       E                     dE             d eps       ncg     rms          rms(c)
DAV:   1    -0.655893600415E+03   -0.50426E-01   -0.23022E+01   600   0.727E+00    0.385E+00
DAV:   2    -0.656324073409E+03   -0.43047E+00   -0.25466E+00   864   0.289E+00    0.617E+00
DAV:   3    -0.656215846888E+03    0.10823E+00   -0.45813E+00   840   0.452E+00    0.531E+00
DAV:   4    -0.656035217612E+03    0.18063E+00   -0.64982E-01   840   0.181E+00    0.355E+00
DAV:   5    -0.655990162961E+03    0.45055E-01   -0.76621E-01   924   0.872E-01    0.252E+00
DAV:   6    -0.655991429874E+03   -0.12669E-02   -0.14082E-01   828   0.442E-01    0.250E+00
DAV:   7    -0.656063069697E+03   -0.71640E-01   -0.10435E+00   744   0.394E-01    0.359E+00
DAV:   8    -0.655980871910E+03    0.82198E-01   -0.11390E-02   828   0.245E-01    0.217E+00
DAV:   9    -0.655962488001E+03    0.18384E-01   -0.12578E-01   876   0.244E-01    0.238E-01
DAV:  10    -0.655963201447E+03   -0.71345E-03   -0.54703E-03   792   0.994E-02    0.444E-01
DAV:  11    -0.655962903857E+03    0.29759E-03   -0.47183E-03   636   0.631E-02    0.296E-01
DAV:  12    -0.655962865527E+03    0.38330E-04   -0.15781E-03   576   0.392E-02    0.157E-01
DAV:  13    -0.655962771639E+03    0.93888E-04   -0.76295E-04   552   0.350E-02
   2 F= -.67129053E+03 E0= -.67123019E+03  d E =-.147382E+00
 trial-energy change:   -0.147382  1 .order   -0.146979   -0.314904    0.020945
 step:   0.9376(harm=  0.9376)  dis= 0.03067  next Energy=  -671.290780 (dE=-0.148E+00)
 bond charge predicted
       N       E                     dE             d eps       ncg     rms          rms(c)
DAV:   1    -0.655964698187E+03   -0.18327E-02   -0.89107E-02   624   0.456E-01    0.196E-01
DAV:   2    -0.655965116285E+03   -0.41810E-03   -0.42126E-03   780   0.111E-01    0.187E-01
DAV:   3    -0.655967217339E+03   -0.21011E-02   -0.12281E-02   708   0.120E-01    0.941E-01
DAV:   4    -0.655965269502E+03    0.19478E-02   -0.16484E-02   636   0.118E-01    0.209E-01
DAV:   5    -0.655965165744E+03    0.10376E-03   -0.34498E-03   576   0.528E-02    0.179E-01
DAV:   6    -0.655965009075E+03    0.15667E-03   -0.26760E-04   408   0.280E-02    0.170E-01
DAV:   7    -0.655964951823E+03    0.57252E-04   -0.22939E-04   372   0.240E-02
   3 F= -.67129090E+03 E0= -.67122968E+03  d E =-.147754E+00
 curvature:  -0.47 expect dE=-0.954E-01 dE for cont linesearch -0.719E-05
 trial: gam= 0.63895 g(F)=  0.203E+00 g(S)=  0.000E+00 ort = 0.220E-02 (trialstep = 0.929E+00)
 search vector abs. value=  0.335E+00
 bond charge predicted
       N       E                     dE             d eps       ncg     rms          rms(c)
DAV:   1    -0.655776875558E+03    0.18813E+00   -0.24689E+01   600   0.690E+00    0.314E+00
DAV:   2    -0.656313008403E+03   -0.53613E+00   -0.40253E+00   876   0.313E+00    0.660E+00
DAV:   3    -0.655904674382E+03    0.40833E+00   -0.20171E+00   876   0.392E+00    0.395E+00
DAV:   4    -0.655923016088E+03   -0.18342E-01   -0.16017E+00   840   0.134E+00    0.342E+00
DAV:   5    -0.655846397547E+03    0.76619E-01   -0.28808E-01   948   0.694E-01    0.116E+00
DAV:   6    -0.655875696627E+03   -0.29299E-01   -0.53822E-01   816   0.434E-01    0.280E+00
DAV:   7    -0.655888637891E+03   -0.12941E-01   -0.10296E+00   840   0.488E-01    0.325E+00
DAV:   8    -0.655862781785E+03    0.25856E-01   -0.11026E-02   816   0.232E-01    0.259E+00
DAV:   9    -0.655837974453E+03    0.24807E-01   -0.45130E-02   864   0.231E-01    0.799E-01
DAV:  10    -0.655834921469E+03    0.30530E-02   -0.10245E-02   852   0.121E-01    0.350E-01
DAV:  11    -0.655834715587E+03    0.20588E-03   -0.17497E-03   792   0.577E-02    0.240E-01
DAV:  12    -0.655834004643E+03    0.71094E-03   -0.33065E-03   624   0.435E-02    0.250E-01
DAV:  13    -0.655833532085E+03    0.47256E-03   -0.18479E-03   588   0.377E-02    0.185E-01
DAV:  14    -0.655833388689E+03    0.14340E-03   -0.12130E-03   444   0.274E-02    0.598E-02
DAV:  15    -0.655833372736E+03    0.15953E-04   -0.98695E-05   372   0.165E-02
   4 F= -.67118096E+03 E0= -.67111983E+03  d E =0.109942E+00
 trial-energy change:    0.109942  1 .order    0.113774   -0.190250    0.417799
 step:   0.2983(harm=  0.2906)  dis= 0.01363  next Energy=  -671.321575 (dE=-0.307E-01)
 bond charge predicted
       N       E                     dE             d eps       ncg     rms          rms(c)
DAV:   1    -0.655964630178E+03   -0.13124E+00   -0.11371E+01   600   0.466E+00    0.191E+00
DAV:   2    -0.656283480808E+03   -0.31885E+00   -0.33869E+00   864   0.213E+00    0.533E+00
DAV:   3    -0.656018694006E+03    0.26479E+00   -0.70735E-01   852   0.196E+00    0.268E+00
DAV:   4    -0.656013712560E+03    0.49814E-02   -0.49082E-01   840   0.608E-01    0.245E+00
DAV:   5    -0.655997075887E+03    0.16637E-01   -0.21765E-01   864   0.246E-01    0.107E+00
DAV:   6    -0.656004340857E+03   -0.72650E-02   -0.28232E-01   852   0.316E-01    0.116E+00
DAV:   7    -0.655999891172E+03    0.44497E-02   -0.31805E-01   828   0.273E-01    0.177E+00
DAV:   8    -0.655997948235E+03    0.19429E-02   -0.46294E-03   816   0.125E-01    0.154E+00
DAV:   9    -0.655994567154E+03    0.33811E-02   -0.22769E-03   828   0.789E-02    0.131E+00
DAV:  10    -0.655990621939E+03    0.39452E-02   -0.42457E-03   828   0.704E-02    0.728E-01
DAV:  11    -0.655989195487E+03    0.14265E-02   -0.13118E-03   708   0.480E-02    0.394E-01
DAV:  12    -0.655988944752E+03    0.25073E-03   -0.14532E-04   420   0.207E-02    0.291E-01
DAV:  13    -0.655988780203E+03    0.16455E-03   -0.21347E-04   360   0.166E-02    0.142E-01
DAV:  14    -0.655988731801E+03    0.48402E-04   -0.17722E-04   408   0.138E-02
   5 F= -.67132145E+03 E0= -.67126058E+03  d E =-.305522E-01
 curvature:  -0.24 expect dE=-0.139E-01 dE for cont linesearch -0.617E-08
 trial: gam= 0.29506 g(F)=  0.584E-01 g(S)=  0.000E+00 ort =-0.933E-04 (trialstep = 0.803E+00)
 search vector abs. value=  0.875E-01
 bond charge predicted
       N       E                     dE             d eps       ncg     rms          rms(c)
DAV:   1    -0.656007483488E+03   -0.18703E-01   -0.52600E+00   600   0.330E+00    0.875E-01
DAV:   2    -0.656066579225E+03   -0.59096E-01   -0.31947E-01   840   0.758E-01    0.345E+00
DAV:   3    -0.656031691527E+03    0.34888E-01   -0.49592E-01   876   0.928E-01    0.210E+00
DAV:   4    -0.656027091650E+03    0.45999E-02   -0.30064E-01   840   0.418E-01    0.181E+00
DAV:   5    -0.656017582371E+03    0.95093E-02   -0.90863E-03   804   0.154E-01    0.901E-01
DAV:   6    -0.656016058477E+03    0.15239E-02   -0.93714E-03   876   0.118E-01    0.302E-01
DAV:   7    -0.656016235151E+03   -0.17667E-03   -0.24779E-02   888   0.137E-01    0.631E-01
DAV:   8    -0.656015038102E+03    0.11970E-02   -0.56595E-03   672   0.558E-02    0.287E-01
DAV:   9    -0.656014893984E+03    0.14412E-03   -0.38339E-04   528   0.312E-02    0.230E-01
DAV:  10    -0.656014795897E+03    0.98087E-04   -0.22360E-04   396   0.217E-02
   6 F= -.67135106E+03 E0= -.67129028E+03  d E =-.296026E-01
 trial-energy change:   -0.029603  1 .order   -0.029572   -0.046879   -0.012264
 step:   1.0872(harm=  1.0872)  dis= 0.02305  next Energy=  -671.353197 (dE=-0.317E-01)
 bond charge predicted
       N       E                     dE             d eps       ncg     rms          rms(c)
DAV:   1    -0.656014712707E+03    0.18128E-03   -0.66144E-01   600   0.117E+00    0.321E-01
DAV:   2    -0.656025156198E+03   -0.10443E-01   -0.60125E-02   864   0.286E-01    0.190E+00
DAV:   3    -0.656018290515E+03    0.68657E-02   -0.90707E-02   864   0.310E-01    0.844E-01
DAV:   4    -0.656017580381E+03    0.71013E-03   -0.26160E-02   816   0.146E-01    0.710E-01
DAV:   5    -0.656016238633E+03    0.13417E-02   -0.11654E-03   756   0.671E-02    0.451E-01
DAV:   6    -0.656015745113E+03    0.49352E-03   -0.22664E-03   564   0.600E-02    0.993E-02
DAV:   7    -0.656015683829E+03    0.61284E-04   -0.49983E-04   612   0.306E-02
   7 F= -.67135320E+03 E0= -.67129259E+03  d E =-.317477E-01
 curvature:  -0.81 expect dE=-0.419E-01 dE for cont linesearch -0.175E-07
 trial: gam= 0.86702 g(F)=  0.514E-01 g(S)=  0.000E+00 ort =-0.434E-04 (trialstep = 0.642E+00)
 search vector abs. value=  0.117E+00
 bond charge predicted
       N       E                     dE             d eps       ncg     rms          rms(c)
DAV:   1    -0.656031071937E+03   -0.15327E-01   -0.39277E+00   600   0.258E+00    0.760E-01
DAV:   2    -0.656043359436E+03   -0.12287E-01   -0.14249E-01   828   0.516E-01    0.152E+00
DAV:   3    -0.656068771493E+03   -0.25412E-01   -0.50141E-01   876   0.584E-01    0.284E+00
DAV:   4    -0.656045207898E+03    0.23564E-01   -0.37567E-01   828   0.516E-01    0.154E+00
DAV:   5    -0.656039866948E+03    0.53410E-02   -0.72597E-03   828   0.112E-01    0.774E-01
DAV:   6    -0.656037914671E+03    0.19523E-02   -0.58368E-03   852   0.112E-01    0.295E-01
DAV:   7    -0.656038094430E+03   -0.17976E-03   -0.29573E-03   792   0.693E-02    0.170E-01
DAV:   8    -0.656037663040E+03    0.43139E-03   -0.12805E-03   648   0.467E-02    0.137E-01
DAV:   9    -0.656037604667E+03    0.58373E-04   -0.24544E-04   384   0.230E-02
   8 F= -.67137497E+03 E0= -.67131461E+03  d E =-.217676E-01
 trial-energy change:   -0.021768  1 .order   -0.021842   -0.032996   -0.010688
 step:   0.9502(harm=  0.9502)  dis= 0.02536  next Energy=  -671.377604 (dE=-0.244E-01)
 bond charge predicted
       N       E                     dE             d eps       ncg     rms          rms(c)
DAV:   1    -0.656038723386E+03   -0.10603E-02   -0.90112E-01   600   0.124E+00    0.367E-01
DAV:   2    -0.656041073152E+03   -0.23498E-02   -0.30625E-02   816   0.242E-01    0.564E-01
DAV:   3    -0.656049263117E+03   -0.81900E-02   -0.11024E-01   876   0.266E-01    0.177E+00
DAV:   4    -0.656042427335E+03    0.68358E-02   -0.11732E-01   780   0.262E-01    0.836E-01
DAV:   5    -0.656040842457E+03    0.15849E-02   -0.27096E-03   720   0.654E-02    0.380E-01
DAV:   6    -0.656040393262E+03    0.44920E-03   -0.12711E-03   708   0.502E-02    0.218E-01
DAV:   7    -0.656040387246E+03    0.60160E-05   -0.74005E-04   720   0.353E-02
   9 F= -.67137768E+03 E0= -.67131800E+03  d E =-.244770E-01
 curvature:  -1.08 expect dE=-0.752E-01 dE for cont linesearch -0.489E-06
 trial: gam= 1.33814 g(F)=  0.694E-01 g(S)=  0.000E+00 ort = 0.230E-03 (trialstep = 0.295E+00)
 search vector abs. value=  0.280E+00
 bond charge predicted
       N       E                     dE             d eps       ncg     rms          rms(c)
DAV:   1    -0.656054301204E+03   -0.13908E-01   -0.16175E+00   600   0.166E+00    0.545E-01
DAV:   2    -0.656064117933E+03   -0.98167E-02   -0.10369E-01   876   0.450E-01    0.145E+00
DAV:   3    -0.656073149297E+03   -0.90314E-02   -0.24415E-01   864   0.445E-01    0.237E+00
DAV:   4    -0.656060332994E+03    0.12816E-01   -0.16884E-02   792   0.199E-01    0.629E-01
DAV:   5    -0.656059406912E+03    0.92608E-03   -0.58570E-03   804   0.101E-01    0.828E-01
DAV:   6    -0.656057785559E+03    0.16214E-02   -0.23693E-03   840   0.842E-02    0.311E-01
DAV:   7    -0.656057891091E+03   -0.10553E-03   -0.73901E-04   804   0.446E-02    0.339E-01
DAV:   8    -0.656057762296E+03    0.12879E-03   -0.13283E-04   456   0.186E-02    0.252E-01
DAV:   9    -0.656057635328E+03    0.12697E-03   -0.18286E-04   408   0.244E-02    0.105E-01
DAV:  10    -0.656057660683E+03   -0.25355E-04   -0.66564E-05   360   0.136E-02
  10 F= -.67139373E+03 E0= -.67133380E+03  d E =-.160532E-01
 trial-energy change:   -0.016053  1 .order   -0.016146   -0.020556   -0.011736
 step:   0.6868(harm=  0.6868)  dis= 0.02904  next Energy=  -671.401631 (dE=-0.240E-01)
 bond charge predicted
       N       E                     dE             d eps       ncg     rms          rms(c)
DAV:   1    -0.656061101525E+03   -0.34662E-02   -0.28632E+00   600   0.220E+00    0.707E-01
DAV:   2    -0.656068322936E+03   -0.72214E-02   -0.91013E-02   852   0.476E-01    0.462E-01
DAV:   3    -0.656091708451E+03   -0.23386E-01   -0.11873E-01   864   0.403E-01    0.288E+00
DAV:   4    -0.656069339976E+03    0.22368E-01   -0.35756E-02   840   0.293E-01    0.641E-01
DAV:   5    -0.656068755860E+03    0.58412E-03   -0.45837E-03   852   0.104E-01    0.840E-01
DAV:   6    -0.656068096271E+03    0.65959E-03   -0.24378E-03   816   0.741E-02    0.669E-01
DAV:   7    -0.656067845298E+03    0.25097E-03   -0.23854E-03   756   0.575E-02    0.518E-01
DAV:   8    -0.656067101309E+03    0.74399E-03   -0.59929E-04   552   0.500E-02    0.223E-01
DAV:   9    -0.656067193577E+03   -0.92268E-04   -0.12377E-04   480   0.217E-02
  11 F= -.67140167E+03 E0= -.67134245E+03  d E =-.239947E-01
 curvature:  -1.38 expect dE=-0.957E-01 dE for cont linesearch -0.149E-05
 trial: gam= 1.00599 g(F)=  0.695E-01 g(S)=  0.000E+00 ort = 0.549E-03 (trialstep = 0.295E+00)
 search vector abs. value=  0.354E+00
 bond charge predicted
       N       E                     dE             d eps       ncg     rms          rms(c)
DAV:   1    -0.656080041548E+03   -0.12940E-01   -0.21706E+00   600   0.198E+00    0.545E-01
DAV:   2    -0.656088364317E+03   -0.83228E-02   -0.88650E-02   840   0.460E-01    0.120E+00
DAV:   3    -0.656100695546E+03   -0.12331E-01   -0.19173E-01   864   0.411E-01    0.246E+00
DAV:   4    -0.656085984343E+03    0.14711E-01   -0.21606E-02   840   0.207E-01    0.566E-01
DAV:   5    -0.656085003351E+03    0.98099E-03   -0.41075E-03   840   0.103E-01    0.668E-01
DAV:   6    -0.656084102863E+03    0.90049E-03   -0.33293E-03   792   0.779E-02    0.215E-01
DAV:   7    -0.656084163458E+03   -0.60595E-04   -0.21330E-03   708   0.487E-02    0.307E-01
DAV:   8    -0.656083876990E+03    0.28647E-03   -0.18305E-04   432   0.274E-02    0.105E-01
DAV:   9    -0.656083925586E+03   -0.48596E-04   -0.48049E-05   360   0.153E-02
  12 F= -.67141699E+03 E0= -.67135744E+03  d E =-.153151E-01
 trial-energy change:   -0.015315  1 .order   -0.015268   -0.020676   -0.009860
 step:   0.5641(harm=  0.5641)  dis= 0.02484  next Energy=  -671.421436 (dE=-0.198E-01)
 bond charge predicted
       N       E                     dE             d eps       ncg     rms          rms(c)
DAV:   1    -0.656086485652E+03   -0.26087E-02   -0.18047E+00   600   0.181E+00    0.488E-01
DAV:   2    -0.656090385808E+03   -0.39002E-02   -0.48689E-02   816   0.350E-01    0.285E-01
DAV:   3    -0.656092672124E+03   -0.22863E-02   -0.22350E-02   876   0.174E-01    0.100E+00
DAV:   4    -0.656090355935E+03    0.23162E-02   -0.69105E-03   804   0.102E-01    0.253E-01
DAV:   5    -0.656091558035E+03   -0.12021E-02   -0.80294E-03   732   0.875E-02    0.663E-01
DAV:   6    -0.656090113844E+03    0.14442E-02   -0.15552E-03   816   0.776E-02    0.314E-01
DAV:   7    -0.656089950928E+03    0.16292E-03   -0.59206E-04   624   0.394E-02    0.361E-01
DAV:   8    -0.656089811132E+03    0.13980E-03   -0.12572E-04   396   0.216E-02    0.258E-01
DAV:   9    -0.656089689302E+03    0.12183E-03   -0.23603E-04   420   0.216E-02    0.107E-01
DAV:  10    -0.656089709578E+03   -0.20277E-04   -0.26898E-05   336   0.106E-02
  13 F= -.67142151E+03 E0= -.67136205E+03  d E =-.198393E-01
 curvature:  -1.42 expect dE=-0.450E-01 dE for cont linesearch -0.232E-06
 trial: gam= 0.46709 g(F)=  0.316E-01 g(S)=  0.000E+00 ort =-0.240E-03 (trialstep = 0.349E+00)
 search vector abs. value=  0.109E+00
 bond charge predicted
       N       E                     dE             d eps       ncg     rms          rms(c)
DAV:   1    -0.656098386827E+03   -0.86975E-02   -0.80986E-01   600   0.118E+00    0.275E-01
DAV:   2    -0.656100061044E+03   -0.16742E-02   -0.18306E-02   828   0.195E-01    0.446E-01
DAV:   3    -0.656104535530E+03   -0.44745E-02   -0.55080E-02   852   0.215E-01    0.139E+00
DAV:   4    -0.656100182211E+03    0.43533E-02   -0.47274E-02   756   0.175E-01    0.412E-01
DAV:   5    -0.656099762621E+03    0.41959E-03   -0.36771E-03   720   0.594E-02    0.144E-01
DAV:   6    -0.656099627331E+03    0.13529E-03   -0.16776E-03   732   0.528E-02    0.230E-01
DAV:   7    -0.656099574875E+03    0.52456E-04   -0.62332E-04   480   0.250E-02
  14 F= -.67143117E+03 E0= -.67137109E+03  d E =-.966160E-02
 trial-energy change:   -0.009662  1 .order   -0.009554   -0.010989   -0.008119
 step:   1.3357(harm=  1.3357)  dis= 0.03610  next Energy=  -671.442547 (dE=-0.210E-01)
 bond charge predicted
       N       E                     dE             d eps       ncg     rms          rms(c)
DAV:   1    -0.656102328309E+03   -0.27010E-02   -0.64782E+00   600   0.334E+00    0.840E-01
DAV:   2    -0.656144271860E+03   -0.41944E-01   -0.23942E-01   852   0.747E-01    0.310E+00
DAV:   3    -0.656131521103E+03    0.12751E-01   -0.59836E-01   888   0.774E-01    0.236E+00
DAV:   4    -0.656118017895E+03    0.13503E-01   -0.28767E-01   876   0.406E-01    0.118E+00
DAV:   5    -0.656112473900E+03    0.55440E-02   -0.29690E-02   792   0.172E-01    0.555E-01
DAV:   6    -0.656111578518E+03    0.89538E-03   -0.18320E-02   936   0.166E-01    0.559E-01
DAV:   7    -0.656111016541E+03    0.56198E-03   -0.33364E-03   804   0.732E-02    0.420E-01
DAV:   8    -0.656110688175E+03    0.32837E-03   -0.19519E-03   792   0.500E-02    0.954E-02
DAV:   9    -0.656110577829E+03    0.11035E-03   -0.40868E-04   516   0.322E-02    0.874E-02
DAV:  10    -0.656110580907E+03   -0.30780E-05   -0.99766E-05   384   0.169E-02
  15 F= -.67144168E+03 E0= -.67138179E+03  d E =-.201682E-01
 curvature:  -2.30 expect dE=-0.139E+00 dE for cont linesearch -0.657E-04
 trial: gam= 1.94557 g(F)=  0.603E-01 g(S)=  0.000E+00 ort =-0.176E-02 (trialstep = 0.128E+00)
 search vector abs. value=  0.464E+00
 bond charge predicted
       N       E                     dE             d eps       ncg     rms          rms(c)
DAV:   1    -0.656116311589E+03   -0.57338E-02   -0.41455E-01   600   0.834E-01    0.239E-01
DAV:   2    -0.656117275442E+03   -0.96385E-03   -0.11474E-02   852   0.160E-01    0.220E-01
DAV:   3    -0.656121552794E+03   -0.42774E-02   -0.26769E-02   852   0.178E-01    0.136E+00
DAV:   4    -0.656117441057E+03    0.41117E-02   -0.18271E-02   696   0.146E-01    0.187E-01
DAV:   5    -0.656117272529E+03    0.16853E-03   -0.80602E-04   636   0.509E-02    0.209E-01
DAV:   6    -0.656117135171E+03    0.13736E-03   -0.32634E-04   600   0.327E-02    0.160E-01
DAV:   7    -0.656117083602E+03    0.51570E-04   -0.15867E-04   432   0.260E-02
  16 F= -.67144823E+03 E0= -.67138835E+03  d E =-.654646E-02
 ZBRENT: can't locate minimum, use default step
 trial-energy change:   -0.006546  1 .order   -0.006532   -0.007263   -0.005800
 step:   0.5108(harm=  0.6341)  dis= 0.02503  next Energy=  -671.459713 (dE=-0.180E-01)
 bond charge predicted
       N       E                     dE             d eps       ncg     rms          rms(c)
DAV:   1    -0.656120410797E+03   -0.32756E-02   -0.37261E+00   600   0.250E+00    0.721E-01
DAV:   2    -0.656129134118E+03   -0.87233E-02   -0.10342E-01   840   0.481E-01    0.767E-01
DAV:   3    -0.656165935659E+03   -0.36802E-01   -0.19690E-01   888   0.537E-01    0.329E+00
DAV:   4    -0.656129306493E+03    0.36629E-01   -0.89202E-02   852   0.456E-01    0.359E-01
DAV:   5    -0.656127869940E+03    0.14366E-02   -0.68925E-03   840   0.104E-01    0.549E-01
DAV:   6    -0.656127271538E+03    0.59840E-03   -0.19434E-03   816   0.775E-02    0.374E-01
DAV:   7    -0.656127086196E+03    0.18534E-03   -0.23573E-03   804   0.780E-02    0.122E-01
DAV:   8    -0.656127077137E+03    0.90594E-05   -0.75626E-04   480   0.281E-02
  17 F= -.67145837E+03 E0= -.67139899E+03  d E =-.166896E-01
 curvature:  -2.44 expect dE=-0.102E+00 dE for cont linesearch -0.290E-03
 trial: gam= 0.47804 g(F)=  0.421E-01 g(S)=  0.000E+00 ort = 0.743E-02 (trialstep = 0.204E+00)
 search vector abs. value=  0.155E+00
 bond charge predicted
       N       E                     dE             d eps       ncg     rms          rms(c)
DAV:   1    -0.656133847740E+03   -0.67615E-02   -0.34002E-01   600   0.792E-01    0.349E-01
DAV:   2    -0.656139356205E+03   -0.55085E-02   -0.45977E-02   912   0.244E-01    0.137E+00
DAV:   3    -0.656139279165E+03    0.77040E-04   -0.93734E-02   876   0.284E-01    0.131E+00
DAV:   4    -0.656135546712E+03    0.37325E-02   -0.16482E-02   768   0.151E-01    0.342E-01
DAV:   5    -0.656134970539E+03    0.57617E-03   -0.23445E-03   732   0.678E-02    0.116E-01
DAV:   6    -0.656134737370E+03    0.23317E-03   -0.42559E-04   540   0.380E-02    0.915E-02
DAV:   7    -0.656134732330E+03    0.50401E-05   -0.26595E-04   552   0.297E-02
  18 F= -.67146614E+03 E0= -.67140640E+03  d E =-.777098E-02
 trial-energy change:   -0.007771  1 .order   -0.007856   -0.009324   -0.006388
 step:   0.6488(harm=  0.6488)  dis= 0.01638  next Energy=  -671.473174 (dE=-0.148E-01)
 bond charge predicted
       N       E                     dE             d eps       ncg     rms          rms(c)
DAV:   1    -0.656136949689E+03   -0.22123E-02   -0.16062E+00   600   0.172E+00    0.676E-01
DAV:   2    -0.656141813481E+03   -0.48638E-02   -0.59339E-02   864   0.352E-01    0.395E-01
DAV:   3    -0.656151756119E+03   -0.99426E-02   -0.41327E-02   852   0.274E-01    0.190E+00
DAV:   4    -0.656144197672E+03    0.75584E-02   -0.73301E-02   852   0.299E-01    0.813E-01
DAV:   5    -0.656141737017E+03    0.24607E-02   -0.20664E-02   780   0.118E-01    0.228E-01
DAV:   6    -0.656141157099E+03    0.57992E-03   -0.18195E-03   768   0.698E-02    0.163E-01
DAV:   7    -0.656141047385E+03    0.10971E-03   -0.18979E-03   780   0.626E-02    0.132E-01
DAV:   8    -0.656141029319E+03    0.18066E-04   -0.17548E-04   420   0.224E-02
  19 F= -.67147271E+03 E0= -.67141296E+03  d E =-.143358E-01
 curvature:  -1.10 expect dE=-0.209E-01 dE for cont linesearch -0.756E-05
 trial: gam= 0.62674 g(F)=  0.189E-01 g(S)=  0.000E+00 ort =-0.103E-02 (trialstep = 0.293E+00)
 search vector abs. value=  0.786E-01
 bond charge predicted
       N       E                     dE             d eps       ncg     rms          rms(c)
DAV:   1    -0.656145030851E+03   -0.39835E-02   -0.36324E-01   600   0.796E-01    0.326E-01
DAV:   2    -0.656154481191E+03   -0.94503E-02   -0.46199E-02   888   0.287E-01    0.186E+00
DAV:   3    -0.656149282238E+03    0.51990E-02   -0.92037E-02   876   0.332E-01    0.109E+00
DAV:   4    -0.656146709978E+03    0.25723E-02   -0.22902E-02   792   0.120E-01    0.390E-01
DAV:   5    -0.656145923043E+03    0.78693E-03   -0.10972E-03   660   0.587E-02    0.103E-01
DAV:   6    -0.656145910095E+03    0.12948E-04   -0.14480E-03   744   0.536E-02    0.160E-01
DAV:   7    -0.656145891026E+03    0.19069E-04   -0.43868E-04   576   0.280E-02
  20 F= -.67147720E+03 E0= -.67141662E+03  d E =-.449372E-02
 trial-energy change:   -0.004494  1 .order   -0.004463   -0.005359   -0.003566
 step:   0.8765(harm=  0.8765)  dis= 0.01727  next Energy=  -671.480715 (dE=-0.801E-02)
 bond charge predicted
       N       E                     dE             d eps       ncg     rms          rms(c)
DAV:   1    -0.656146702060E+03   -0.79197E-03   -0.14352E+00   600   0.158E+00    0.626E-01
DAV:   2    -0.656173726896E+03   -0.27025E-01   -0.13809E-01   864   0.529E-01    0.283E+00
DAV:   3    -0.656162902516E+03    0.10824E-01   -0.34489E-01   852   0.579E-01    0.203E+00
DAV:   4    -0.656153939157E+03    0.89634E-02   -0.12388E-01   828   0.261E-01    0.677E-01
DAV:   5    -0.656149998368E+03    0.39408E-02   -0.40385E-03   768   0.121E-01    0.233E-01
DAV:   6    -0.656150166887E+03   -0.16852E-03   -0.36772E-03   828   0.745E-02    0.227E-01
DAV:   7    -0.656149950447E+03    0.21644E-03   -0.36755E-03   744   0.561E-02    0.345E-01
DAV:   8    -0.656149736368E+03    0.21408E-03   -0.71686E-04   588   0.314E-02    0.199E-01
DAV:   9    -0.656149638919E+03    0.97449E-04   -0.15707E-04   396   0.234E-02
  21 F= -.67148022E+03 E0= -.67141978E+03  d E =-.751257E-02
 curvature:  -1.89 expect dE=-0.607E-01 dE for cont linesearch -0.216E-04
 trial: gam= 1.56475 g(F)=  0.322E-01 g(S)=  0.000E+00 ort =-0.950E-03 (trialstep = 0.145E+00)
 search vector abs. value=  0.222E+00
 bond charge predicted
       N       E                     dE             d eps       ncg     rms          rms(c)
DAV:   1    -0.656153708977E+03   -0.39726E-02   -0.28297E-01   600   0.674E-01    0.226E-01
DAV:   2    -0.656158272545E+03   -0.45636E-02   -0.24344E-02   876   0.210E-01    0.131E+00
DAV:   3    -0.656155783805E+03    0.24887E-02   -0.42513E-02   852   0.222E-01    0.766E-01
DAV:   4    -0.656154577583E+03    0.12062E-02   -0.85864E-03   696   0.825E-02    0.229E-01
DAV:   5    -0.656154207592E+03    0.36999E-03   -0.60189E-04   552   0.459E-02    0.756E-02
DAV:   6    -0.656154187188E+03    0.20405E-04   -0.75919E-04   504   0.383E-02
  22 F= -.67148421E+03 E0= -.67142380E+03  d E =-.398985E-02
 ZBRENT: can't locate minimum, use default step
 trial-energy change:   -0.003990  1 .order   -0.004053   -0.004463   -0.003642
 step:   0.5813(harm=  0.7898)  dis= 0.02028  next Energy=  -671.492345 (dE=-0.121E-01)
 bond charge predicted
       N       E                     dE             d eps       ncg     rms          rms(c)
DAV:   1    -0.656158330429E+03   -0.41228E-02   -0.25422E+00   600   0.202E+00    0.702E-01
DAV:   2    -0.656214528472E+03   -0.56198E-01   -0.23220E-01   888   0.730E-01    0.351E+00
DAV:   3    -0.656172719026E+03    0.41809E-01   -0.38851E-01   888   0.770E-01    0.179E+00
DAV:   4    -0.656165308401E+03    0.74106E-02   -0.11609E-01   852   0.231E-01    0.960E-01
DAV:   5    -0.656162301778E+03    0.30066E-02   -0.62930E-03   768   0.977E-02    0.248E-01
DAV:   6    -0.656163122380E+03   -0.82060E-03   -0.11804E-02   888   0.117E-01    0.756E-01
DAV:   7    -0.656163644944E+03   -0.52256E-03   -0.19313E-03   732   0.585E-02    0.880E-01
DAV:   8    -0.656162834914E+03    0.81003E-03   -0.25887E-03   600   0.358E-02    0.703E-01
DAV:   9    -0.656161895531E+03    0.93938E-03   -0.24314E-03   528   0.483E-02    0.360E-01
DAV:  10    -0.656161680821E+03    0.21471E-03   -0.73904E-04   564   0.330E-02    0.129E-01
DAV:  11    -0.656161722007E+03   -0.41186E-04   -0.63370E-05   408   0.151E-02
  23 F= -.67149009E+03 E0= -.67142923E+03  d E =-.986889E-02
 curvature:  -2.55 expect dE=-0.536E-01 dE for cont linesearch -0.190E-03
 trial: gam= 0.46282 g(F)=  0.210E-01 g(S)=  0.000E+00 ort = 0.406E-02 (trialstep = 0.233E+00)
 search vector abs. value=  0.723E-01
 bond charge predicted
       N       E                     dE             d eps       ncg     rms          rms(c)
DAV:   1    -0.656166917260E+03   -0.52364E-02   -0.27679E-01   600   0.723E-01    0.176E-01
DAV:   2    -0.656167497566E+03   -0.58031E-03   -0.66962E-03   864   0.122E-01    0.240E-01
DAV:   3    -0.656169572584E+03   -0.20750E-02   -0.18891E-02   744   0.136E-01    0.948E-01
DAV:   4    -0.656167615821E+03    0.19568E-02   -0.17910E-02   648   0.114E-01    0.304E-01
DAV:   5    -0.656167418648E+03    0.19717E-03   -0.52555E-04   540   0.381E-02    0.977E-02
DAV:   6    -0.656167330211E+03    0.88437E-04   -0.40991E-04   492   0.312E-02
  24 F= -.67149471E+03 E0= -.67143429E+03  d E =-.462067E-02
 trial-energy change:   -0.004621  1 .order   -0.004618   -0.005319   -0.003916
 step:   0.8818(harm=  0.8818)  dis= 0.01600  next Energy=  -671.500172 (dE=-0.101E-01)
 bond charge predicted
       N       E                     dE             d eps       ncg     rms          rms(c)
DAV:   1    -0.656171895582E+03   -0.44769E-02   -0.21545E+00   600   0.202E+00    0.532E-01
DAV:   2    -0.656185703135E+03   -0.13808E-01   -0.13931E-01   888   0.469E-01    0.192E+00
DAV:   3    -0.656185111105E+03    0.59203E-03   -0.24732E-01   900   0.403E-01    0.196E+00
DAV:   4    -0.656177904726E+03    0.72064E-02   -0.17356E-02   852   0.193E-01    0.353E-01
DAV:   5    -0.656175549257E+03    0.23555E-02   -0.14981E-02   840   0.116E-01    0.521E-01
DAV:   6    -0.656174656353E+03    0.89290E-03   -0.22612E-03   852   0.855E-02    0.109E-01
DAV:   7    -0.656174766200E+03   -0.10985E-03   -0.91441E-04   756   0.482E-02    0.201E-01
DAV:   8    -0.656174676745E+03    0.89455E-04   -0.19830E-04   504   0.237E-02
  25 F= -.67149933E+03 E0= -.67143938E+03  d E =-.924799E-02
 curvature:  -1.39 expect dE=-0.351E-01 dE for cont linesearch -0.809E-04
 trial: gam= 1.46755 g(F)=  0.252E-01 g(S)=  0.000E+00 ort =-0.205E-02 (trialstep = 0.150E+00)
 search vector abs. value=  0.175E+00
 bond charge predicted
       N       E                     dE             d eps       ncg     rms          rms(c)
DAV:   1    -0.656178042755E+03   -0.32766E-02   -0.25060E-01   600   0.671E-01    0.219E-01
DAV:   2    -0.656181047692E+03   -0.30049E-02   -0.22575E-02   888   0.200E-01    0.101E+00
DAV:   3    -0.656180129555E+03    0.91814E-03   -0.35423E-02   852   0.178E-01    0.802E-01
DAV:   4    -0.656178992748E+03    0.11368E-02   -0.31006E-03   744   0.807E-02    0.154E-01
DAV:   5    -0.656178553327E+03    0.43942E-03   -0.11603E-03   600   0.512E-02    0.145E-01
DAV:   6    -0.656178471929E+03    0.81398E-04   -0.17775E-04   456   0.269E-02
  26 F= -.67150218E+03 E0= -.67144167E+03  d E =-.284341E-02
 ZBRENT: can't locate minimum, use default step
 trial-energy change:   -0.002843  1 .order   -0.002922   -0.003329   -0.002516
 step:   0.5990(harm=  0.6129)  dis= 0.01650  next Energy=  -671.506147 (dE=-0.681E-02)
 bond charge predicted
       N       E                     dE             d eps       ncg     rms          rms(c)
DAV:   1    -0.656181040546E+03   -0.24872E-02   -0.22468E+00   600   0.201E+00    0.594E-01
DAV:   2    -0.656193418932E+03   -0.12378E-01   -0.12137E-01   888   0.454E-01    0.176E+00
DAV:   3    -0.656199776343E+03   -0.63574E-02   -0.23972E-01   876   0.437E-01    0.232E+00
DAV:   4    -0.656186673757E+03    0.13103E-01   -0.23456E-02   840   0.227E-01    0.293E-01
DAV:   5    -0.656185489721E+03    0.11840E-02   -0.39956E-03   840   0.104E-01    0.409E-01
DAV:   6    -0.656184922882E+03    0.56684E-03   -0.20919E-03   756   0.730E-02    0.141E-01
DAV:   7    -0.656184901910E+03    0.20971E-04   -0.11948E-03   672   0.489E-02    0.148E-01
DAV:   8    -0.656184735351E+03    0.16656E-03   -0.10843E-04   432   0.259E-02    0.498E-02
DAV:   9    -0.656184752373E+03   -0.17022E-04   -0.69182E-05   372   0.180E-02
  27 F= -.67150563E+03 E0= -.67144559E+03  d E =-.629703E-02
 curvature:  -2.41 expect dE=-0.732E-01 dE for cont linesearch -0.840E-05
 trial: gam= 0.87266 g(F)=  0.304E-01 g(S)=  0.000E+00 ort =-0.781E-03 (trialstep = 0.240E+00)
 search vector abs. value=  0.162E+00
 bond charge predicted
       N       E                     dE             d eps       ncg     rms          rms(c)
DAV:   1    -0.656191042523E+03   -0.63072E-02   -0.54749E-01   600   0.927E-01    0.332E-01
DAV:   2    -0.656192785834E+03   -0.17433E-02   -0.17123E-02   852   0.186E-01    0.484E-01
DAV:   3    -0.656201064976E+03   -0.82791E-02   -0.88339E-02   876   0.261E-01    0.183E+00
DAV:   4    -0.656193426736E+03    0.76382E-02   -0.77791E-02   792   0.229E-01    0.538E-01
DAV:   5    -0.656192458332E+03    0.96840E-03   -0.28750E-03   636   0.691E-02    0.134E-01
DAV:   6    -0.656192217247E+03    0.24108E-03   -0.70424E-04   636   0.437E-02    0.985E-02
DAV:   7    -0.656192248391E+03   -0.31143E-04   -0.34414E-04   432   0.267E-02
  28 F= -.67151205E+03 E0= -.67145090E+03  d E =-.642277E-02
 ZBRENT: can't locate minimum, use default step
 trial-energy change:   -0.006423  1 .order   -0.006411   -0.007119   -0.005704
 step:   0.9585(harm=  1.2053)  dis= 0.02275  next Energy=  -671.523537 (dE=-0.179E-01)
 bond charge predicted
       N       E                     dE             d eps       ncg     rms          rms(c)
DAV:   1    -0.656195021312E+03   -0.28041E-02   -0.49158E+00   600   0.278E+00    0.103E+00
DAV:   2    -0.656226578381E+03   -0.31557E-01   -0.19940E-01   864   0.670E-01    0.276E+00
DAV:   3    -0.656251089416E+03   -0.24511E-01   -0.96897E-01   876   0.853E-01    0.323E+00
DAV:   4    -0.656212289523E+03    0.38800E-01   -0.35494E-01   876   0.569E-01    0.143E+00
DAV:   5    -0.656207055055E+03    0.52345E-02   -0.37165E-02   864   0.192E-01    0.572E-01
DAV:   6    -0.656206068753E+03    0.98630E-03   -0.10500E-02   876   0.135E-01    0.733E-01
DAV:   7    -0.656205936484E+03    0.13227E-03   -0.61106E-03   780   0.600E-02    0.463E-01
DAV:   8    -0.656204711658E+03    0.12248E-02   -0.37804E-03   732   0.760E-02    0.233E-01
DAV:   9    -0.656204620090E+03    0.91567E-04   -0.25056E-04   468   0.318E-02
  29 F= -.67152126E+03 E0= -.67146008E+03  d E =-.156253E-01
 curvature:  -3.07 expect dE=-0.602E-01 dE for cont linesearch -0.184E-03
 trial: gam= 0.60307 g(F)=  0.196E-01 g(S)=  0.000E+00 ort = 0.312E-02 (trialstep = 0.383E+00)
 search vector abs. value=  0.823E-01
 bond charge predicted
       N       E                     dE             d eps       ncg     rms          rms(c)
DAV:   1    -0.656210552795E+03   -0.58411E-02   -0.86438E-01   600   0.128E+00    0.323E-01
DAV:   2    -0.656217393886E+03   -0.68411E-02   -0.40696E-02   888   0.281E-01    0.153E+00
DAV:   3    -0.656214724061E+03    0.26698E-02   -0.69599E-02   888   0.271E-01    0.983E-01
DAV:   4    -0.656212901964E+03    0.18221E-02   -0.24473E-02   768   0.151E-01    0.591E-01
DAV:   5    -0.656212191185E+03    0.71078E-03   -0.10207E-03   768   0.583E-02    0.239E-01
DAV:   6    -0.656211896996E+03    0.29419E-03   -0.33913E-03   768   0.676E-02    0.101E-01
DAV:   7    -0.656211837605E+03    0.59391E-04   -0.37724E-04   516   0.293E-02
  30 F= -.67152784E+03 E0= -.67146648E+03  d E =-.658297E-02
 trial-energy change:   -0.006583  1 .order   -0.006566   -0.008228   -0.004904
 step:   0.9490(harm=  0.9490)  dis= 0.01435  next Energy=  -671.531441 (dE=-0.102E-01)
 bond charge predicted
       N       E                     dE             d eps       ncg     rms          rms(c)
DAV:   1    -0.656213417324E+03   -0.15203E-02   -0.18795E+00   600   0.189E+00    0.448E-01
DAV:   2    -0.656221510849E+03   -0.80935E-02   -0.63334E-02   864   0.364E-01    0.149E+00
DAV:   3    -0.656223300725E+03   -0.17899E-02   -0.14405E-01   888   0.337E-01    0.158E+00
DAV:   4    -0.656218077363E+03    0.52234E-02   -0.74254E-02   864   0.228E-01    0.721E-01
DAV:   5    -0.656216768266E+03    0.13091E-02   -0.21622E-03   828   0.877E-02    0.275E-01
DAV:   6    -0.656216176679E+03    0.59159E-03   -0.57422E-03   876   0.906E-02    0.186E-01
DAV:   7    -0.656216174667E+03    0.20119E-05   -0.91282E-04   672   0.342E-02
  31 F= -.67153127E+03 E0= -.67146976E+03  d E =-.100099E-01
 curvature:  -1.82 expect dE=-0.596E-01 dE for cont linesearch -0.452E-05
 trial: gam= 1.86601 g(F)=  0.327E-01 g(S)=  0.000E+00 ort =-0.452E-03 (trialstep = 0.129E+00)
 search vector abs. value=  0.318E+00
 bond charge predicted
       N       E                     dE             d eps       ncg     rms          rms(c)
DAV:   1    -0.656219330472E+03   -0.31538E-02   -0.36804E-01   600   0.809E-01    0.230E-01
DAV:   2    -0.656224865673E+03   -0.55352E-02   -0.31386E-02   888   0.231E-01    0.143E+00
DAV:   3    -0.656221247515E+03    0.36182E-02   -0.41494E-02   840   0.215E-01    0.663E-01
DAV:   4    -0.656220459259E+03    0.78826E-03   -0.50089E-03   756   0.808E-02    0.240E-01
DAV:   5    -0.656219930543E+03    0.52872E-03   -0.85287E-04   636   0.493E-02    0.100E-01
DAV:   6    -0.656219883124E+03    0.47419E-04   -0.72335E-04   540   0.323E-02
  32 F= -.67153466E+03 E0= -.67147366E+03  d E =-.339268E-02
 trial-energy change:   -0.003393  1 .order   -0.003578   -0.004103   -0.003054
 step:   0.5031(harm=  0.5031)  dis= 0.01528  next Energy=  -671.539289 (dE=-0.802E-02)
 bond charge predicted
       N       E                     dE             d eps       ncg     rms          rms(c)
DAV:   1    -0.656220214294E+03   -0.28375E-03   -0.31175E+00   600   0.235E+00    0.653E-01
DAV:   2    -0.656256914989E+03   -0.36701E-01   -0.18532E-01   888   0.617E-01    0.310E+00
DAV:   3    -0.656234263666E+03    0.22651E-01   -0.30831E-01   888   0.622E-01    0.172E+00
DAV:   4    -0.656227817532E+03    0.64461E-02   -0.90877E-02   864   0.233E-01    0.800E-01
DAV:   5    -0.656225031339E+03    0.27862E-02   -0.33044E-03   852   0.106E-01    0.274E-01
DAV:   6    -0.656225385417E+03   -0.35408E-03   -0.13464E-02   852   0.113E-01    0.657E-01
DAV:   7    -0.656225051095E+03    0.33432E-03   -0.10140E-03   684   0.433E-02    0.529E-01
DAV:   8    -0.656224503225E+03    0.54787E-03   -0.14856E-03   540   0.458E-02    0.229E-01
DAV:   9    -0.656224427770E+03    0.75456E-04   -0.18123E-04   432   0.250E-02
  33 F= -.67153832E+03 E0= -.67147734E+03  d E =-.704877E-02
 curvature:  -2.51 expect dE=-0.634E-01 dE for cont linesearch -0.579E-04
 trial: gam= 0.67503 g(F)=  0.253E-01 g(S)=  0.000E+00 ort =-0.271E-02 (trialstep = 0.204E+00)
 search vector abs. value=  0.166E+00
 bond charge predicted
       N       E                     dE             d eps       ncg     rms          rms(c)
DAV:   1    -0.656228621996E+03   -0.41188E-02   -0.43438E-01   600   0.841E-01    0.310E-01
DAV:   2    -0.656237077819E+03   -0.84558E-02   -0.41946E-02   888   0.266E-01    0.177E+00
DAV:   3    -0.656232240251E+03    0.48376E-02   -0.84212E-02   864   0.289E-01    0.984E-01
DAV:   4    -0.656230073286E+03    0.21670E-02   -0.19554E-02   708   0.113E-01    0.357E-01
DAV:   5    -0.656229519166E+03    0.55412E-03   -0.71834E-04   624   0.495E-02    0.105E-01
DAV:   6    -0.656229473490E+03    0.45676E-04   -0.16497E-03   636   0.477E-02    0.154E-01
DAV:   7    -0.656229478034E+03   -0.45438E-05   -0.20994E-04   456   0.245E-02
  34 F= -.67154266E+03 E0= -.67148114E+03  d E =-.434859E-02
 ZBRENT: can't locate minimum, use default step
 trial-energy change:   -0.004349  1 .order   -0.004370   -0.004780   -0.003959
 step:   0.8142(harm=  1.1859)  dis= 0.01756  next Energy=  -671.552240 (dE=-0.139E-01)
 bond charge predicted
       N       E                     dE             d eps       ncg     rms          rms(c)
DAV:   1    -0.656232060326E+03   -0.25868E-02   -0.39040E+00   600   0.252E+00    0.890E-01
DAV:   2    -0.656278463283E+03   -0.46403E-01   -0.23950E-01   888   0.720E-01    0.332E+00
DAV:   3    -0.656263608910E+03    0.14854E-01   -0.66733E-01   888   0.854E-01    0.265E+00
DAV:   4    -0.656244876552E+03    0.18732E-01   -0.28774E-01   828   0.384E-01    0.888E-01
DAV:   5    -0.656239357398E+03    0.55192E-02   -0.55810E-03   804   0.147E-01    0.286E-01
DAV:   6    -0.656239376358E+03   -0.18959E-04   -0.59539E-03   828   0.903E-02    0.447E-01
DAV:   7    -0.656239582296E+03   -0.20594E-03   -0.40298E-03   756   0.635E-02    0.599E-01
DAV:   8    -0.656238943064E+03    0.63923E-03   -0.33064E-03   564   0.463E-02    0.283E-01
DAV:   9    -0.656238694300E+03    0.24876E-03   -0.33845E-04   444   0.329E-02    0.111E-01
DAV:  10    -0.656238699261E+03   -0.49611E-05   -0.10458E-04   360   0.162E-02
  35 F= -.67154981E+03 E0= -.67148862E+03  d E =-.114964E-01
 curvature:  -3.60 expect dE=-0.786E-01 dE for cont linesearch -0.586E-03
 ZBRENT: extrapolating
 opt :   1.0373  next Energy=  -671.550393 (dE=-0.121E-01)
 bond charge predicted
       N       E                     dE             d eps       ncg     rms          rms(c)
DAV:   1    -0.656239136517E+03   -0.44222E-03   -0.52226E-01   600   0.924E-01    0.316E-01
DAV:   2    -0.656242182540E+03   -0.30460E-02   -0.23759E-02   864   0.209E-01    0.934E-01
DAV:   3    -0.656245123305E+03   -0.29408E-02   -0.88957E-02   864   0.244E-01    0.140E+00
DAV:   4    -0.656240935294E+03    0.41880E-02   -0.43260E-02   768   0.160E-01    0.314E-01
DAV:   5    -0.656240203435E+03    0.73186E-03   -0.92449E-04   732   0.617E-02    0.119E-01
DAV:   6    -0.656240120333E+03    0.83102E-04   -0.42839E-04   492   0.318E-02
  36 F= -.67155049E+03 E0= -.67148886E+03  d E =-.121717E-01
 curvature:  -3.57 expect dE=-0.110E+00 dE for cont linesearch -0.202E-04
 trial: gam= 1.05700 g(F)=  0.310E-01 g(S)=  0.000E+00 ort = 0.970E-03 (trialstep = 0.281E+00)
 search vector abs. value=  0.219E+00
 bond charge predicted
       N       E                     dE             d eps       ncg     rms          rms(c)
DAV:   1    -0.656246385852E+03   -0.61824E-02   -0.11668E+00   600   0.144E+00    0.422E-01
DAV:   2    -0.656251037533E+03   -0.46517E-02   -0.41391E-02   864   0.300E-01    0.103E+00
DAV:   3    -0.656258876516E+03   -0.78390E-02   -0.17654E-01   900   0.324E-01    0.197E+00
DAV:   4    -0.656249699030E+03    0.91775E-02   -0.89537E-02   852   0.227E-01    0.357E-01
DAV:   5    -0.656248605242E+03    0.10938E-02   -0.17784E-03   768   0.840E-02    0.225E-01
DAV:   6    -0.656248328509E+03    0.27673E-03   -0.11397E-03   684   0.482E-02    0.232E-01
DAV:   7    -0.656248220168E+03    0.10834E-03   -0.47012E-04   612   0.362E-02    0.106E-01
DAV:   8    -0.656248208135E+03    0.12034E-04   -0.98281E-05   348   0.171E-02
  37 F= -.67155650E+03 E0= -.67149495E+03  d E =-.600838E-02
 trial-energy change:   -0.006008  1 .order   -0.006177   -0.009007   -0.003346
 step:   0.4478(harm=  0.4478)  dis= 0.01212  next Energy=  -671.557654 (dE=-0.717E-02)
 bond charge predicted
       N       E                     dE             d eps       ncg     rms          rms(c)
DAV:   1    -0.656249781268E+03   -0.15611E-02   -0.40992E-01   600   0.851E-01    0.252E-01
DAV:   2    -0.656250617224E+03   -0.83596E-03   -0.10974E-02   864   0.150E-01    0.169E-01
DAV:   3    -0.656253410353E+03   -0.27931E-02   -0.13247E-02   768   0.137E-01    0.111E+00
DAV:   4    -0.656250735930E+03    0.26744E-02   -0.15665E-02   624   0.120E-01    0.191E-01
DAV:   5    -0.656250580345E+03    0.15558E-03   -0.22201E-03   528   0.434E-02    0.145E-01
DAV:   6    -0.656250506165E+03    0.74180E-04   -0.56401E-04   576   0.327E-02
  38 F= -.67155757E+03 E0= -.67149654E+03  d E =-.708054E-02
 curvature:  -1.53 expect dE=-0.306E-01 dE for cont linesearch -0.943E-05
 trial: gam= 0.66507 g(F)=  0.200E-01 g(S)=  0.000E+00 ort = 0.116E-02 (trialstep = 0.315E+00)
 search vector abs. value=  0.118E+00
 bond charge predicted
       N       E                     dE             d eps       ncg     rms          rms(c)
DAV:   1    -0.656256997540E+03   -0.64172E-02   -0.83301E-01   600   0.120E+00    0.335E-01
DAV:   2    -0.656264396185E+03   -0.73986E-02   -0.77866E-02   876   0.283E-01    0.156E+00
DAV:   3    -0.656261273312E+03    0.31229E-02   -0.11222E-01   876   0.272E-01    0.103E+00
DAV:   4    -0.656259194064E+03    0.20792E-02   -0.12283E-02   828   0.128E-01    0.427E-01
DAV:   5    -0.656258432341E+03    0.76172E-03   -0.13414E-03   744   0.668E-02    0.186E-01
DAV:   6    -0.656258354771E+03    0.77570E-04   -0.77404E-04   792   0.448E-02
  39 F= -.67156273E+03 E0= -.67150056E+03  d E =-.516612E-02
 trial-energy change:   -0.005166  1 .order   -0.005104   -0.006523   -0.003684
 step:   0.7230(harm=  0.7230)  dis= 0.01308  next Energy=  -671.565062 (dE=-0.749E-02)
 bond charge predicted
       N       E                     dE             d eps       ncg     rms          rms(c)
DAV:   1    -0.656262059468E+03   -0.36271E-02   -0.13987E+00   600   0.156E+00    0.406E-01
DAV:   2    -0.656264539999E+03   -0.24805E-02   -0.34368E-02   840   0.276E-01    0.273E-01
DAV:   3    -0.656265779337E+03   -0.12393E-02   -0.12244E-02   864   0.121E-01    0.808E-01
DAV:   4    -0.656265276022E+03    0.50332E-03   -0.25009E-02   816   0.143E-01    0.702E-01
DAV:   5    -0.656264950252E+03    0.32577E-03   -0.35765E-03   816   0.931E-02    0.204E-01
DAV:   6    -0.656264258300E+03    0.69195E-03   -0.31434E-03   792   0.710E-02    0.118E-01
DAV:   7    -0.656264063784E+03    0.19452E-03   -0.13252E-03   768   0.483E-02    0.630E-02
DAV:   8    -0.656264037774E+03    0.26009E-04   -0.15713E-04   492   0.233E-02
  40 F= -.67156495E+03 E0= -.67150318E+03  d E =-.737897E-02
 curvature:  -2.06 expect dE=-0.341E-01 dE for cont linesearch -0.150E-05
 trial: gam= 0.83345 g(F)=  0.165E-01 g(S)=  0.000E+00 ort = 0.293E-03 (trialstep = 0.396E+00)
 search vector abs. value=  0.992E-01
 bond charge predicted
       N       E                     dE             d eps       ncg     rms          rms(c)
DAV:   1    -0.656271155659E+03   -0.70919E-02   -0.10995E+00   600   0.134E+00    0.402E-01
DAV:   2    -0.656289456089E+03   -0.18300E-01   -0.18797E-01   888   0.370E-01    0.242E+00
DAV:   3    -0.656276398841E+03    0.13057E-01   -0.22422E-01   888   0.355E-01    0.105E+00
DAV:   4    -0.656273605488E+03    0.27934E-02   -0.16493E-02   840   0.134E-01    0.488E-01
DAV:   5    -0.656273123291E+03    0.48220E-03   -0.16855E-03   792   0.670E-02    0.274E-01
DAV:   6    -0.656273052425E+03    0.70866E-04   -0.30689E-03   732   0.598E-02    0.228E-01
DAV:   7    -0.656272608049E+03    0.44438E-03   -0.46523E-04   612   0.471E-02    0.873E-02
DAV:   8    -0.656272619045E+03   -0.10996E-04   -0.14033E-04   432   0.209E-02
  41 F= -.67156995E+03 E0= -.67150856E+03  d E =-.500087E-02
 trial-energy change:   -0.005001  1 .order   -0.005094   -0.006654   -0.003533
 step:   0.8451(harm=  0.8451)  dis= 0.01544  next Energy=  -671.572040 (dE=-0.709E-02)
 bond charge predicted
       N       E                     dE             d eps       ncg     rms          rms(c)
DAV:   1    -0.656276435813E+03   -0.38278E-02   -0.14066E+00   600   0.152E+00    0.494E-01
DAV:   2    -0.656312103901E+03   -0.35668E-01   -0.36347E-01   900   0.514E-01    0.308E+00
DAV:   3    -0.656283799592E+03    0.28304E-01   -0.34926E-01   888   0.512E-01    0.122E+00
DAV:   4    -0.656279556985E+03    0.42426E-02   -0.21651E-02   840   0.151E-01    0.546E-01
DAV:   5    -0.656278770115E+03    0.78687E-03   -0.25158E-03   840   0.782E-02    0.333E-01
DAV:   6    -0.656279005818E+03   -0.23570E-03   -0.39278E-03   768   0.672E-02    0.324E-01
DAV:   7    -0.656278221771E+03    0.78405E-03   -0.82060E-04   732   0.585E-02    0.116E-01
DAV:   8    -0.656278253719E+03   -0.31947E-04   -0.38119E-04   468   0.316E-02
  42 F= -.67157154E+03 E0= -.67151036E+03  d E =-.659192E-02
 curvature:  -2.50 expect dE=-0.524E-01 dE for cont linesearch -0.113E-04
 trial: gam= 1.36273 g(F)=  0.210E-01 g(S)=  0.000E+00 ort =-0.671E-03 (trialstep = 0.237E+00)
 search vector abs. value=  0.203E+00
 bond charge predicted
       N       E                     dE             d eps       ncg     rms          rms(c)
DAV:   1    -0.656283151133E+03   -0.49294E-02   -0.78391E-01   600   0.115E+00    0.394E-01
DAV:   2    -0.656307982495E+03   -0.24831E-01   -0.25336E-01   900   0.398E-01    0.276E+00
DAV:   3    -0.656288244970E+03    0.19738E-01   -0.27320E-01   876   0.409E-01    0.102E+00
DAV:   4    -0.656285333654E+03    0.29113E-02   -0.16535E-02   828   0.132E-01    0.515E-01
DAV:   5    -0.656284612975E+03    0.72068E-03   -0.15661E-03   756   0.640E-02    0.305E-01
DAV:   6    -0.656284737152E+03   -0.12418E-03   -0.18988E-03   720   0.498E-02    0.313E-01
DAV:   7    -0.656284233894E+03    0.50326E-03   -0.53770E-04   672   0.465E-02    0.553E-02
DAV:   8    -0.656284245465E+03   -0.11571E-04   -0.31312E-04   444   0.266E-02
  43 F= -.67157480E+03 E0= -.67151335E+03  d E =-.325841E-02
 trial-energy change:   -0.003258  1 .order   -0.003529   -0.004762   -0.002296
 step:   0.4579(harm=  0.4579)  dis= 0.01073  next Energy=  -671.576137 (dE=-0.460E-02)
 bond charge predicted
       N       E                     dE             d eps       ncg     rms          rms(c)
DAV:   1    -0.656286695550E+03   -0.24617E-02   -0.67941E-01   600   0.107E+00    0.335E-01
DAV:   2    -0.656299734614E+03   -0.13039E-01   -0.13224E-01   900   0.305E-01    0.212E+00
DAV:   3    -0.656290662125E+03    0.90725E-02   -0.16777E-01   888   0.302E-01    0.935E-01
DAV:   4    -0.656288565821E+03    0.20963E-02   -0.12501E-02   828   0.119E-01    0.454E-01
DAV:   5    -0.656287997936E+03    0.56788E-03   -0.11658E-03   732   0.582E-02    0.241E-01
DAV:   6    -0.656287933722E+03    0.64215E-04   -0.11859E-03   648   0.439E-02    0.241E-01
DAV:   7    -0.656287673296E+03    0.26043E-03   -0.41611E-04   660   0.404E-02    0.507E-02
DAV:   8    -0.656287672449E+03    0.84707E-06   -0.14039E-04   408   0.200E-02
  44 F= -.67157569E+03 E0= -.67151412E+03  d E =-.414649E-02
 curvature:  -2.32 expect dE=-0.319E-01 dE for cont linesearch -0.150E-06
 trial: gam= 0.51386 g(F)=  0.138E-01 g(S)=  0.000E+00 ort =-0.115E-03 (trialstep = 0.281E+00)
 search vector abs. value=  0.674E-01
 bond charge predicted
       N       E                     dE             d eps       ncg     rms          rms(c)
DAV:   1    -0.656291136694E+03   -0.34634E-02   -0.34230E-01   600   0.741E-01    0.251E-01
DAV:   2    -0.656292154803E+03   -0.10181E-02   -0.11977E-02   864   0.145E-01    0.373E-01
DAV:   3    -0.656296757351E+03   -0.46025E-02   -0.28896E-02   840   0.189E-01    0.140E+00
DAV:   4    -0.656292421487E+03    0.43359E-02   -0.25078E-02   684   0.165E-01    0.385E-01
DAV:   5    -0.656291969020E+03    0.45247E-03   -0.12644E-03   648   0.494E-02    0.932E-02
DAV:   6    -0.656291828561E+03    0.14046E-03   -0.46005E-04   456   0.333E-02    0.481E-02
DAV:   7    -0.656291825241E+03    0.33200E-05   -0.33831E-04   336   0.255E-02
  45 F= -.67157882E+03 E0= -.67151728E+03  d E =-.313192E-02
 trial-energy change:   -0.003132  1 .order   -0.003205   -0.003854   -0.002555
 step:   0.8346(harm=  0.8346)  dis= 0.01019  next Energy=  -671.581403 (dE=-0.572E-02)
 bond charge predicted
       N       E                     dE             d eps       ncg     rms          rms(c)
DAV:   1    -0.656293364921E+03   -0.15364E-02   -0.13235E+00   600   0.146E+00    0.498E-01
DAV:   2    -0.656297802748E+03   -0.44378E-02   -0.44960E-02   888   0.324E-01    0.793E-01
DAV:   3    -0.656317966949E+03   -0.20164E-01   -0.30029E-01   900   0.388E-01    0.269E+00
DAV:   4    -0.656297280631E+03    0.20686E-01   -0.14088E-01   864   0.278E-01    0.191E-01
DAV:   5    -0.656297414189E+03   -0.13356E-03   -0.59681E-03   768   0.749E-02    0.799E-01
DAV:   6    -0.656297260015E+03    0.15417E-03   -0.15740E-03   732   0.566E-02    0.715E-01
DAV:   7    -0.656296700164E+03    0.55985E-03   -0.25504E-03   648   0.430E-02    0.581E-01
DAV:   8    -0.656295872649E+03    0.82751E-03   -0.19468E-03   480   0.522E-02    0.115E-01
DAV:   9    -0.656295919669E+03   -0.47021E-04   -0.83800E-05   372   0.162E-02
  46 F= -.67158092E+03 E0= -.67151897E+03  d E =-.523383E-02
 curvature:  -2.05 expect dE=-0.298E-01 dE for cont linesearch -0.209E-04
 trial: gam= 1.11303 g(F)=  0.145E-01 g(S)=  0.000E+00 ort =-0.828E-03 (trialstep = 0.275E+00)
 search vector abs. value=  0.961E-01
 bond charge predicted
       N       E                     dE             d eps       ncg     rms          rms(c)
DAV:   1    -0.656298457228E+03   -0.25846E-02   -0.46473E-01   600   0.867E-01    0.282E-01
DAV:   2    -0.656300289223E+03   -0.18320E-02   -0.16619E-02   876   0.188E-01    0.616E-01
DAV:   3    -0.656304292512E+03   -0.40033E-02   -0.69515E-02   852   0.206E-01    0.141E+00
DAV:   4    -0.656299758401E+03    0.45341E-02   -0.37346E-02   744   0.135E-01    0.193E-01
DAV:   5    -0.656299757730E+03    0.67052E-06   -0.92442E-04   708   0.551E-02
  47 F= -.67158407E+03 E0= -.67152133E+03  d E =-.314797E-02
 trial-energy change:   -0.003148  1 .order   -0.002769   -0.003732   -0.001806
 step:   0.5323(harm=  0.5323)  dis= 0.01009  next Energy=  -671.584535 (dE=-0.362E-02)
 bond charge predicted
       N       E                     dE             d eps       ncg     rms          rms(c)
DAV:   1    -0.656300205998E+03   -0.44760E-03   -0.40445E-01   600   0.810E-01    0.349E-01
DAV:   2    -0.656324245651E+03   -0.24040E-01   -0.95603E-02   888   0.413E-01    0.271E+00
DAV:   3    -0.656304486594E+03    0.19759E-01   -0.93911E-02   888   0.396E-01    0.883E-01
DAV:   4    -0.656302427626E+03    0.20590E-02   -0.17687E-02   780   0.130E-01    0.259E-01
DAV:   5    -0.656300744536E+03    0.16831E-02   -0.21726E-03   732   0.727E-02    0.147E-01
DAV:   6    -0.656300761188E+03   -0.16652E-04   -0.27869E-04   432   0.276E-02
  48 F= -.67158443E+03 E0= -.67152262E+03  d E =-.350614E-02
 curvature:  -1.88 expect dE=-0.311E-01 dE for cont linesearch -0.304E-06
 trial: gam= 1.04465 g(F)=  0.165E-01 g(S)=  0.000E+00 ort =-0.125E-03 (trialstep = 0.259E+00)
 search vector abs. value=  0.121E+00
 bond charge predicted
       N       E                     dE             d eps       ncg     rms          rms(c)
DAV:   1    -0.656304020174E+03   -0.32756E-02   -0.54853E-01   600   0.969E-01    0.340E-01
DAV:   2    -0.656324808311E+03   -0.20788E-01   -0.72233E-02   888   0.399E-01    0.257E+00
DAV:   3    -0.656307212313E+03    0.17596E-01   -0.10792E-01   864   0.357E-01    0.765E-01
DAV:   4    -0.656305413041E+03    0.17993E-02   -0.21811E-02   744   0.103E-01    0.305E-01
DAV:   5    -0.656304861541E+03    0.55150E-03   -0.30135E-03   696   0.580E-02    0.111E-01
DAV:   6    -0.656305028750E+03   -0.16721E-03   -0.62250E-04   684   0.429E-02    0.318E-01
DAV:   7    -0.656304937134E+03    0.91616E-04   -0.55089E-04   420   0.321E-02
  49 F= -.67158805E+03 E0= -.67152593E+03  d E =-.362384E-02
 trial-energy change:   -0.003624  1 .order   -0.003556   -0.004235   -0.002877
 step:   0.8074(harm=  0.8074)  dis= 0.01610  next Energy=  -671.591031 (dE=-0.661E-02)
 bond charge predicted
       N       E                     dE             d eps       ncg     rms          rms(c)
DAV:   1    -0.656304928683E+03    0.10007E-03   -0.24666E+00   600   0.205E+00    0.635E-01
DAV:   2    -0.656345249620E+03   -0.40321E-01   -0.17411E-01   900   0.633E-01    0.312E+00
DAV:   3    -0.656316637568E+03    0.28612E-01   -0.28966E-01   900   0.587E-01    0.159E+00
DAV:   4    -0.656310096884E+03    0.65407E-02   -0.63694E-02   852   0.165E-01    0.477E-01
DAV:   5    -0.656309150607E+03    0.94628E-03   -0.29235E-03   780   0.865E-02    0.329E-01
DAV:   6    -0.656310213140E+03   -0.10625E-02   -0.13766E-02   804   0.107E-01    0.644E-01
DAV:   7    -0.656309346208E+03    0.86693E-03   -0.20215E-03   732   0.631E-02    0.674E-01
DAV:   8    -0.656308678049E+03    0.66816E-03   -0.94620E-04   504   0.301E-02    0.407E-01
DAV:   9    -0.656308333226E+03    0.34482E-03   -0.13487E-03   480   0.340E-02    0.117E-01
DAV:  10    -0.656308358986E+03   -0.25760E-04   -0.84446E-05   432   0.156E-02
  50 F= -.67159030E+03 E0= -.67152857E+03  d E =-.587839E-02
 curvature:  -2.99 expect dE=-0.295E-01 dE for cont linesearch -0.427E-04
 trial: gam= 0.70100 g(F)=  0.987E-02 g(S)=  0.000E+00 ort =-0.132E-02 (trialstep = 0.369E+00)
 search vector abs. value=  0.675E-01
 bond charge predicted
       N       E                     dE             d eps       ncg     rms          rms(c)
DAV:   1    -0.656311383348E+03   -0.30501E-02   -0.60160E-01   600   0.960E-01    0.256E-01
DAV:   2    -0.656313051341E+03   -0.16680E-02   -0.16720E-02   840   0.177E-01    0.541E-01
DAV:   3    -0.656316408122E+03   -0.33568E-02   -0.53875E-02   828   0.188E-01    0.129E+00
DAV:   4    -0.656312641489E+03    0.37666E-02   -0.30837E-02   744   0.125E-01    0.209E-01
DAV:   5    -0.656312572242E+03    0.69247E-04   -0.83931E-04   696   0.501E-02
  51 F= -.67159310E+03 E0= -.67153050E+03  d E =-.280015E-02
 trial-energy change:   -0.002800  1 .order   -0.002555   -0.003298   -0.001813
 step:   0.8185(harm=  0.8185)  dis= 0.01215  next Energy=  -671.593966 (dE=-0.366E-02)
 bond charge predicted
       N       E                     dE             d eps       ncg     rms          rms(c)
DAV:   1    -0.656313695557E+03   -0.10541E-02   -0.88841E-01   600   0.117E+00    0.384E-01
DAV:   2    -0.656338817630E+03   -0.25122E-01   -0.99006E-02   900   0.405E-01    0.273E+00
DAV:   3    -0.656318516312E+03    0.20301E-01   -0.10337E-01   876   0.400E-01    0.932E-01
DAV:   4    -0.656316972739E+03    0.15436E-02   -0.14303E-02   804   0.137E-01    0.328E-01
DAV:   5    -0.656314753480E+03    0.22193E-02   -0.26845E-03   744   0.793E-02    0.183E-01
DAV:   6    -0.656314779167E+03   -0.25687E-04   -0.46682E-04   612   0.322E-02
  52 F= -.67159359E+03 E0= -.67153159E+03  d E =-.328329E-02
 curvature:  -3.09 expect dE=-0.525E-01 dE for cont linesearch -0.222E-04
 trial: gam= 1.68893 g(F)=  0.170E-01 g(S)=  0.000E+00 ort =-0.697E-03 (trialstep = 0.149E+00)
 search vector abs. value=  0.207E+00
 bond charge predicted
       N       E                     dE             d eps       ncg     rms          rms(c)
DAV:   1    -0.656317741486E+03   -0.29880E-02   -0.29457E-01   600   0.683E-01    0.261E-01
DAV:   2    -0.656333460248E+03   -0.15719E-01   -0.50998E-02   888   0.289E-01    0.234E+00
DAV:   3    -0.656319796818E+03    0.13663E-01   -0.73749E-02   864   0.303E-01    0.586E-01
DAV:   4    -0.656318827241E+03    0.96958E-03   -0.16261E-02   720   0.925E-02    0.420E-01
DAV:   5    -0.656318162612E+03    0.66463E-03   -0.13812E-03   564   0.435E-02    0.195E-01
DAV:   6    -0.656318154059E+03    0.85530E-05   -0.14108E-03   552   0.416E-02    0.205E-01
DAV:   7    -0.656318159518E+03   -0.54596E-05   -0.15682E-04   432   0.211E-02
  53 F= -.67159548E+03 E0= -.67153342E+03  d E =-.189728E-02
 trial-energy change:   -0.001897  1 .order   -0.001984   -0.002362   -0.001606
 step:   0.4667(harm=  0.4667)  dis= 0.01150  next Energy=  -671.597275 (dE=-0.369E-02)
 bond charge predicted
       N       E                     dE             d eps       ncg     rms          rms(c)
DAV:   1    -0.656321054594E+03   -0.29005E-02   -0.13385E+00   600   0.145E+00    0.401E-01
DAV:   2    -0.656323736051E+03   -0.26815E-02   -0.33498E-02   804   0.249E-01    0.325E-01
DAV:   3    -0.656333121347E+03   -0.93853E-02   -0.47858E-02   888   0.237E-01    0.193E+00
DAV:   4    -0.656324492031E+03    0.86293E-02   -0.26239E-02   828   0.214E-01    0.335E-01
DAV:   5    -0.656323653360E+03    0.83867E-03   -0.18180E-03   768   0.817E-02    0.336E-01
DAV:   6    -0.656323334571E+03    0.31879E-03   -0.69811E-04   684   0.434E-02    0.242E-01
DAV:   7    -0.656323100204E+03    0.23437E-03   -0.37845E-04   516   0.350E-02    0.135E-01
DAV:   8    -0.656323080131E+03    0.20073E-04   -0.67861E-05   384   0.156E-02
  54 F= -.67159726E+03 E0= -.67153586E+03  d E =-.366924E-02
 curvature:  -3.06 expect dE=-0.360E-01 dE for cont linesearch -0.344E-04
 trial: gam= 0.46194 g(F)=  0.118E-01 g(S)=  0.000E+00 ort = 0.153E-02 (trialstep = 0.213E+00)
 search vector abs. value=  0.574E-01
 bond charge predicted
       N       E                     dE             d eps       ncg     rms          rms(c)
DAV:   1    -0.656326405172E+03   -0.33050E-02   -0.16693E-01   600   0.526E-01    0.199E-01
DAV:   2    -0.656328911862E+03   -0.25067E-02   -0.21282E-02   888   0.157E-01    0.960E-01
DAV:   3    -0.656327980258E+03    0.93160E-03   -0.35127E-02   780   0.147E-01    0.697E-01
DAV:   4    -0.656326869123E+03    0.11111E-02   -0.41001E-03   564   0.689E-02    0.126E-01
DAV:   5    -0.656326799354E+03    0.69769E-04   -0.27895E-04   456   0.326E-02
  55 F= -.67159955E+03 E0= -.67153848E+03  d E =-.229046E-02
 trial-energy change:   -0.002290  1 .order   -0.002304   -0.002657   -0.001950
 step:   0.8002(harm=  0.8002)  dis= 0.01127  next Energy=  -671.602251 (dE=-0.499E-02)
 bond charge predicted
       N       E                     dE             d eps       ncg     rms          rms(c)
DAV:   1    -0.656330599992E+03   -0.37309E-02   -0.12638E+00   600   0.144E+00    0.567E-01
DAV:   2    -0.656362904515E+03   -0.32305E-01   -0.32693E-01   888   0.526E-01    0.297E+00
DAV:   3    -0.656341509505E+03    0.21395E-01   -0.42611E-01   888   0.501E-01    0.168E+00
DAV:   4    -0.656335245740E+03    0.62638E-02   -0.17155E-02   852   0.182E-01    0.423E-01
DAV:   5    -0.656333162725E+03    0.20830E-02   -0.10267E-02   768   0.102E-01    0.224E-01
DAV:   6    -0.656332671520E+03    0.49121E-03   -0.12524E-03   756   0.695E-02    0.188E-01
DAV:   7    -0.656332702359E+03   -0.30839E-04   -0.14885E-03   612   0.529E-02    0.243E-01
DAV:   8    -0.656332581105E+03    0.12125E-03   -0.31231E-04   420   0.272E-02    0.778E-02
DAV:   9    -0.656332570420E+03    0.10686E-04   -0.41263E-05   348   0.155E-02
  56 F= -.67160139E+03 E0= -.67153997E+03  d E =-.413158E-02
 curvature:  -1.84 expect dE=-0.143E-01 dE for cont linesearch -0.844E-04
 ZBRENT: interpolating
 opt :   0.7118  next Energy=  -671.601460 (dE=-0.420E-02)
 bond charge predicted
       N       E                     dE             d eps       ncg     rms          rms(c)
DAV:   1    -0.656332012684E+03    0.56842E-03   -0.28890E-02   600   0.218E-01    0.720E-02
DAV:   2    -0.656332146434E+03   -0.13375E-03   -0.11507E-03   840   0.452E-02    0.170E-01
DAV:   3    -0.656332416416E+03   -0.26998E-03   -0.34720E-03   492   0.545E-02    0.391E-01
DAV:   4    -0.656332095218E+03    0.32120E-03   -0.17736E-03   420   0.384E-02    0.551E-02
DAV:   5    -0.656332093887E+03    0.13308E-05   -0.52403E-05   360   0.154E-02
  57 F= -.67160150E+03 E0= -.67153960E+03  d E =-.424536E-02
 curvature:  -1.56 expect dE=-0.905E-02 dE for cont linesearch -0.119E-04
 trial: gam= 0.66347 g(F)=  0.579E-02 g(S)=  0.000E+00 ort =-0.660E-03 (trialstep = 0.313E+00)
 search vector abs. value=  0.302E-01
 bond charge predicted
       N       E                     dE             d eps       ncg     rms          rms(c)
DAV:   1    -0.656334172107E+03   -0.20769E-02   -0.19251E-01   600   0.546E-01    0.180E-01
DAV:   2    -0.656335142422E+03   -0.97031E-03   -0.73605E-03   864   0.119E-01    0.489E-01
DAV:   3    -0.656335960859E+03   -0.81844E-03   -0.18914E-02   696   0.127E-01    0.769E-01
DAV:   4    -0.656334723977E+03    0.12369E-02   -0.11789E-02   552   0.786E-02    0.164E-01
DAV:   5    -0.656334563266E+03    0.16071E-03   -0.87619E-04   420   0.334E-02    0.679E-02
DAV:   6    -0.656334526074E+03    0.37191E-04   -0.28240E-04   600   0.231E-02
  58 F= -.67160262E+03 E0= -.67154098E+03  d E =-.111441E-02
 trial-energy change:   -0.001114  1 .order   -0.001112   -0.001673   -0.000551
 step:   0.4660(harm=  0.4660)  dis= 0.00466  next Energy=  -671.602749 (dE=-0.125E-02)
 bond charge predicted
       N       E                     dE             d eps       ncg     rms          rms(c)
DAV:   1    -0.656335197688E+03   -0.63442E-03   -0.45998E-02   600   0.268E-01    0.851E-02
DAV:   2    -0.656335297960E+03   -0.10027E-03   -0.13719E-03   852   0.512E-02    0.614E-02
DAV:   3    -0.656335511792E+03   -0.21383E-03   -0.14633E-03   492   0.396E-02    0.310E-01
DAV:   4    -0.656335302963E+03    0.20883E-03   -0.13415E-03   408   0.398E-02    0.812E-02
DAV:   5    -0.656335315663E+03   -0.12699E-04   -0.72406E-05   360   0.187E-02
  59 F= -.67160276E+03 E0= -.67154158E+03  d E =-.125836E-02
 curvature:  -1.31 expect dE=-0.713E-02 dE for cont linesearch -0.970E-06
 trial: gam= 0.87286 g(F)=  0.542E-02 g(S)=  0.000E+00 ort = 0.149E-03 (trialstep = 0.343E+00)
 search vector abs. value=  0.287E-01
 bond charge predicted
       N       E                     dE             d eps       ncg     rms          rms(c)
DAV:   1    -0.656337511570E+03   -0.22086E-02   -0.24548E-01   600   0.618E-01    0.182E-01
DAV:   2    -0.656341073650E+03   -0.35621E-02   -0.32147E-02   912   0.175E-01    0.114E+00
DAV:   3    -0.656338613247E+03    0.24604E-02   -0.38739E-02   828   0.144E-01    0.500E-01
DAV:   4    -0.656338107434E+03    0.50581E-03   -0.17311E-03   756   0.625E-02    0.142E-01
DAV:   5    -0.656337863455E+03    0.24398E-03   -0.53442E-04   552   0.381E-02    0.806E-02
DAV:   6    -0.656337849681E+03    0.13774E-04   -0.33283E-04   588   0.294E-02
  60 F= -.67160417E+03 E0= -.67154250E+03  d E =-.141138E-02
 trial-energy change:   -0.001411  1 .order   -0.001490   -0.001906   -0.001074
 step:   0.7866(harm=  0.7866)  dis= 0.00901  next Energy=  -671.604944 (dE=-0.218E-02)
 bond charge predicted
       N       E                     dE             d eps       ncg     rms          rms(c)
DAV:   1    -0.656339326908E+03   -0.14635E-02   -0.40840E-01   600   0.796E-01    0.239E-01
DAV:   2    -0.656345792187E+03   -0.64653E-02   -0.59435E-02   912   0.226E-01    0.154E+00
DAV:   3    -0.656341284752E+03    0.45074E-02   -0.76079E-02   852   0.196E-01    0.675E-01
DAV:   4    -0.656340049043E+03    0.12357E-02   -0.37128E-03   720   0.693E-02    0.139E-01
DAV:   5    -0.656339895160E+03    0.15388E-03   -0.52410E-04   528   0.360E-02    0.959E-02
DAV:   6    -0.656340006657E+03   -0.11150E-03   -0.87699E-04   564   0.366E-02    0.110E-01
DAV:   7    -0.656339850817E+03    0.15584E-03   -0.21874E-04   444   0.253E-02    0.135E-01
DAV:   8    -0.656339829674E+03    0.21143E-04   -0.37995E-05   348   0.125E-02
  61 F= -.67160470E+03 E0= -.67154342E+03  d E =-.194390E-02
 curvature:  -2.03 expect dE=-0.110E-01 dE for cont linesearch -0.426E-06
 trial: gam= 1.05293 g(F)=  0.543E-02 g(S)=  0.000E+00 ort =-0.776E-04 (trialstep = 0.334E+00)
 search vector abs. value=  0.371E-01
 bond charge predicted
       N       E                     dE             d eps       ncg     rms          rms(c)
DAV:   1    -0.656341557945E+03   -0.17071E-02   -0.28368E-01   600   0.672E-01    0.190E-01
DAV:   2    -0.656344069214E+03   -0.25113E-02   -0.19660E-02   924   0.157E-01    0.947E-01
DAV:   3    -0.656342953823E+03    0.11154E-02   -0.27957E-02   768   0.136E-01    0.602E-01
DAV:   4    -0.656342096362E+03    0.85746E-03   -0.45276E-03   588   0.654E-02    0.178E-01
DAV:   5    -0.656341969134E+03    0.12723E-03   -0.46400E-04   480   0.244E-02    0.670E-02
DAV:   6    -0.656341961208E+03    0.79256E-05   -0.16900E-04   492   0.228E-02
  62 F= -.67160606E+03 E0= -.67154484E+03  d E =-.135414E-02
 trial-energy change:   -0.001354  1 .order   -0.001411   -0.001789   -0.001034
 step:   0.7925(harm=  0.7925)  dis= 0.01017  next Energy=  -671.606824 (dE=-0.212E-02)
 bond charge predicted
       N       E                     dE             d eps       ncg     rms          rms(c)
DAV:   1    -0.656342942080E+03   -0.97295E-03   -0.53341E-01   600   0.922E-01    0.251E-01
DAV:   2    -0.656345299006E+03   -0.23569E-02   -0.23280E-02   900   0.180E-01    0.742E-01
DAV:   3    -0.656346587790E+03   -0.12888E-02   -0.41115E-02   864   0.165E-01    0.108E+00
DAV:   4    -0.656344900495E+03    0.16873E-02   -0.94007E-03   804   0.131E-01    0.366E-01
DAV:   5    -0.656343703786E+03    0.11967E-02   -0.22716E-03   696   0.615E-02    0.106E-01
DAV:   6    -0.656343653191E+03    0.50595E-04   -0.32014E-04   504   0.275E-02
  63 F= -.67160668E+03 E0= -.67154520E+03  d E =-.197734E-02
 curvature:  -2.75 expect dE=-0.254E-01 dE for cont linesearch -0.326E-05
 trial: gam= 1.66031 g(F)=  0.925E-02 g(S)=  0.000E+00 ort =-0.210E-03 (trialstep = 0.143E+00)
 search vector abs. value=  0.111E+00
 bond charge predicted
       N       E                     dE             d eps       ncg     rms          rms(c)
DAV:   1    -0.656344997812E+03   -0.12940E-02   -0.14248E-01   600   0.469E-01    0.181E-01
DAV:   2    -0.656353199320E+03   -0.82015E-02   -0.29492E-02   876   0.203E-01    0.177E+00
DAV:   3    -0.656346003212E+03    0.71961E-02   -0.36015E-02   840   0.204E-01    0.407E-01
DAV:   4    -0.656345371997E+03    0.63122E-03   -0.41099E-03   552   0.521E-02    0.206E-01
DAV:   5    -0.656345175909E+03    0.19609E-03   -0.38520E-04   408   0.252E-02    0.706E-02
DAV:   6    -0.656345266390E+03   -0.90481E-04   -0.21533E-04   444   0.256E-02
  64 F= -.67160784E+03 E0= -.67154576E+03  d E =-.115705E-02
 ZBRENT: can't locate minimum, use default step
 trial-energy change:   -0.001157  1 .order   -0.001123   -0.001269   -0.000978
 step:   0.5703(harm=  0.6218)  dis= 0.01431  next Energy=  -671.609448 (dE=-0.277E-02)
 bond charge predicted
       N       E                     dE             d eps       ncg     rms          rms(c)
DAV:   1    -0.656346034864E+03   -0.85895E-03   -0.12883E+00   600   0.141E+00    0.439E-01
DAV:   2    -0.656362847048E+03   -0.16812E-01   -0.77296E-02   876   0.374E-01    0.230E+00
DAV:   3    -0.656352654940E+03    0.10192E-01   -0.13217E-01   900   0.376E-01    0.126E+00
DAV:   4    -0.656349212738E+03    0.34422E-02   -0.25862E-02   816   0.132E-01    0.391E-01
DAV:   5    -0.656347995925E+03    0.12168E-02   -0.15171E-03   768   0.683E-02    0.151E-01
DAV:   6    -0.656348028273E+03   -0.32348E-04   -0.33583E-03   684   0.545E-02    0.327E-01
DAV:   7    -0.656347987606E+03    0.40667E-04   -0.40712E-04   552   0.295E-02
  65 F= -.67160918E+03 E0= -.67154694E+03  d E =-.249902E-02
 curvature:  -3.82 expect dE=-0.253E-01 dE for cont linesearch -0.134E-06
 trial: gam= 0.69816 g(F)=  0.663E-02 g(S)=  0.000E+00 ort =-0.622E-04 (trialstep = 0.228E+00)
 search vector abs. value=  0.605E-01
 bond charge predicted
       N       E                     dE             d eps       ncg     rms          rms(c)
DAV:   1    -0.656349221433E+03   -0.11932E-02   -0.20095E-01   600   0.554E-01    0.241E-01
DAV:   2    -0.656362901792E+03   -0.13680E-01   -0.50487E-02   900   0.273E-01    0.221E+00
DAV:   3    -0.656351294679E+03    0.11607E-01   -0.56398E-02   852   0.286E-01    0.626E-01
DAV:   4    -0.656350265405E+03    0.10293E-02   -0.43137E-03   756   0.837E-02    0.263E-01
DAV:   5    -0.656349542961E+03    0.72244E-03   -0.95601E-04   588   0.471E-02    0.129E-01
DAV:   6    -0.656349517169E+03    0.25792E-04   -0.41467E-04   408   0.258E-02
  66 F= -.67161020E+03 E0= -.67154850E+03  d E =-.101703E-02
 trial-energy change:   -0.001017  1 .order   -0.001277   -0.001502   -0.001053
 step:   0.7620(harm=  0.7620)  dis= 0.01361  next Energy=  -671.611690 (dE=-0.251E-02)
 bond charge predicted
       N       E                     dE             d eps       ncg     rms          rms(c)
DAV:   1    -0.656350283355E+03   -0.74039E-03   -0.11032E+00   600   0.130E+00    0.413E-01
[...]
DAV:   1    -0.656438428193E+03   -0.28611E-03   -0.21761E-02   600   0.204E-01    0.164E-01
DAV:   2    -0.656449081967E+03   -0.10654E-01   -0.91431E-02   804   0.205E-01    0.203E+00
DAV:   3    -0.656439577427E+03    0.95045E-02   -0.10572E-01   720   0.201E-01    0.497E-01
DAV:   4    -0.656438592334E+03    0.98509E-03   -0.27972E-03   528   0.545E-02    0.858E-02
DAV:   5    -0.656438417623E+03    0.17471E-03   -0.21205E-04   336   0.244E-02    0.342E-02
DAV:   6    -0.656438424804E+03   -0.71805E-05   -0.88627E-05   312   0.134E-02
 515 F= -.67176077E+03 E0= -.67169813E+03  d E =-.210212E-03
 trial-energy change:   -0.000210  1 .order   -0.000246   -0.000312   -0.000181
 step:   0.5581(harm=  0.5581)  dis= 0.00296  next Energy=  -671.760929 (dE=-0.372E-03)
 bond charge predicted
       N       E                     dE             d eps       ncg     rms          rms(c)
DAV:   1    -0.656438658214E+03   -0.24059E-03   -0.43219E-02   600   0.285E-01    0.134E-01
DAV:   2    -0.656442826695E+03   -0.41685E-02   -0.27320E-02   840   0.144E-01    0.132E+00
DAV:   3    -0.656439370524E+03    0.34562E-02   -0.40579E-02   684   0.146E-01    0.459E-01
DAV:   4    -0.656438993939E+03    0.37658E-03   -0.31846E-03   588   0.500E-02    0.111E-01
DAV:   5    -0.656438704842E+03    0.28910E-03   -0.46316E-04   396   0.292E-02    0.593E-02
DAV:   6    -0.656438715631E+03   -0.10788E-04   -0.54520E-05   324   0.154E-02
 516 F= -.67176093E+03 E0= -.67169868E+03  d E =-.370791E-03
 curvature:  -1.44 expect dE=-0.146E-02 dE for cont linesearch -0.205E-04
 ZBRENT: increasing intervall
 opt :   1.2067  next Energy=  -671.760831 (dE=-0.275E-03)
 bond charge predicted
       N       E                     dE             d eps       ncg     rms          rms(c)
DAV:   1    -0.656438562983E+03    0.14186E-03   -0.17228E-01   600   0.570E-01    0.276E-01
DAV:   2    -0.656457944156E+03   -0.19381E-01   -0.18307E-01   876   0.311E-01    0.255E+00
DAV:   3    -0.656441205953E+03    0.16738E-01   -0.20534E-01   816   0.280E-01    0.804E-01
DAV:   4    -0.656439386530E+03    0.18194E-02   -0.79138E-03   672   0.789E-02    0.206E-01
DAV:   5    -0.656438826135E+03    0.56039E-03   -0.13407E-03   600   0.472E-02    0.707E-02
DAV:   6    -0.656438841867E+03   -0.15731E-04   -0.34809E-04   468   0.310E-02
 517 F= -.67176080E+03 E0= -.67169876E+03  d E =-.238727E-03
 curvature:   6.76 expect dE= 0.240E-01 dE for cont linesearch  0.594E-03
 ZBRENT: bracketing found
 ZBRENT: interpolating
 opt :   0.7442  next Energy=  -671.760957 (dE=-0.400E-03)
 bond charge predicted
       N       E                     dE             d eps       ncg     rms          rms(c)
DAV:   1    -0.656438664038E+03    0.16210E-03   -0.89908E-02   600   0.410E-01    0.210E-01
DAV:   2    -0.656452934273E+03   -0.14270E-01   -0.11734E-01   864   0.236E-01    0.229E+00
DAV:   3    -0.656440198172E+03    0.12736E-01   -0.12457E-01   816   0.230E-01    0.511E-01
DAV:   4    -0.656439244496E+03    0.95368E-03   -0.34681E-03   696   0.666E-02    0.318E-01
DAV:   5    -0.656438881079E+03    0.36342E-03   -0.34585E-04   396   0.362E-02    0.199E-01
DAV:   6    -0.656438845943E+03    0.35136E-04   -0.10912E-04   336   0.211E-02
 518 F= -.67176098E+03 E0= -.67169810E+03  d E =-.426680E-03
 curvature:  -0.33 expect dE=-0.597E-03 dE for cont linesearch -0.441E-05
 ZBRENT: interpolating
 opt :   0.6527  next Energy=  -671.760997 (dE=-0.441E-03)
 bond charge predicted
       N       E                     dE             d eps       ncg     rms          rms(c)
DAV:   1    -0.656438735921E+03    0.14516E-03   -0.33084E-03   588   0.816E-02    0.322E-02
DAV:   2    -0.656438801331E+03   -0.65411E-04   -0.15760E-04   348   0.221E-02
 519 F= -.67176098E+03 E0= -.67169818E+03  d E =-.418620E-03
 curvature:  -1.04 expect dE=-0.145E-02 dE for cont linesearch -0.888E-06
 trial: gam= 0.72742 g(F)=  0.139E-02 g(S)=  0.000E+00 ort = 0.766E-04 (trialstep = 0.318E+00)
 search vector abs. value=  0.515E-02
 bond charge predicted
       N       E                     dE             d eps       ncg     rms          rms(c)
DAV:   1    -0.656438756508E+03   -0.20587E-04   -0.33535E-02   600   0.252E-01    0.828E-02
DAV:   2    -0.656439231723E+03   -0.47522E-03   -0.26179E-03   840   0.651E-02    0.383E-01
DAV:   3    -0.656439011288E+03    0.22043E-03   -0.34389E-03   516   0.544E-02    0.282E-01
DAV:   4    -0.656439012419E+03   -0.11305E-05   -0.45386E-04   552   0.371E-02
 520 F= -.67176137E+03 E0= -.67169826E+03  d E =-.395125E-03
 trial-energy change:   -0.000395  1 .order   -0.000289   -0.000460   -0.000117
 step:   0.4258(harm=  0.4258)  dis= 0.00188  next Energy=  -671.761284 (dE=-0.309E-03)
 bond charge predicted
       N       E                     dE             d eps       ncg     rms          rms(c)
DAV:   1    -0.656438768811E+03    0.24248E-03   -0.39285E-03   576   0.897E-02    0.592E-02
DAV:   2    -0.656440143131E+03   -0.13743E-02   -0.62412E-03   480   0.730E-02    0.784E-01
DAV:   3    -0.656438872935E+03    0.12702E-02   -0.76528E-03   480   0.749E-02    0.164E-01
DAV:   4    -0.656438802305E+03    0.70630E-04   -0.40268E-04   384   0.216E-02
 521 F= -.67176122E+03 E0= -.67169874E+03  d E =-.247873E-03
 curvature:  -0.76 expect dE=-0.509E-03 dE for cont linesearch -0.801E-06
 trial: gam= 0.54641 g(F)=  0.672E-03 g(S)=  0.000E+00 ort =-0.739E-04 (trialstep = 0.339E+00)
 search vector abs. value=  0.213E-02
 bond charge predicted
       N       E                     dE             d eps       ncg     rms          rms(c)
DAV:   1    -0.656438572671E+03    0.30026E-03   -0.17760E-02   600   0.184E-01    0.658E-02
DAV:   2    -0.656439116155E+03   -0.54348E-03   -0.22962E-03   660   0.546E-02    0.491E-01
DAV:   3    -0.656438694869E+03    0.42129E-03   -0.39251E-03   480   0.584E-02    0.185E-01
DAV:   4    -0.656438708188E+03   -0.13319E-04   -0.10916E-03   372   0.310E-02    0.128E-01
DAV:   5    -0.656438607047E+03    0.10114E-03   -0.16283E-04   312   0.190E-02    0.800E-02
DAV:   6    -0.656438594436E+03    0.12611E-04   -0.81469E-05   312   0.137E-02
 522 F= -.67176134E+03 E0= -.67169887E+03  d E =-.118837E-03
 trial-energy change:   -0.000119  1 .order   -0.000158   -0.000214   -0.000101
 step:   0.6442(harm=  0.6442)  dis= 0.00166  next Energy=  -671.761427 (dE=-0.204E-03)
 bond charge predicted
       N       E                     dE             d eps       ncg     rms          rms(c)
DAV:   1    -0.656438324178E+03    0.28287E-03   -0.14290E-02   600   0.165E-01    0.603E-02
DAV:   2    -0.656438888385E+03   -0.56421E-03   -0.22862E-03   576   0.546E-02    0.503E-01
DAV:   3    -0.656438421777E+03    0.46661E-03   -0.39089E-03   468   0.583E-02    0.170E-01
DAV:   4    -0.656438443403E+03   -0.21626E-04   -0.94957E-04   372   0.286E-02
 523 F= -.67176149E+03 E0= -.67169888E+03  d E =-.261829E-03
 curvature:  -1.09 expect dE=-0.878E-03 dE for cont linesearch -0.429E-06
 trial: gam= 1.12568 g(F)=  0.808E-03 g(S)=  0.000E+00 ort =-0.290E-04 (trialstep = 0.248E+00)
 search vector abs. value=  0.344E-02
 bond charge predicted
       N       E                     dE             d eps       ncg     rms          rms(c)
DAV:   1    -0.656438192005E+03    0.22977E-03   -0.14831E-02   600   0.171E-01    0.900E-02
DAV:   2    -0.656440495077E+03   -0.23031E-02   -0.13731E-02   660   0.103E-01    0.101E+00
DAV:   3    -0.656438444207E+03    0.20509E-02   -0.17104E-02   576   0.103E-01    0.252E-01
DAV:   4    -0.656438289857E+03    0.15435E-03   -0.89993E-04   408   0.295E-02    0.139E-01
DAV:   5    -0.656438211876E+03    0.77981E-04   -0.94516E-05   324   0.146E-02
 524 F= -.67176152E+03 E0= -.67169904E+03  d E =-.387370E-04
 trial-energy change:   -0.000039  1 .order   -0.000146   -0.000192   -0.000100
 step:   0.5166(harm=  0.5166)  dis= 0.00159  next Energy=  -671.761685 (dE=-0.200E-03)
 bond charge predicted
       N       E                     dE             d eps       ncg     rms          rms(c)
DAV:   1    -0.656437976815E+03    0.31304E-03   -0.17484E-02   600   0.186E-01    0.652E-02
DAV:   2    -0.656438338804E+03   -0.36199E-03   -0.78837E-04   708   0.460E-02    0.104E-01
DAV:   3    -0.656438005334E+03    0.33347E-03   -0.46809E-04   552   0.360E-02    0.586E-02
DAV:   4    -0.656438119876E+03   -0.11454E-03   -0.61289E-04   360   0.299E-02    0.257E-01
DAV:   5    -0.656437978915E+03    0.14096E-03   -0.65503E-04   360   0.238E-02    0.235E-02
DAV:   6    -0.656437993311E+03   -0.14396E-04   -0.72433E-05   312   0.981E-03
 525 F= -.67176160E+03 E0= -.67169928E+03  d E =-.113984E-03
 curvature:  -1.15 expect dE=-0.744E-03 dE for cont linesearch -0.754E-05
 ZBRENT: increasing intervall
 opt :   1.0545  next Energy=  -671.761544 (dE=-0.586E-04)
 bond charge predicted
       N       E                     dE             d eps       ncg     rms          rms(c)
DAV:   1    -0.656437205463E+03    0.77345E-03   -0.69403E-02   600   0.370E-01    0.147E-01
DAV:   2    -0.656440017391E+03   -0.28119E-02   -0.20976E-02   888   0.133E-01    0.108E+00
DAV:   3    -0.656437905710E+03    0.21117E-02   -0.29122E-02   684   0.127E-01    0.472E-01
DAV:   4    -0.656437763165E+03    0.14254E-03   -0.12293E-03   660   0.553E-02    0.179E-01
DAV:   5    -0.656437267618E+03    0.49555E-03   -0.35246E-04   516   0.351E-02    0.340E-02
DAV:   6    -0.656437277728E+03   -0.10110E-04   -0.78902E-05   348   0.181E-02
 526 F= -.67176147E+03 E0= -.67169899E+03  d E =0.131876E-04
 curvature:   8.41 expect dE= 0.177E-01 dE for cont linesearch  0.636E-03
 ZBRENT: bracketing found
 ZBRENT: interpolating
 opt :   0.6391  next Energy=  -671.761608 (dE=-0.123E-03)
 bond charge predicted
       N       E                     dE             d eps       ncg     rms          rms(c)
DAV:   1    -0.656437808836E+03   -0.54122E-03   -0.42124E-02   600   0.288E-01    0.980E-02
DAV:   2    -0.656438845872E+03   -0.10370E-02   -0.44426E-03   816   0.828E-02    0.670E-01
DAV:   3    -0.656438020031E+03    0.82584E-03   -0.60056E-03   504   0.735E-02    0.251E-01
DAV:   4    -0.656437919452E+03    0.10058E-03   -0.97830E-04   384   0.301E-02    0.118E-01
DAV:   5    -0.656437861717E+03    0.57734E-04   -0.16814E-04   348   0.170E-02
 527 F= -.67176160E+03 E0= -.67169901E+03  d E =-.116314E-03
 curvature:  -0.12 expect dE=-0.106E-03 dE for cont linesearch -0.478E-06
 trial: gam= 0.90006 g(F)=  0.871E-03 g(S)=  0.000E+00 ort =-0.116E-03 (trialstep = 0.325E+00)
 search vector abs. value=  0.345E-02
 bond charge predicted
       N       E                     dE             d eps       ncg     rms          rms(c)
DAV:   1    -0.656437674044E+03    0.24541E-03   -0.23519E-02   600   0.208E-01    0.725E-02
DAV:   2    -0.656438447482E+03   -0.77344E-03   -0.58461E-03   792   0.719E-02    0.493E-01
DAV:   3    -0.656437916438E+03    0.53104E-03   -0.55169E-03   492   0.634E-02    0.246E-01
DAV:   4    -0.656437802330E+03    0.11411E-03   -0.41098E-04   540   0.368E-02    0.847E-02
DAV:   5    -0.656437696023E+03    0.10631E-03   -0.60673E-05   312   0.206E-02    0.391E-02
DAV:   6    -0.656437696759E+03   -0.73617E-06   -0.47385E-05   300   0.106E-02
 528 F= -.67176173E+03 E0= -.67169935E+03  d E =-.129830E-03
 trial-energy change:   -0.000130  1 .order   -0.000142   -0.000249   -0.000035
 step:   0.3785(harm=  0.3785)  dis= 0.00118  next Energy=  -671.761747 (dE=-0.145E-03)
 bond charge predicted
       N       E                     dE             d eps       ncg     rms          rms(c)
DAV:   1    -0.656437646715E+03    0.49308E-04   -0.59794E-04   528   0.344E-02    0.182E-02
DAV:   2    -0.656437702844E+03   -0.56129E-04   -0.19491E-04   336   0.186E-02
 529 F= -.67176179E+03 E0= -.67169924E+03  d E =-.184375E-03
 curvature:  -0.85 expect dE=-0.446E-03 dE for cont linesearch -0.292E-05
 ZBRENT: interpolating
 opt :   0.3517  next Energy=  -671.761733 (dE=-0.131E-03)
 bond charge predicted
       N       E                     dE             d eps       ncg     rms          rms(c)
DAV:   1    -0.656437675250E+03   -0.28535E-04   -0.36551E-04   456   0.262E-02    0.433E-02
DAV:   2    -0.656438828332E+03   -0.11531E-02   -0.41703E-03   444   0.622E-02    0.721E-01
DAV:   3    -0.656437726022E+03    0.11023E-02   -0.45300E-03   420   0.595E-02    0.818E-02
DAV:   4    -0.656437688343E+03    0.37679E-04   -0.21136E-04   360   0.171E-02
 530 F= -.67176175E+03 E0= -.67169920E+03  d E =-.145580E-03
 curvature:  -0.42 expect dE=-0.203E-03 dE for cont linesearch -0.103E-08
 trial: gam= 0.46164 g(F)=  0.482E-03 g(S)=  0.000E+00 ort =-0.290E-05 (trialstep = 0.330E+00)
 search vector abs. value=  0.122E-02
 bond charge predicted
       N       E                     dE             d eps       ncg     rms          rms(c)
DAV:   1    -0.656437713590E+03    0.12431E-04   -0.88058E-03   588   0.129E-01    0.684E-02
DAV:   2    -0.656439128537E+03   -0.14149E-02   -0.72943E-03   648   0.778E-02    0.798E-01
DAV:   3    -0.656437892954E+03    0.12356E-02   -0.85873E-03   516   0.798E-02    0.218E-01
DAV:   4    -0.656437785862E+03    0.10709E-03   -0.31134E-04   408   0.292E-02    0.593E-02
DAV:   5    -0.656437719054E+03    0.66808E-04   -0.56960E-05   312   0.175E-02
 531 F= -.67176184E+03 E0= -.67169944E+03  d E =-.963969E-04
 trial-energy change:   -0.000096  1 .order   -0.000125   -0.000159   -0.000091
 step:   0.7732(harm=  0.7732)  dis= 0.00129  next Energy=  -671.761933 (dE=-0.186E-03)
 bond charge predicted
       N       E                     dE             d eps       ncg     rms          rms(c)
DAV:   1    -0.656437676335E+03    0.10953E-03   -0.15779E-02   600   0.173E-01    0.605E-02
DAV:   2    -0.656437998041E+03   -0.32171E-03   -0.15158E-03   684   0.482E-02    0.374E-01
DAV:   3    -0.656437793997E+03    0.20404E-03   -0.26052E-03   468   0.489E-02    0.210E-01
DAV:   4    -0.656437725548E+03    0.68449E-04   -0.46864E-04   360   0.225E-02
 532 F= -.67176194E+03 E0= -.67169946E+03  d E =-.191113E-03
 curvature:  -0.98 expect dE=-0.495E-03 dE for cont linesearch -0.246E-06
 trial: gam= 1.00579 g(F)=  0.507E-03 g(S)=  0.000E+00 ort = 0.175E-04 (trialstep = 0.287E+00)
 search vector abs. value=  0.177E-02
 bond charge predicted
       N       E                     dE             d eps       ncg     rms          rms(c)
DAV:   1    -0.656437905455E+03   -0.11146E-03   -0.10657E-02   588   0.138E-01    0.454E-02
DAV:   2    -0.656438137158E+03   -0.23170E-03   -0.11208E-03   612   0.406E-02    0.176E-01
DAV:   3    -0.656438028944E+03    0.10821E-03   -0.16139E-03   432   0.404E-02    0.230E-01
DAV:   4    -0.656437935851E+03    0.93093E-04   -0.27213E-04   360   0.262E-02
 533 F= -.67176204E+03 E0= -.67169991E+03  d E =-.104674E-03
 trial-energy change:   -0.000105  1 .order   -0.000117   -0.000151   -0.000082
 step:   0.6338(harm=  0.6338)  dis= 0.00148  next Energy=  -671.762104 (dE=-0.166E-03)
 bond charge predicted
       N       E                     dE             d eps       ncg     rms          rms(c)
DAV:   1    -0.656438052643E+03   -0.23699E-04   -0.15220E-02   600   0.165E-01    0.549E-02
DAV:   2    -0.656438427888E+03   -0.37525E-03   -0.23122E-03   660   0.506E-02    0.402E-01
DAV:   3    -0.656438111791E+03    0.31610E-03   -0.24269E-03   444   0.453E-02    0.125E-01
DAV:   4    -0.656438118258E+03   -0.64666E-05   -0.11519E-04   360   0.202E-02
 534 F= -.67176210E+03 E0= -.67170008E+03  d E =-.159899E-03
 curvature:  -1.07 expect dE=-0.669E-03 dE for cont linesearch -0.389E-07
 trial: gam= 1.23556 g(F)=  0.625E-03 g(S)=  0.000E+00 ort = 0.802E-05 (trialstep = 0.189E+00)
 search vector abs. value=  0.335E-02
 bond charge predicted
       N       E                     dE             d eps       ncg     rms          rms(c)
DAV:   1    -0.656438261160E+03   -0.14937E-03   -0.79016E-03   588   0.122E-01    0.557E-02
DAV:   2    -0.656438790117E+03   -0.52896E-03   -0.21785E-03   492   0.514E-02    0.491E-01
DAV:   3    -0.656438329570E+03    0.46055E-03   -0.27306E-03   408   0.518E-02    0.155E-01
DAV:   4    -0.656438339221E+03   -0.96518E-05   -0.24077E-04   360   0.225E-02
 535 F= -.67176220E+03 E0= -.67169932E+03  d E =-.101835E-03
 trial-energy change:   -0.000102  1 .order   -0.000084   -0.000120   -0.000048
 step:   0.3151(harm=  0.3151)  dis= 0.00095  next Energy=  -671.762198 (dE=-0.100E-03)
 bond charge predicted
       N       E                     dE             d eps       ncg     rms          rms(c)
DAV:   1    -0.656438391793E+03   -0.62223E-04   -0.36417E-03   576   0.841E-02    0.687E-02
DAV:   2    -0.656440267883E+03   -0.18761E-02   -0.10816E-02   660   0.919E-02    0.902E-01
DAV:   3    -0.656438614495E+03    0.16534E-02   -0.99101E-03   504   0.859E-02    0.218E-01
DAV:   4    -0.656438411463E+03    0.20303E-03   -0.30316E-04   420   0.301E-02    0.527E-02
DAV:   5    -0.656438382666E+03    0.28797E-04   -0.46219E-05   336   0.147E-02
 536 F= -.67176216E+03 E0= -.67169974E+03  d E =-.654972E-04
 curvature:  -0.83 expect dE=-0.298E-03 dE for cont linesearch -0.953E-05
 ZBRENT: increasing intervall
 opt :   0.5680  next Energy=  -671.762198 (dE=-0.100E-03)
 bond charge predicted
       N       E                     dE             d eps       ncg     rms          rms(c)
DAV:   1    -0.656438540117E+03   -0.12865E-03   -0.14323E-02   600   0.163E-01    0.622E-02
DAV:   2    -0.656438682689E+03   -0.14257E-03   -0.75703E-04   504   0.368E-02    0.248E-01
DAV:   3    -0.656438709236E+03   -0.26547E-04   -0.16301E-03   408   0.429E-02    0.268E-01
DAV:   4    -0.656438600197E+03    0.10904E-03   -0.69949E-04   384   0.311E-02    0.116E-01
DAV:   5    -0.656438568273E+03    0.31924E-04   -0.35566E-05   324   0.143E-02
 537 F= -.67176219E+03 E0= -.67170002E+03  d E =-.917212E-04
 curvature:  -3.02 expect dE=-0.147E-02 dE for cont linesearch -0.106E-05
 trial: gam= 0.65875 g(F)=  0.485E-03 g(S)=  0.000E+00 ort =-0.342E-04 (trialstep = 0.265E+00)
 search vector abs. value=  0.189E-02
 bond charge predicted
       N       E                     dE             d eps       ncg     rms          rms(c)
DAV:   1    -0.656438653634E+03   -0.53437E-04   -0.91035E-03   600   0.131E-01    0.317E-02
DAV:   2    -0.656438716463E+03   -0.62829E-04   -0.35667E-04   432   0.294E-02
 538 F= -.67176232E+03 E0= -.67170009E+03  d E =-.133001E-03
 trial-energy change:   -0.000133  1 .order   -0.000096   -0.000122   -0.000070
 step:   0.6144(harm=  0.6144)  dis= 0.00135  next Energy=  -671.762332 (dE=-0.142E-03)
 bond charge predicted
       N       E                     dE             d eps       ncg     rms          rms(c)
DAV:   1    -0.656438751019E+03   -0.97384E-04   -0.16641E-02   600   0.178E-01    0.104E-01
DAV:   2    -0.656443436025E+03   -0.46850E-02   -0.16581E-02   720   0.128E-01    0.145E+00
DAV:   3    -0.656439176297E+03    0.42597E-02   -0.22164E-02   648   0.140E-01    0.271E-01
DAV:   4    -0.656438835235E+03    0.34106E-03   -0.14407E-03   468   0.403E-02    0.107E-01
DAV:   5    -0.656438747339E+03    0.87896E-04   -0.95717E-05   348   0.174E-02
 539 F= -.67176233E+03 E0= -.67169990E+03  d E =-.143861E-03
 curvature:  -1.26 expect dE=-0.739E-03 dE for cont linesearch -0.725E-05
 trial: gam= 0.86990 g(F)=  0.587E-03 g(S)=  0.000E+00 ort = 0.104E-03 (trialstep = 0.288E+00)
 search vector abs. value=  0.220E-02
 bond charge predicted
       N       E                     dE             d eps       ncg     rms          rms(c)
DAV:   1    -0.656438774560E+03    0.60675E-04   -0.14226E-02   600   0.159E-01    0.370E-02
DAV:   2    -0.656438889934E+03   -0.11537E-03   -0.36182E-04   600   0.329E-02    0.145E-01
DAV:   3    -0.656438831879E+03    0.58056E-04   -0.28857E-04   384   0.259E-02
 540 F= -.67176249E+03 E0= -.67170021E+03  d E =-.161292E-03
 trial-energy change:   -0.000161  1 .order   -0.000131   -0.000195   -0.000068
 step:   0.4416(harm=  0.4416)  dis= 0.00100  next Energy=  -671.762483 (dE=-0.150E-03)
 reached required accuracy - stopping structural energy minimisation
