basalPlane                              
           1
     9.570946    0.000000    0.000000
    -6.380628   11.051579    0.000000
     0.000000    0.000000   34.880263
   C    Co   H    Mo   S 
  10   1  10  24  48
Direct configuration=     1
   0.74675242  0.22192636  0.45551160
   0.61008741  0.21759881  0.47380603
   0.78377140  0.29606637  0.42201524
   0.67027529  0.33790056  0.41968743
   0.56282384  0.28926561  0.45165381
   0.39923105  0.96152490  0.41991904
   0.37539627  0.08544609  0.37497842
   0.30833682  0.01862714  0.40959824
   0.50811575  0.06996430  0.36396914
   0.52268995  0.99326728  0.39173820
   0.54942209  0.14911814  0.41821878
   0.46106004  0.30242998  0.45752810
   0.20800520  0.01393196  0.42567256
   0.58571190  0.11075526  0.33919524
   0.33503688  0.14062719  0.36021928
   0.38014219  0.90596826  0.44517238
   0.55054001  0.16674111  0.49955161
   0.80911135  0.17494968  0.46496786
   0.87967418  0.31554666  0.40161543
   0.66414795  0.39434629  0.39715552
   0.61354231  0.96588901  0.39183553
   0.55555566  0.08333325  0.25000928
   0.55555566  0.33333325  0.25000928
   0.44444432  0.41666674  0.74999076
   0.55555566  0.58333325  0.25000928
   0.44444432  0.66666674  0.74999076
   0.55555566  0.83333325  0.25000928
   0.44444432  0.91666674  0.74999076
   0.88888899  0.33333325  0.25000928
   0.77777765  0.16666674  0.74999076
   0.77777765  0.41666674  0.74999076
   0.88888899  0.58333325  0.25000928
   0.77777765  0.66666674  0.74999076
   0.88888899  0.83333325  0.25000928
   0.77777765  0.91666674  0.74999076
   0.11111099  0.91666674  0.74999076
   0.88888899  0.08333325  0.25000928
   0.22222233  0.83333325  0.25000928
   0.44444432  0.16666674  0.74999076
   0.22222233  0.58333325  0.25000928
   0.11111099  0.41666674  0.74999076
   0.22222233  0.33333325  0.25000928
   0.22222233  0.08333325  0.25000928
   0.11111099  0.16666674  0.74999076
   0.11111099  0.66666674  0.74999076
   0.77777765  0.16666674  0.29487388
   0.88888899  0.08333325  0.79485533
   0.77777765  0.16666674  0.20514467
   0.88888899  0.08333325  0.70512613
   0.22222233  0.08333325  0.70512613
   0.11111099  0.16666674  0.20514467
   0.77777765  0.41666674  0.29487388
   0.88888899  0.33333325  0.79485533
   0.11111099  0.66666674  0.20514467
   0.55555566  0.83333325  0.70512613
   0.88888899  0.33333325  0.70512613
   0.22222233  0.08333325  0.79485533
   0.11111099  0.16666674  0.29487388
   0.77777765  0.66666674  0.29487388
   0.88888899  0.58333325  0.79485533
   0.77777765  0.66666674  0.20514467
   0.88888899  0.58333325  0.70512613
   0.77777765  0.91666674  0.29487388
   0.88888899  0.83333325  0.79485533
   0.77777765  0.41666674  0.20514467
   0.44444432  0.91666674  0.20514467
   0.44444432  0.91666674  0.29487388
   0.22222233  0.58333325  0.70512613
   0.22222233  0.58333325  0.79485533
   0.11111099  0.91666674  0.29487388
   0.22222233  0.83333325  0.79485533
   0.11111099  0.91666674  0.20514467
   0.22222233  0.83333325  0.70512613
   0.11111099  0.66666674  0.29487388
   0.77777765  0.91666674  0.20514467
   0.44444432  0.16666674  0.29487388
   0.55555566  0.08333325  0.79485533
   0.44444432  0.16666674  0.20514467
   0.55555566  0.08333325  0.70512613
   0.44444432  0.41666674  0.29487388
   0.55555566  0.33333325  0.79485533
   0.44444432  0.41666674  0.20514467
   0.55555566  0.33333325  0.70512613
   0.22222233  0.33333325  0.70512613
   0.11111099  0.41666674  0.20514467
   0.44444432  0.66666674  0.29487388
   0.55555566  0.58333325  0.79485533
   0.44444432  0.66666674  0.20514467
   0.55555566  0.58333325  0.70512613
   0.22222233  0.33333325  0.79485533
   0.11111099  0.41666674  0.29487388
   0.55555566  0.83333325  0.79485533
   0.88888899  0.83333325  0.70512613
Direct configuration=     2
   0.74595415  0.22153598  0.45542829
   0.60979900  0.21707299  0.47369739
   0.78296195  0.29552344  0.42187065
   0.66989214  0.33752578  0.41958453
   0.56260003  0.28874053  0.45148081
   0.39999556  0.96203847  0.41997294
   0.37546748  0.08521838  0.37560496
   0.30947417  0.01929647  0.40967071
   0.50765435  0.06998688  0.36490680
   0.52280068  0.99412690  0.39196676
   0.54884772  0.14868248  0.41834974
   0.46106141  0.30235693  0.45753341
   0.20807964  0.01399225  0.42567488
   0.58600219  0.11085226  0.33980403
   0.33500896  0.14039092  0.36043938
   0.38014350  0.90599880  0.44519413
   0.55052291  0.16671868  0.49954308
   0.80903785  0.17491152  0.46494765
   0.87949425  0.31548728  0.40155263
   0.66422952  0.39427015  0.39709818
   0.61359403  0.96594531  0.39177852
   0.55594501  0.08391128  0.25004429
   0.55625157  0.33422610  0.24991738
   0.44380150  0.41589773  0.74997862
   0.55626481  0.58412256  0.25003042
   0.44380095  0.66589593  0.74997896
   0.55605937  0.83404348  0.24997575
   0.44380065  0.91589574  0.74997915
   0.88948989  0.33424609  0.25002640
   0.77716136  0.16589017  0.74997908
   0.77715975  0.41588974  0.74997889
   0.88959690  0.58418418  0.25003700
   0.77715972  0.66588874  0.74997925
   0.88951666  0.83404018  0.25002324
   0.77715898  0.91588865  0.74997929
   0.11045733  0.91589414  0.74997877
   0.88938455  0.08378282  0.25002183
   0.22286424  0.83421237  0.25003124
   0.44380264  0.16589871  0.74997906
   0.22288787  0.58414815  0.25004312
   0.11045881  0.41589653  0.74997823
   0.22286843  0.33418867  0.25004547
   0.22272667  0.08385310  0.25003404
   0.11045876  0.16589694  0.74997836
   0.11045795  0.66589525  0.74997858
   0.77918688  0.16687356  0.29417141
   0.88920896  0.08371840  0.79455812
   0.77747569  0.16629738  0.20541193
   0.88921106  0.08372173  0.70543151
   0.22254979  0.08372239  0.70543145
   0.11082136  0.16632459  0.20540862
   0.77746014  0.41629638  0.29464098
   0.88920895  0.33371815  0.79455813
   0.11079481  0.66627202  0.20540333
   0.55587833  0.83372101  0.70543123
   0.88921151  0.33372233  0.70543150
   0.22254762  0.08371928  0.79455822
   0.11090564  0.16632928  0.29462597
   0.77747992  0.66629257  0.29459543
   0.88920862  0.58371815  0.79455828
   0.77747938  0.66629526  0.20541563
   0.88921049  0.58372114  0.70543127
   0.77746383  0.91626804  0.29463857
   0.88920898  0.83371819  0.79455817
   0.77746503  0.41624885  0.20542899
   0.44415916  0.91631583  0.20539510
   0.44354173  0.91534681  0.29422576
   0.22254899  0.58372143  0.70543127
   0.22254705  0.58371892  0.79455848
   0.11081818  0.91628366  0.29464831
   0.22254716  0.83371935  0.79455848
   0.11085123  0.91632523  0.20541005
   0.22254849  0.83372112  0.70543119
   0.11076541  0.66625495  0.29461008
   0.77748499  0.91636476  0.20541717
   0.44420347  0.16790120  0.29314011
   0.55587654  0.08371936  0.79455812
   0.44414887  0.16628073  0.20539012
   0.55587899  0.08372258  0.70543134
   0.44409877  0.41625312  0.29461724
   0.55587646  0.33371878  0.79455817
   0.44414841  0.41627431  0.20542214
   0.55587931  0.33372278  0.70543140
   0.22254996  0.33372304  0.70543147
   0.11079552  0.41627526  0.20541585
   0.44410291  0.66627334  0.29462371
   0.55587667  0.58371892  0.79455833
   0.44416804  0.66630593  0.20540556
   0.55587867  0.58372170  0.70543130
   0.22254727  0.33371921  0.79455833
   0.11081181  0.41629052  0.29459658
   0.55587653  0.83371906  0.79455838
   0.88921005  0.83372036  0.70543140
Direct configuration=     3
   0.74600393  0.22156033  0.45543348
   0.60981699  0.21710579  0.47370417
   0.78301243  0.29555730  0.42187967
   0.66991604  0.33754915  0.41959094
   0.56261399  0.28877328  0.45149160
   0.39994788  0.96200644  0.41996958
   0.37546304  0.08523258  0.37556588
   0.30940324  0.01925473  0.40966619
   0.50768312  0.06998547  0.36484832
   0.52279378  0.99407329  0.39195251
   0.54888354  0.14870965  0.41834157
   0.46106132  0.30236149  0.45753308
   0.20807499  0.01398849  0.42567474
   0.58598409  0.11084621  0.33976606
   0.33501070  0.14040566  0.36042566
   0.38014342  0.90599690  0.44519277
   0.55052398  0.16672008  0.49954361
   0.80904243  0.17491390  0.46494891
   0.87950547  0.31549098  0.40155654
   0.66422443  0.39427490  0.39710176
   0.61359080  0.96594180  0.39178207
   0.55592073  0.08387523  0.25004211
   0.55620817  0.33417042  0.24992311
   0.44384159  0.41594569  0.74997937
   0.55622059  0.58407333  0.25002910
   0.44384107  0.66594400  0.74997970
   0.55602795  0.83399918  0.24997784
   0.44384079  0.91594383  0.74997987
   0.88945242  0.33418916  0.25002534
   0.77719979  0.16593860  0.74997980
   0.77719829  0.41593820  0.74997963
   0.88955275  0.58413111  0.25003527
   0.77719826  0.66593726  0.74997997
   0.88947752  0.83399609  0.25002237
   0.77719756  0.91593717  0.74998001
   0.11049809  0.91594232  0.74997952
   0.88935365  0.08375478  0.25002105
   0.22282420  0.83415754  0.25002987
   0.44384265  0.16594661  0.74997979
   0.22284636  0.58409732  0.25004101
   0.11049948  0.41594457  0.74997901
   0.22282814  0.33413532  0.25004321
   0.22269522  0.08382068  0.25003249
   0.11049944  0.16594495  0.74997913
   0.11049867  0.66594337  0.74997934
   0.77909899  0.16686066  0.29421522
   0.88918901  0.08369438  0.79457666
   0.77749452  0.16632041  0.20539526
   0.88919098  0.08369750  0.70541247
   0.22252937  0.08369813  0.70541241
   0.11083942  0.16634593  0.20539216
   0.77747994  0.41631948  0.29465550
   0.88918899  0.33369415  0.79457666
   0.11081453  0.66629663  0.20538720
   0.55585821  0.83369682  0.70541220
   0.88919140  0.33369807  0.70541246
   0.22252734  0.08369520  0.79457675
   0.11091845  0.16635032  0.29464143
   0.77749848  0.66631591  0.29461280
   0.88918869  0.58369414  0.79457680
   0.77749798  0.66631842  0.20539873
   0.88919044  0.58369695  0.70541224
   0.77748341  0.91629291  0.29465324
   0.88918902  0.83369419  0.79457670
   0.77748453  0.41627491  0.20541126
   0.44417695  0.91633772  0.20537948
   0.44359802  0.91542913  0.29426618
   0.22252862  0.58369722  0.70541224
   0.22252680  0.58369487  0.79457699
   0.11083644  0.91630755  0.29466238
   0.22252690  0.83369527  0.79457699
   0.11086743  0.91634653  0.20539350
   0.22252815  0.83369693  0.70541217
   0.11078696  0.66628064  0.29462653
   0.77750324  0.91638359  0.20540017
   0.44421849  0.16782421  0.29324824
   0.55585653  0.08369528  0.79457666
   0.44416729  0.16630480  0.20537481
   0.55585883  0.08369830  0.70541231
   0.44412032  0.41627892  0.29463325
   0.55585645  0.33369473  0.79457670
   0.44416686  0.41629878  0.20540484
   0.55585913  0.33369848  0.70541236
   0.22252953  0.33369873  0.70541243
   0.11081519  0.41629968  0.20539894
   0.44412420  0.66629787  0.29463931
   0.55585665  0.58369486  0.79457685
   0.44418527  0.66632843  0.20538929
   0.55585853  0.58369747  0.70541227
   0.22252701  0.33369514  0.79457685
   0.11083047  0.41631399  0.29461388
   0.55585652  0.83369500  0.79457690
   0.88919003  0.83369622  0.70541237
Direct configuration=     4
   0.74612236  0.22089541  0.45528227
   0.60877184  0.21642717  0.47360872
   0.78235148  0.29472443  0.42168342
   0.66924696  0.33707281  0.41939757
   0.56156270  0.28820805  0.45140008
   0.40004770  0.96182676  0.42055453
   0.37491211  0.08693745  0.37558598
   0.30773089  0.01874425  0.41058609
   0.51034747  0.07241562  0.36463408
   0.52480576  0.99321552  0.39259486
   0.54878140  0.14874072  0.41869202
   0.46136689  0.30217769  0.45750723
   0.20880094  0.01408511  0.42561864
   0.58515048  0.11048145  0.34098294
   0.33537195  0.13959735  0.36087084
   0.38023200  0.90617613  0.44518143
   0.55051825  0.16668461  0.49951243
   0.80868753  0.17498422  0.46488014
   0.87899912  0.31528452  0.40148893
   0.66425897  0.39413661  0.39700458
   0.61293836  0.96635117  0.39170667
   0.55639248  0.08387991  0.24980726
   0.55699621  0.33541291  0.24954830
   0.44372307  0.41575521  0.74998086
   0.55644090  0.58430355  0.25004418
   0.44372178  0.66575245  0.74998129
   0.55628449  0.83403180  0.24987918
   0.44372109  0.91575181  0.74998135
   0.88991748  0.33472600  0.24992890
   0.77708005  0.16574424  0.74998120
   0.77707806  0.41574381  0.74998107
   0.88976878  0.58434904  0.25004275
   0.77707730  0.66574167  0.74998151
   0.88968163  0.83418420  0.25002315
   0.77707673  0.91574186  0.74998151
   0.11038279  0.91575051  0.74998192
   0.88980506  0.08367441  0.24990304
   0.22263872  0.83421963  0.24994037
   0.44372441  0.16575672  0.74998130
   0.22308274  0.58434483  0.25004665
   0.11038485  0.41575431  0.74998140
   0.22301740  0.33435877  0.25004415
   0.22193428  0.08368149  0.24975719
   0.11038501  0.16575461  0.74998144
   0.11038373  0.66575197  0.74998177
   0.78051238  0.16726633  0.29366054
   0.88925174  0.08378637  0.79437540
   0.77737927  0.16619165  0.20563072
   0.88925380  0.08379133  0.70560828
   0.22259396  0.08379836  0.70560996
   0.11075859  0.16628029  0.20563962
   0.77733559  0.41624719  0.29449329
   0.88925167  0.33378625  0.79437540
   0.11074953  0.66621010  0.20561765
   0.55592310  0.83379541  0.70560975
   0.88925472  0.33379286  0.70560801
   0.22258975  0.08379277  0.79437340
   0.11092994  0.16625559  0.29446614
   0.77743624  0.66622956  0.29440171
   0.88925104  0.58378564  0.79437579
   0.77743608  0.66623403  0.20562617
   0.88925303  0.58379039  0.70560772
   0.77729943  0.91610165  0.29448141
   0.88925117  0.83378568  0.79437566
   0.77753719  0.41624631  0.20562197
   0.44404593  0.91624828  0.20555888
   0.44296653  0.91447438  0.29376909
   0.22259267  0.58379707  0.70560939
   0.22258891  0.58379214  0.79437400
   0.11079491  0.91621132  0.29453380
   0.22258899  0.83379237  0.79437401
   0.11076251  0.91622434  0.20560986
   0.22259146  0.83379571  0.70560949
   0.11067374  0.66617934  0.29442713
   0.77741924  0.91629119  0.20561954
   0.44429020  0.16918124  0.29191321
   0.55592096  0.08379298  0.79437335
   0.44403438  0.16611324  0.20548111
   0.55592482  0.08379854  0.70560994
   0.44403243  0.41618459  0.29443868
   0.55592082  0.33379262  0.79437358
   0.44399693  0.41626147  0.20561401
   0.55592563  0.33379956  0.70560965
   0.22259448  0.33380005  0.70560961
   0.11074515  0.41623338  0.20563685
   0.44403358  0.66618565  0.29444552
   0.55592071  0.58379205  0.79437392
   0.44409754  0.66620380  0.20560137
   0.55592431  0.58379725  0.70560959
   0.22258957  0.33379299  0.79437363
   0.11077282  0.41627392  0.29440498
   0.55592020  0.83379196  0.79437395
   0.88925169  0.83378863  0.70560815
Direct configuration=     5
   0.74604196  0.22134680  0.45538492
   0.60948136  0.21688786  0.47367352
   0.78280018  0.29528984  0.42181665
   0.66970118  0.33739618  0.41952885
   0.56227639  0.28859176  0.45146221
   0.39997994  0.96194874  0.42015742
   0.37528612  0.08578006  0.37557234
   0.30886620  0.01909080  0.40996160
   0.50853872  0.07076586  0.36477952
   0.52343988  0.99379784  0.39215879
   0.54885074  0.14871963  0.41845411
   0.46115945  0.30230247  0.45752478
   0.20830812  0.01401952  0.42565672
   0.58571639  0.11072907  0.34015684
   0.33512671  0.14014609  0.36056862
   0.38017186  0.90605445  0.44518913
   0.55052214  0.16670869  0.49953360
   0.80892846  0.17493648  0.46492682
   0.87934287  0.31542468  0.40153483
   0.66423552  0.39423049  0.39707055
   0.61338128  0.96607326  0.39175786
   0.55607222  0.08387674  0.24996669
   0.55646124  0.33456942  0.24980275
   0.44380353  0.41588452  0.74997985
   0.55629133  0.58414726  0.25003394
   0.44380276  0.66588249  0.74998021
   0.55611034  0.83400966  0.24994616
   0.44380235  0.91588216  0.74998035
   0.88960176  0.33436156  0.24999437
   0.77716134  0.16587618  0.74998025
   0.77715968  0.41587578  0.74998009
   0.88962213  0.58420109  0.25003767
   0.77715942  0.66587445  0.74998046
   0.88954306  0.83405650  0.25002262
   0.77715876  0.91587445  0.74998049
   0.11046106  0.91588073  0.74998029
   0.88949861  0.08372897  0.24998315
   0.22276464  0.83417748  0.25000113
   0.44380468  0.16588563  0.74998027
   0.22292227  0.58417681  0.25004282
   0.11046267  0.41588347  0.74997978
   0.22288892  0.33420708  0.25004352
   0.22245086  0.08377598  0.24994409
   0.11046269  0.16588383  0.74997987
   0.11046176  0.66588190  0.74998012
   0.77955287  0.16699093  0.29403709
   0.88920915  0.08372392  0.79451203
   0.77745751  0.16627906  0.20547087
   0.88921115  0.08372763  0.70547535
   0.22255011  0.08373031  0.70547585
   0.11081346  0.16632485  0.20547163
   0.77743358  0.41629626  0.29460341
   0.88920912  0.33372372  0.79451203
   0.11079366  0.66626885  0.20546120
   0.55587905  0.83372848  0.70547564
   0.88921173  0.33372851  0.70547525
   0.22254738  0.08372654  0.79451145
   0.11092214  0.16631990  0.29458514
   0.77747850  0.66628818  0.29454501
   0.88920871  0.58372352  0.79451225
   0.77747811  0.66629132  0.20547177
   0.88921054  0.58372696  0.70547502
   0.77742433  0.91623149  0.29459806
   0.88920898  0.83372357  0.79451215
   0.77750144  0.41626573  0.20547892
   0.44413487  0.91630899  0.20543709
   0.44339523  0.91512253  0.29410655
   0.22254919  0.58372928  0.70547555
   0.22254674  0.58372611  0.79451181
   0.11082310  0.91627665  0.29462109
   0.22254684  0.83372645  0.79451181
   0.11083374  0.91630729  0.20546298
   0.22254848  0.83372865  0.70547553
   0.11075060  0.66624811  0.29456250
   0.77747627  0.91635392  0.20547062
   0.44424152  0.16825999  0.29281952
   0.55587722  0.08372666  0.79451137
   0.44412461  0.16624328  0.20540895
   0.55588002  0.08373049  0.70547577
   0.44409210  0.41624863  0.29457077
   0.55587712  0.33372617  0.79451148
   0.44411229  0.41628680  0.20547201
   0.55588048  0.33373094  0.70547572
   0.22255039  0.33373127  0.70547575
   0.11079270  0.41627839  0.20547534
   0.44409510  0.66626184  0.29457708
   0.55587723  0.58372607  0.79451168
   0.44415709  0.66628841  0.20545739
   0.55587965  0.58372951  0.70547563
   0.22254710  0.33372656  0.79451159
   0.11081196  0.41630112  0.29454679
   0.55587697  0.83372614  0.79451172
   0.88920983  0.83372590  0.70547524
Direct configuration=     6
   0.74590297  0.22108897  0.45527314
   0.60900770  0.21654252  0.47355833
   0.78229285  0.29466254  0.42172716
   0.66912976  0.33691921  0.41945493
   0.56185023  0.28827981  0.45140130
   0.40013227  0.96211236  0.42043374
   0.37586642  0.08597368  0.37580544
   0.30923628  0.01906658  0.41025051
   0.50880175  0.07142775  0.36516817
   0.52335008  0.99400358  0.39244283
   0.54881147  0.14875465  0.41867159
   0.46113952  0.30217187  0.45750969
   0.20779521  0.01397597  0.42583123
   0.58630801  0.11119756  0.34064482
   0.33493381  0.14021178  0.36073616
   0.38012131  0.90583053  0.44536585
   0.55043328  0.16661372  0.49953046
   0.80881307  0.17484758  0.46489135
   0.87896622  0.31522248  0.40145846
   0.66419875  0.39413084  0.39697178
   0.61381588  0.96608348  0.39174438
   0.55632216  0.08354097  0.24971835
   0.55689298  0.33538415  0.24946598
   0.44405068  0.41614101  0.74998622
   0.55607296  0.58391884  0.25004110
   0.44404945  0.66613875  0.74998653
   0.55606696  0.83360549  0.24986467
   0.44404885  0.91613824  0.74998647
   0.88972611  0.33439429  0.24989516
   0.77739692  0.16613521  0.74998601
   0.77739557  0.41613495  0.74998598
   0.88943869  0.58392277  0.25003728
   0.77739460  0.66613295  0.74998629
   0.88936523  0.83382050  0.25002640
   0.77739445  0.91613327  0.74998625
   0.11071938  0.91614009  0.74998707
   0.88967439  0.08338090  0.24986748
   0.22218844  0.83373399  0.24990575
   0.44405157  0.16614214  0.74998645
   0.22277276  0.58395640  0.25003493
   0.11072012  0.41614333  0.74998673
   0.22270517  0.33393286  0.25003647
   0.22136161  0.08331932  0.24965685
   0.11072032  0.16614344  0.74998668
   0.11071995  0.66614097  0.74998703
   0.78022242  0.16728555  0.29386370
   0.88909017  0.08359208  0.79448741
   0.77759437  0.16637849  0.20551742
   0.88909178  0.08359619  0.70549055
   0.22242870  0.08360485  0.70549245
   0.11088737  0.16649119  0.20552536
   0.77745179  0.41643833  0.29456838
   0.88909010  0.33359212  0.79448743
   0.11089802  0.66639302  0.20552636
   0.55576150  0.83360268  0.70549236
   0.88909261  0.33359775  0.70549018
   0.22242567  0.08360033  0.79448530
   0.11105965  0.16639679  0.29455171
   0.77760084  0.66642376  0.29450276
   0.88908948  0.58359129  0.79448781
   0.77759728  0.66642768  0.20553373
   0.88909119  0.58359545  0.70549002
   0.77741536  0.91626350  0.29456293
   0.88908929  0.83359122  0.79448775
   0.77785926  0.41655922  0.20548192
   0.44414675  0.91637927  0.20543982
   0.44328647  0.91492430  0.29396939
   0.22242769  0.58360397  0.70549185
   0.22242507  0.58359978  0.79448591
   0.11097646  0.91642911  0.29461977
   0.22242503  0.83359963  0.79448590
   0.11080321  0.91632689  0.20549159
   0.22242643  0.83360235  0.70549205
   0.11083188  0.66638765  0.29452081
   0.77757755  0.91640588  0.20550797
   0.44447766  0.16896985  0.29243234
   0.55576028  0.08360096  0.79448496
   0.44416441  0.16628433  0.20532136
   0.55576326  0.08360558  0.70549250
   0.44423395  0.41640489  0.29452165
   0.55576018  0.33360112  0.79448525
   0.44406570  0.41654689  0.20548242
   0.55576416  0.33360687  0.70549206
   0.22242926  0.33360665  0.70549198
   0.11095331  0.41646646  0.20553823
   0.44421774  0.66638152  0.29453464
   0.55575980  0.58360009  0.79448559
   0.44423084  0.66635337  0.20550256
   0.55576289  0.58360463  0.70549206
   0.22242577  0.33360074  0.79448552
   0.11093585  0.41649056  0.29450094
   0.55575919  0.83359981  0.79448556
   0.88908973  0.83359367  0.70549046
Direct configuration=     7
   0.74585372  0.22099762  0.45523354
   0.60883989  0.21642017  0.47351752
   0.78211310  0.29444029  0.42169545
   0.66892731  0.33675022  0.41942874
   0.56169924  0.28816928  0.45137971
   0.40018624  0.96217033  0.42053164
   0.37607202  0.08604228  0.37588803
   0.30936740  0.01905800  0.41035287
   0.50889494  0.07166226  0.36530586
   0.52331826  0.99407648  0.39254346
   0.54879756  0.14876706  0.41874864
   0.46113245  0.30212561  0.45750435
   0.20761349  0.01396054  0.42589306
   0.58651762  0.11136354  0.34081771
   0.33486546  0.14023505  0.36079552
   0.38010340  0.90575119  0.44542846
   0.55040179  0.16658007  0.49952934
   0.80877219  0.17481608  0.46487879
   0.87883278  0.31515084  0.40143140
   0.66418572  0.39409553  0.39693678
   0.61396985  0.96608710  0.39173961
   0.55641071  0.08342201  0.24963036
   0.55704594  0.33567280  0.24934667
   0.44413825  0.41623188  0.74998848
   0.55599559  0.58383792  0.25004364
   0.44413685  0.66622954  0.74998876
   0.55605159  0.83346230  0.24983580
   0.44413618  0.91622896  0.74998863
   0.88977016  0.33440589  0.24986002
   0.77748038  0.16622698  0.74998805
   0.77747914  0.41622677  0.74998807
   0.88937370  0.58382416  0.25003714
   0.77747793  0.66622453  0.74998835
   0.88930223  0.83373688  0.25002774
   0.77747795  0.91622497  0.74998829
   0.11081090  0.91623197  0.74998947
   0.88973667  0.08325758  0.24982650
   0.22198430  0.83357686  0.24987195
   0.44413905  0.16623302  0.74998863
   0.22271979  0.58387831  0.25003213
   0.11081134  0.41623540  0.74998919
   0.22264007  0.33383570  0.25003398
   0.22097569  0.08315753  0.24955508
   0.11081159  0.16623542  0.74998910
   0.11081142  0.66623276  0.74998948
   0.78045964  0.16738994  0.29380227
   0.88904802  0.08354537  0.79447868
   0.77764286  0.16641372  0.20553391
   0.88904949  0.08354962  0.70549593
   0.22238569  0.08356040  0.70549833
   0.11091356  0.16655013  0.20554439
   0.77745824  0.41648866  0.29455597
   0.88904793  0.33354550  0.79447871
   0.11093499  0.66643702  0.20554944
   0.55571986  0.83355811  0.70549828
   0.88905041  0.33355143  0.70549546
   0.22238255  0.08355562  0.79447604
   0.11110837  0.16642403  0.29453986
   0.77764419  0.66647180  0.29448779
   0.88904724  0.58354444  0.79447915
   0.77763950  0.66647599  0.20555568
   0.88904891  0.58354886  0.70549534
   0.77741218  0.91627484  0.29455048
   0.88904688  0.83354434  0.79447910
   0.77798603  0.41666320  0.20548299
   0.44415096  0.91640417  0.20544079
   0.44324794  0.91485406  0.29392080
   0.22238464  0.58355957  0.70549762
   0.22238197  0.58355502  0.79447673
   0.11103080  0.91648313  0.29461931
   0.22238187  0.83355470  0.79447673
   0.11079240  0.91633384  0.20550172
   0.22238319  0.83355760  0.70549790
   0.11086068  0.66643709  0.29450604
   0.77761344  0.91642429  0.20552121
   0.44456132  0.16922135  0.29229517
   0.55571884  0.08355642  0.79447560
   0.44417851  0.16629888  0.20529032
   0.55572189  0.08356132  0.70549843
   0.44428420  0.41646026  0.29450425
   0.55571876  0.33355681  0.79447596
   0.44404919  0.41663903  0.20548610
   0.55572294  0.33356292  0.70549785
   0.22238634  0.33356249  0.70549773
   0.11101022  0.41653309  0.20556051
   0.44426119  0.66642392  0.29451961
   0.55571819  0.58355546  0.79447635
   0.44425697  0.66637638  0.20551856
   0.55572152  0.58356038  0.70549788
   0.22238278  0.33355616  0.79447628
   0.11097975  0.41655768  0.29448469
   0.55571747  0.83355505  0.79447629
   0.88904718  0.83354682  0.70549585
Direct configuration=     8
   0.74534102  0.22070088  0.45522883
   0.60865297  0.21600060  0.47349776
   0.78153141  0.29406043  0.42156079
   0.66851249  0.33639119  0.41930429
   0.56159906  0.28797096  0.45130117
   0.40044488  0.96209336  0.42087137
   0.37563276  0.08627614  0.37624791
   0.30919885  0.01946123  0.41057715
   0.50939744  0.07180883  0.36579737
   0.52394457  0.99432984  0.39275608
   0.54858324  0.14862472  0.41893336
   0.46075010  0.30199007  0.45749926
   0.20742438  0.01388787  0.42607675
   0.58769744  0.11224953  0.34120423
   0.33481052  0.14019375  0.36104046
   0.38001062  0.90538496  0.44570942
   0.55034486  0.16651213  0.49948110
   0.80872555  0.17460742  0.46484369
   0.87838573  0.31483750  0.40131469
   0.66405488  0.39377824  0.39686258
   0.61393816  0.96625398  0.39177850
   0.55651352  0.08329562  0.24953356
   0.55732847  0.33620955  0.24915593
   0.44421510  0.41633395  0.74998317
   0.55582571  0.58374419  0.25005222
   0.44421323  0.66633090  0.74998357
   0.55603084  0.83325416  0.24979791
   0.44421264  0.91633046  0.74998341
   0.88986560  0.33452559  0.24982798
   0.77755650  0.16632345  0.74998279
   0.77755511  0.41632312  0.74998282
   0.88938628  0.58372738  0.25005443
   0.77755355  0.66632030  0.74998323
   0.88920138  0.83360395  0.25005965
   0.77755365  0.91632087  0.74998317
   0.11088164  0.91632416  0.74998421
   0.88986452  0.08309874  0.24979985
   0.22174445  0.83343951  0.24984819
   0.44421602  0.16633521  0.74998333
   0.22270822  0.58383047  0.25004391
   0.11088276  0.41632812  0.74998383
   0.22260522  0.33374241  0.25006094
   0.22060873  0.08298294  0.24944531
   0.11088311  0.16632811  0.74998375
   0.11088223  0.66632497  0.74998421
   0.78076496  0.16746334  0.29368144
   0.88901314  0.08349444  0.79450451
   0.77800590  0.16651788  0.20543035
   0.88901647  0.08350031  0.70547137
   0.22235264  0.08351438  0.70547367
   0.11087983  0.16675930  0.20541262
   0.77736713  0.41654276  0.29450075
   0.88901291  0.33349472  0.79450462
   0.11091128  0.66641289  0.20552208
   0.55568599  0.83351101  0.70547355
   0.88901760  0.33350276  0.70547074
   0.22234904  0.08350858  0.79450233
   0.11118519  0.16634949  0.29450976
   0.77771608  0.66653376  0.29449606
   0.88901234  0.58349324  0.79450513
   0.77770089  0.66654574  0.20555727
   0.88901615  0.58349964  0.70547076
   0.77737348  0.91625645  0.29453041
   0.88901155  0.83349293  0.79450507
   0.77862466  0.41710483  0.20532013
   0.44404927  0.91624652  0.20533150
   0.44325398  0.91482848  0.29381785
   0.22235173  0.58351379  0.70547280
   0.22234860  0.58350786  0.79450330
   0.11118002  0.91665389  0.29459394
   0.22234841  0.83350705  0.79450319
   0.11044915  0.91610039  0.20538640
   0.22234969  0.83351078  0.70547320
   0.11086736  0.66650847  0.29450245
   0.77770552  0.91631418  0.20544999
   0.44474245  0.16963967  0.29200572
   0.55568514  0.08350901  0.79450149
   0.44420025  0.16636846  0.20507870
   0.55568855  0.08351484  0.70547367
   0.44445846  0.41656562  0.29446174
   0.55568521  0.33351008  0.79450205
   0.44382085  0.41703043  0.20534611
   0.55569013  0.33351733  0.70547288
   0.22235358  0.33351731  0.70547291
   0.11126042  0.41671617  0.20552372
   0.44435869  0.66649155  0.29452062
   0.55568416  0.58350791  0.79450255
   0.44426882  0.66631869  0.20547930
   0.55568819  0.58351400  0.70547301
   0.22234953  0.33350946  0.79450264
   0.11105177  0.41667427  0.29447388
   0.55568319  0.83350730  0.79450235
   0.88901374  0.83349689  0.70547136
Direct configuration=     9
   0.74509536  0.22055870  0.45522658
   0.60856341  0.21579957  0.47348829
   0.78125269  0.29387841  0.42149626
   0.66831373  0.33621916  0.41924466
   0.56155106  0.28787594  0.45126354
   0.40056881  0.96205648  0.42103415
   0.37542229  0.08638820  0.37642034
   0.30911809  0.01965444  0.41068462
   0.50963821  0.07187906  0.36603287
   0.52424466  0.99445124  0.39285796
   0.54848055  0.14855651  0.41902187
   0.46056690  0.30192513  0.45749682
   0.20733377  0.01385305  0.42616476
   0.58826274  0.11267405  0.34138942
   0.33478420  0.14017396  0.36115782
   0.37996616  0.90520949  0.44584405
   0.55031757  0.16647958  0.49945798
   0.80870321  0.17450744  0.46482688
   0.87817153  0.31468736  0.40125877
   0.66399219  0.39362622  0.39682703
   0.61392297  0.96633394  0.39179714
   0.55656278  0.08323506  0.24948717
   0.55746384  0.33646673  0.24906455
   0.44425192  0.41638286  0.74998062
   0.55574431  0.58369928  0.25005633
   0.44424983  0.66637947  0.74998109
   0.55602090  0.83315444  0.24977976
   0.44424927  0.91637910  0.74998091
   0.88991133  0.33458294  0.24981263
   0.77759297  0.16636967  0.74998027
   0.77759151  0.41636928  0.74998031
   0.88939231  0.58368100  0.25006271
   0.77758979  0.66636619  0.74998078