 171 171   0   0
  0.4145774E+02  0.1590000E-08  0.1590000E-08  0.3238000E-08  0.5000000E-15
  1.000000000000000E-004
  CAR 
 basalPlane                              
      2.32355949    -19.04345765  301      0.25843035      1.00000000
    -19.043  0.0000E+00  0.0000E+00
    -18.972  0.0000E+00  0.0000E+00
    -18.901  0.0000E+00  0.0000E+00
    -18.830  0.0000E+00  0.0000E+00
    -18.759  0.0000E+00  0.0000E+00
    -18.687  0.0000E+00  0.0000E+00
    -18.616  0.7794E-18  0.5551E-19
    -18.545  0.1864E-14  0.1328E-15
    -18.474  0.1643E-11  0.1171E-12
    -18.402  0.5371E-09  0.3837E-10
    -18.331  0.6558E-07  0.4709E-08
    -18.260  0.3017E-05  0.2196E-06
    -18.189  0.5289E-04  0.3987E-05
    -18.118  0.3578E-03  0.2947E-04
    -18.046  0.9448E-03  0.9676E-04
    -17.975  0.9810E-03  0.1666E-03
    -17.904  0.4026E-03  0.1953E-03
    -17.833  0.1029E-03  0.2026E-03
    -17.761  0.3007E-03  0.2240E-03
    -17.690  0.8809E-03  0.2868E-03
    -17.619  0.1027E-02  0.3600E-03
    -17.548  0.4715E-03  0.3935E-03
    -17.477  0.8464E-04  0.3996E-03
    -17.405  0.5877E-05  0.4000E-03
    -17.334  0.1559E-06  0.4000E-03
    -17.263  0.1562E-08  0.4000E-03
    -17.192  0.5852E-11  0.4000E-03
    -17.120  0.8143E-14  0.4000E-03
    -17.049  0.4365E-17  0.4000E-03
    -16.978  0.0000E+00  0.4000E-03
    -16.907  0.0000E+00  0.4000E-03
    -16.836  0.0000E+00  0.4000E-03
    -16.764  0.0000E+00  0.4000E-03
    -16.693  0.0000E+00  0.4000E-03
    -16.622  0.0000E+00  0.4000E-03
    -16.551  0.0000E+00  0.4000E-03
    -16.479  0.0000E+00  0.4000E-03
    -16.408  0.0000E+00  0.4000E-03
    -16.337  0.0000E+00  0.4000E-03
    -16.266  0.0000E+00  0.4000E-03
    -16.195  0.2650E-17  0.4000E-03
    -16.123  0.5999E-14  0.4000E-03
    -16.052  0.4944E-11  0.4000E-03
    -15.981  0.1513E-08  0.4000E-03
    -15.910  0.1730E-06  0.4000E-03
    -15.838  0.7468E-05  0.4005E-03
    -15.767  0.1230E-03  0.4093E-03
    -15.696  0.7827E-03  0.4651E-03
    -15.625  0.1947E-02  0.6037E-03
    -15.554  0.1905E-02  0.7394E-03
    -15.482  0.7338E-03  0.7917E-03
    -15.411  0.1105E-03  0.7995E-03
    -15.340  0.1501E-04  0.8006E-03
    -15.269  0.2221E-03  0.8164E-03
    -15.197  0.2206E-02  0.9735E-03
    -15.126  0.8530E-02  0.1581E-02
    -15.055  0.1296E-01  0.2504E-02
    -14.984  0.7767E-02  0.3058E-02
    -14.913  0.1827E-02  0.3188E-02
    -14.841  0.1670E-03  0.3200E-02
    -14.770  0.5863E-05  0.3200E-02
    -14.699  0.1701E-06  0.3200E-02
    -14.628  0.4581E-05  0.3200E-02
    -14.556  0.8756E-04  0.3207E-02
    -14.485  0.6754E-03  0.3255E-02
    -14.414  0.2521E-02  0.3434E-02
    -14.343  0.6741E-02  0.3914E-02
    -14.271  0.1394E-01  0.4907E-02
    -14.200  0.1880E-01  0.6247E-02
    -14.129  0.1986E-01  0.7661E-02
    -14.058  0.1926E-01  0.9033E-02
    -13.987  0.1567E-01  0.1015E-01
    -13.915  0.7963E-02  0.1072E-01
    -13.844  0.5576E-02  0.1111E-01
    -13.773  0.1440E-01  0.1214E-01
    -13.702  0.2756E-01  0.1410E-01
    -13.630  0.3201E-01  0.1638E-01
    -13.559  0.2288E-01  0.1801E-01
    -13.488  0.1799E-01  0.1929E-01
    -13.417  0.1677E-01  0.2049E-01
    -13.346  0.8206E-02  0.2107E-01
    -13.274  0.1657E-02  0.2119E-01
    -13.203  0.1324E-03  0.2120E-01
    -13.132  0.4104E-05  0.2120E-01
    -13.061  0.4868E-07  0.2120E-01
    -12.989  0.2186E-09  0.2120E-01
    -12.918  0.3687E-12  0.2120E-01
    -12.847  0.2329E-15  0.2120E-01
    -12.776  0.0000E+00  0.2120E-01
    -12.705  0.0000E+00  0.2120E-01
    -12.633  0.0000E+00  0.2120E-01
    -12.562  0.0000E+00  0.2120E-01
    -12.491  0.0000E+00  0.2120E-01
    -12.420  0.0000E+00  0.2120E-01
    -12.348  0.0000E+00  0.2120E-01
    -12.277  0.0000E+00  0.2120E-01
    -12.206  0.0000E+00  0.2120E-01
    -12.135  0.0000E+00  0.2120E-01
    -12.064  0.0000E+00  0.2120E-01
    -11.992  0.0000E+00  0.2120E-01
    -11.921  0.0000E+00  0.2120E-01
    -11.850  0.0000E+00  0.2120E-01
    -11.779  0.0000E+00  0.2120E-01
    -11.707  0.0000E+00  0.2120E-01
    -11.636  0.0000E+00  0.2120E-01
    -11.565  0.0000E+00  0.2120E-01
    -11.494  0.0000E+00  0.2120E-01
    -11.423  0.0000E+00  0.2120E-01
    -11.351  0.0000E+00  0.2120E-01
    -11.280  0.0000E+00  0.2120E-01
    -11.209  0.0000E+00  0.2120E-01
    -11.138  0.0000E+00  0.2120E-01
    -11.066  0.0000E+00  0.2120E-01
    -10.995  0.0000E+00  0.2120E-01
    -10.924  0.0000E+00  0.2120E-01
    -10.853  0.0000E+00  0.2120E-01
    -10.782  0.0000E+00  0.2120E-01
    -10.710  0.0000E+00  0.2120E-01
    -10.639  0.0000E+00  0.2120E-01
    -10.568  0.0000E+00  0.2120E-01
    -10.497  0.0000E+00  0.2120E-01
    -10.425  0.0000E+00  0.2120E-01
    -10.354  0.0000E+00  0.2120E-01
    -10.283  0.0000E+00  0.2120E-01
    -10.212  0.0000E+00  0.2120E-01
    -10.141  0.0000E+00  0.2120E-01
    -10.069  0.0000E+00  0.2120E-01
     -9.998  0.0000E+00  0.2120E-01
     -9.927  0.3429E-17  0.2120E-01
     -9.856  0.6990E-14  0.2120E-01
     -9.784  0.5151E-11  0.2120E-01
     -9.713  0.1415E-08  0.2120E-01
     -9.642  0.1466E-06  0.2120E-01
     -9.571  0.5830E-05  0.2120E-01
     -9.500  0.9144E-04  0.2121E-01
     -9.428  0.5882E-03  0.2125E-01
     -9.357  0.1645E-02  0.2137E-01
     -9.286  0.2300E-02  0.2153E-01
     -9.215  0.2461E-02  0.2171E-01
     -9.143  0.2742E-02  0.2190E-01
     -9.072  0.2320E-02  0.2207E-01
     -9.001  0.1354E-02  0.2216E-01
     -8.930  0.5469E-03  0.2220E-01
     -8.859  0.5470E-03  0.2224E-01
     -8.787  0.1034E-02  0.2231E-01
     -8.716  0.8781E-03  0.2238E-01
     -8.645  0.2944E-03  0.2240E-01
     -8.574  0.3849E-04  0.2240E-01
     -8.502  0.1938E-05  0.2240E-01
     -8.431  0.3714E-07  0.2240E-01
     -8.360  0.2678E-09  0.2240E-01
     -8.289  0.7202E-12  0.2240E-01
     -8.218  0.7180E-15  0.2240E-01
     -8.146  0.3118E-18  0.2240E-01
     -8.075  0.0000E+00  0.2240E-01
     -8.004  0.0000E+00  0.2240E-01
     -7.933  0.0000E+00  0.2240E-01
     -7.861  0.0000E+00  0.2240E-01
     -7.790  0.0000E+00  0.2240E-01
     -7.719  0.1715E-17  0.2240E-01
     -7.648  0.3975E-14  0.2240E-01
     -7.576  0.3487E-11  0.2240E-01
     -7.505  0.1149E-08  0.2240E-01
     -7.434  0.1451E-06  0.2240E-01
     -7.363  0.7304E-05  0.2240E-01
     -7.292  0.1557E-03  0.2241E-01
     -7.220  0.1502E-02  0.2252E-01
     -7.149  0.6753E-02  0.2300E-01
     -7.078  0.1376E-01  0.2398E-01
     -7.007  0.1209E-01  0.2484E-01
     -6.935  0.4583E-02  0.2517E-01
     -6.864  0.3100E-02  0.2539E-01
     -6.793  0.1220E-01  0.2626E-01
     -6.722  0.2724E-01  0.2820E-01
     -6.651  0.3451E-01  0.3066E-01
     -6.579  0.3216E-01  0.3295E-01
     -6.508  0.1949E-01  0.3433E-01
     -6.437  0.5772E-02  0.3475E-01
     -6.366  0.7327E-03  0.3480E-01
     -6.294  0.1453E-03  0.3481E-01
     -6.223  0.1368E-02  0.3491E-01
     -6.152  0.6798E-02  0.3539E-01
     -6.081  0.1347E-01  0.3635E-01
     -6.010  0.1078E-01  0.3712E-01
     -5.938  0.3794E-02  0.3739E-01
     -5.867  0.2561E-02  0.3757E-01
     -5.796  0.7820E-02  0.3813E-01
     -5.725  0.1433E-01  0.3915E-01
     -5.653  0.1340E-01  0.4010E-01
     -5.582  0.1285E-01  0.4102E-01
     -5.511  0.2161E-01  0.4256E-01
     -5.440  0.2436E-01  0.4429E-01
     -5.369  0.1446E-01  0.4532E-01
     -5.297  0.1087E-01  0.4609E-01
     -5.226  0.1569E-01  0.4721E-01
     -5.155  0.1830E-01  0.4852E-01
     -5.084  0.1860E-01  0.4984E-01
     -5.012  0.1271E-01  0.5075E-01
     -4.941  0.8119E-02  0.5132E-01
     -4.870  0.1222E-01  0.5219E-01
     -4.799  0.1581E-01  0.5332E-01
     -4.728  0.1882E-01  0.5466E-01
     -4.656  0.2849E-01  0.5669E-01
     -4.585  0.3151E-01  0.5893E-01
     -4.514  0.1946E-01  0.6032E-01
     -4.443  0.6097E-02  0.6075E-01
     -4.371  0.2826E-02  0.6096E-01
     -4.300  0.8429E-02  0.6156E-01
     -4.229  0.1440E-01  0.6258E-01
     -4.158  0.1189E-01  0.6343E-01
     -4.087  0.5928E-02  0.6385E-01
     -4.015  0.1826E-02  0.6398E-01
     -3.944  0.7383E-03  0.6403E-01
     -3.873  0.4531E-02  0.6436E-01
     -3.802  0.1710E-01  0.6557E-01
     -3.730  0.2632E-01  0.6745E-01
     -3.659  0.1981E-01  0.6886E-01
     -3.588  0.1686E-01  0.7006E-01
     -3.517  0.2045E-01  0.7152E-01
     -3.446  0.1963E-01  0.7292E-01
     -3.374  0.1688E-01  0.7412E-01
     -3.303  0.1686E-01  0.7532E-01
     -3.232  0.1138E-01  0.7613E-01
     -3.161  0.3797E-02  0.7640E-01
     -3.089  0.2488E-02  0.7658E-01
     -3.018  0.4235E-02  0.7688E-01
     -2.947  0.3689E-02  0.7714E-01
     -2.876  0.4092E-02  0.7743E-01
     -2.805  0.1165E-01  0.7826E-01
     -2.733  0.2256E-01  0.7987E-01
     -2.662  0.2945E-01  0.8197E-01
     -2.591  0.2542E-01  0.8378E-01
     -2.520  0.1339E-01  0.8473E-01
     -2.448  0.1111E-01  0.8552E-01
     -2.377  0.1916E-01  0.8689E-01
     -2.306  0.2139E-01  0.8841E-01
     -2.235  0.1291E-01  0.8933E-01
     -2.164  0.5139E-02  0.8970E-01
     -2.092  0.6316E-02  0.9015E-01
     -2.021  0.1253E-01  0.9104E-01
     -1.950  0.1317E-01  0.9198E-01
     -1.879  0.9207E-02  0.9263E-01
     -1.807  0.1174E-01  0.9347E-01
     -1.736  0.1231E-01  0.9435E-01
     -1.665  0.5918E-02  0.9477E-01
     -1.594  0.2572E-02  0.9495E-01
     -1.523  0.2181E-02  0.9511E-01
     -1.451  0.1086E-02  0.9518E-01
     -1.380  0.2173E-03  0.9520E-01
     -1.309  0.1688E-04  0.9520E-01
     -1.238  0.5013E-06  0.9520E-01
     -1.166  0.5631E-08  0.9520E-01
     -1.095  0.2368E-10  0.9520E-01
     -1.024  0.3702E-13  0.9520E-01
     -0.953  0.2151E-16  0.9520E-01
     -0.881  0.0000E+00  0.9520E-01
     -0.810  0.0000E+00  0.9520E-01
     -0.739  0.0000E+00  0.9520E-01
     -0.668  0.0000E+00  0.9520E-01
     -0.597  0.0000E+00  0.9520E-01
     -0.525  0.7139E-16  0.9520E-01
     -0.454  0.9700E-13  0.9520E-01
     -0.383  0.4880E-10  0.9520E-01
     -0.312  0.9138E-08  0.9520E-01
     -0.240  0.6422E-06  0.9520E-01
     -0.169  0.1711E-04  0.9520E-01
     -0.098  0.1749E-03  0.9521E-01
     -0.027  0.6948E-03  0.9526E-01
      0.044  0.1089E-02  0.9534E-01
      0.116  0.7787E-03  0.9540E-01
      0.187  0.8828E-03  0.9546E-01
      0.258  0.1965E-02  0.9560E-01
      0.329  0.3646E-02  0.9586E-01
      0.401  0.1110E-01  0.9665E-01
      0.472  0.2466E-01  0.9841E-01
      0.543  0.2701E-01  0.1003E+00
      0.614  0.2564E-01  0.1022E+00
      0.685  0.2669E-01  0.1041E+00
      0.757  0.1512E-01  0.1051E+00
      0.828  0.5409E-02  0.1055E+00
      0.899  0.1311E-01  0.1065E+00
      0.970  0.3428E-01  0.1089E+00
      1.042  0.3923E-01  0.1117E+00
      1.113  0.2594E-01  0.1135E+00
      1.184  0.1687E-01  0.1147E+00
      1.255  0.1219E-01  0.1156E+00
      1.326  0.1043E-01  0.1163E+00
      1.398  0.6728E-02  0.1168E+00
      1.469  0.2130E-02  0.1170E+00
      1.540  0.2851E-03  0.1170E+00
      1.611  0.1518E-04  0.1170E+00
      1.683  0.3114E-06  0.1170E+00
      1.754  0.2419E-08  0.1170E+00
      1.825  0.7029E-11  0.1170E+00
      1.896  0.7585E-14  0.1170E+00
      1.967  0.3118E-17  0.1170E+00
      2.039  0.0000E+00  0.1170E+00
      2.110  0.0000E+00  0.1170E+00
      2.181  0.0000E+00  0.1170E+00
      2.252  0.0000E+00  0.1170E+00
      2.324  0.0000E+00  0.1170E+00
