 running on   52 total cores
 distrk:  each k-point on   52 cores,    1 groups
 distr:  one band on    4 cores,   13 groups
 using from now: INCAR     
 vasp.5.4.4.18Apr17-6-g9f103f2a35 (build Oct 28 2020 13:00:36) gamma-only       
  
 POSCAR found :  5 types and     171 ions
 scaLAPACK will be used
 LDA part: xc-table for Pade appr. of Perdew
 POSCAR, INCAR and KPOINTS ok, starting setup
 FFT: planning ...
 WAVECAR not read
 entering main loop
       N       E                     dE             d eps       ncg     rms          rms(c)
DAV:   1     0.777268870758E+04    0.77727E+04   -0.36223E+05  1170   0.112E+03
DAV:   2    -0.239305711541E+03   -0.80120E+04   -0.77602E+04  1638   0.269E+02
DAV:   3    -0.126476071646E+04   -0.10255E+04   -0.10120E+04  1391   0.104E+02
DAV:   4    -0.132124127958E+04   -0.56481E+02   -0.56175E+02  1768   0.295E+01
DAV:   5    -0.132315676355E+04   -0.19155E+01   -0.19051E+01  1794   0.478E+00    0.169E+02
DAV:   6    -0.127650334493E+04    0.46653E+02   -0.93423E+02  1612   0.272E+01    0.929E+01
DAV:   7    -0.129681986984E+04   -0.20317E+02   -0.12058E+03  1768   0.460E+01    0.551E+01
DAV:   8    -0.123304838076E+04    0.63771E+02   -0.67642E+01  1443   0.776E+00    0.319E+01
DAV:   9    -0.124173954468E+04   -0.86912E+01   -0.19726E+02  1729   0.970E+00    0.434E+01
DAV:  10    -0.121889624165E+04    0.22843E+02   -0.12746E+02  1781   0.175E+01    0.203E+01
DAV:  11    -0.122487773184E+04   -0.59815E+01   -0.63565E+01  1755   0.245E+00    0.161E+01
DAV:  12    -0.122395391591E+04    0.92382E+00   -0.31821E+00  1781   0.112E+00    0.159E+01
DAV:  13    -0.122341530473E+04    0.53861E+00   -0.21575E+00  1716   0.845E-01    0.156E+01
DAV:  14    -0.122327963994E+04    0.13566E+00   -0.17450E+00  1807   0.623E-01    0.151E+01
DAV:  15    -0.122392281033E+04   -0.64317E+00   -0.50976E+00  1820   0.107E+00    0.147E+01
DAV:  16    -0.122465696385E+04   -0.73415E+00   -0.48119E+00  1742   0.557E-01    0.186E+01
DAV:  17    -0.122408342758E+04    0.57354E+00   -0.41150E-01  1755   0.319E-01    0.128E+01
DAV:  18    -0.122700267376E+04   -0.29192E+01   -0.15635E+01  1898   0.137E+00    0.213E+01
DAV:  19    -0.122618283823E+04    0.81984E+00   -0.21457E+00  1742   0.627E-01    0.205E+01
DAV:  20    -0.122425350315E+04    0.19293E+01   -0.12375E+00  1833   0.105E+00    0.109E+01
DAV:  21    -0.122428667014E+04   -0.33167E-01   -0.37718E-01  1651   0.309E-01    0.982E+00
DAV:  22    -0.122476382534E+04   -0.47716E+00   -0.26150E+00  1742   0.370E-01    0.150E+01
DAV:  23    -0.122455026110E+04    0.21356E+00   -0.12075E-01  1625   0.155E-01    0.148E+01
DAV:  24    -0.122409398111E+04    0.45628E+00   -0.18487E-01  1768   0.322E-01    0.921E+00
DAV:  25    -0.122393024218E+04    0.16374E+00   -0.10574E-01  1820   0.176E-01    0.832E+00
DAV:  26    -0.122375591937E+04    0.17432E+00   -0.13201E-01  1690   0.187E-01    0.776E+00
DAV:  27    -0.122366727300E+04    0.88646E-01   -0.44768E-02  1612   0.103E-01    0.722E+00
DAV:  28    -0.122336034168E+04    0.30693E+00   -0.33450E-01  1794   0.341E-01    0.608E+00
DAV:  29    -0.122315668013E+04    0.20366E+00   -0.25344E-01  1807   0.248E-01    0.469E+00
DAV:  30    -0.122304903610E+04    0.10764E+00   -0.11928E-01  1794   0.180E-01    0.399E+00
DAV:  31    -0.122294001671E+04    0.10902E+00   -0.44446E-01  1755   0.210E-01    0.347E+00
DAV:  32    -0.122293875452E+04    0.12622E-02   -0.15765E-01  1495   0.576E-02    0.300E+00
DAV:  33    -0.122287507494E+04    0.63680E-01   -0.25650E-01  1547   0.159E-01    0.295E+00
DAV:  34    -0.122287555371E+04   -0.47877E-03   -0.65325E-02  1222   0.414E-02    0.242E+00
DAV:  35    -0.122282592071E+04    0.49633E-01   -0.40649E-01  1716   0.321E-01    0.297E+00
DAV:  36    -0.122281631043E+04    0.96103E-02   -0.30573E-02  1625   0.880E-02    0.188E+00
DAV:  37    -0.122282117764E+04   -0.48672E-02   -0.14823E-02  1326   0.497E-02    0.282E+00
DAV:  38    -0.122281758849E+04    0.35892E-02   -0.26331E-03  1274   0.240E-02    0.232E+00
DAV:  39    -0.122281731231E+04    0.27618E-03   -0.67480E-03  1040   0.181E-02    0.265E+00
DAV:  40    -0.122281394103E+04    0.33713E-02   -0.10527E-03  1144   0.135E-02    0.237E+00
DAV:  41    -0.122283663200E+04   -0.22691E-01   -0.35782E-02  1391   0.469E-02    0.400E+00
DAV:  42    -0.122283434109E+04    0.22909E-02   -0.10369E-02  1248   0.283E-02    0.356E+00
DAV:  43    -0.122283802708E+04   -0.36860E-02   -0.51027E-03   884   0.119E-02    0.396E+00
DAV:  44    -0.122283783371E+04    0.19336E-03   -0.14475E-03   832   0.931E-03    0.386E+00
DAV:  45    -0.122284298401E+04   -0.51503E-02   -0.92771E-04   910   0.929E-03    0.413E+00
DAV:  46    -0.122284218420E+04    0.79981E-03   -0.60599E-03   845   0.115E-02    0.408E+00
DAV:  47    -0.122283413263E+04    0.80516E-02   -0.30838E-03  1027   0.207E-02    0.375E+00
DAV:  48    -0.122284339660E+04   -0.92640E-02   -0.12821E-03  1131   0.211E-02    0.431E+00
DAV:  49    -0.122284006092E+04    0.33357E-02   -0.22738E-04  1001   0.111E-02    0.401E+00
DAV:  50    -0.122284091337E+04   -0.85245E-03   -0.19242E-04   767   0.663E-03    0.415E+00
DAV:  51    -0.122280308763E+04    0.37826E-01   -0.15232E-02  1339   0.675E-02    0.155E+00
DAV:  52    -0.122280676580E+04   -0.36782E-02   -0.26179E-02  1261   0.379E-02    0.234E+00
DAV:  53    -0.122281107105E+04   -0.43052E-02   -0.35447E-02  1157   0.308E-02    0.250E+00
DAV:  54    -0.122281053365E+04    0.53740E-03   -0.41027E-03  1300   0.303E-02    0.256E+00
DAV:  55    -0.122282281529E+04   -0.12282E-01   -0.26523E-03  1235   0.227E-02    0.336E+00
DAV:  56    -0.122282738426E+04   -0.45690E-02   -0.92518E-04  1001   0.183E-02    0.358E+00
DAV:  57    -0.122282777788E+04   -0.39362E-03   -0.11049E-04   741   0.665E-03    0.358E+00
DAV:  58    -0.122282912513E+04   -0.13473E-02   -0.22255E-04   728   0.528E-03    0.368E+00
DAV:  59    -0.122282911446E+04    0.10677E-04   -0.50375E-05   728   0.471E-03
   1 F= -.12530784E+04 E0= -.12529692E+04  d E =-.125308E+04
 curvature:   0.00 expect dE= 0.000E+00 dE for cont linesearch  0.000E+00
 trial: gam= 0.00000 g(F)=  0.165E+01 g(S)=  0.000E+00 ort = 0.000E+00 (trialstep = 0.100E+01)
 search vector abs. value=  0.165E+01
 bond charge predicted
       N       E                     dE             d eps       ncg     rms          rms(c)
DAV:   1    -0.122325752421E+04   -0.42840E+00   -0.95697E+01  1209   0.986E+00    0.113E+01
DAV:   2    -0.123653172435E+04   -0.13274E+02   -0.11718E+02  1625   0.622E+00    0.335E+01
DAV:   3    -0.122368820605E+04    0.12844E+02   -0.24268E+01  1742   0.613E+00    0.721E+00
DAV:   4    -0.122380888376E+04   -0.12068E+00   -0.73706E+00  1690   0.120E+00    0.611E+00
DAV:   5    -0.122379011516E+04    0.18769E-01   -0.47133E+00  1768   0.410E-01    0.431E+00
DAV:   6    -0.122364109671E+04    0.14902E+00   -0.10798E+00  1534   0.333E-01    0.259E+00
DAV:   7    -0.122363542548E+04    0.56712E-02   -0.11060E+00  1638   0.334E-01    0.284E+00
DAV:   8    -0.122360649430E+04    0.28931E-01   -0.28738E-01  1638   0.185E-01    0.293E+00
DAV:   9    -0.122358606784E+04    0.20426E-01   -0.15351E-01  1508   0.975E-02    0.161E+00
DAV:  10    -0.122357964729E+04    0.64205E-02   -0.20888E-01  1547   0.854E-02    0.183E+00
DAV:  11    -0.122356959825E+04    0.10049E-01   -0.13946E-01  1547   0.700E-02    0.720E-01
DAV:  12    -0.122356588316E+04    0.37151E-02   -0.54465E-02  1508   0.551E-02    0.904E-01
DAV:  13    -0.122356245409E+04    0.34291E-02   -0.36329E-02  1326   0.420E-02    0.239E-01
DAV:  14    -0.122356202280E+04    0.43129E-03   -0.14921E-02  1287   0.345E-02    0.632E-01
DAV:  15    -0.122356101225E+04    0.10105E-02   -0.96810E-03  1183   0.251E-02    0.214E-01
DAV:  16    -0.122356080582E+04    0.20643E-03   -0.33454E-03  1131   0.200E-02    0.355E-01
DAV:  17    -0.122356076883E+04    0.36984E-04   -0.20549E-03   897   0.112E-02    0.231E-01
DAV:  18    -0.122356076109E+04    0.77393E-05   -0.75331E-04   949   0.987E-03
   2 F= -.12539190E+04 E0= -.12538524E+04  d E =-.840525E+00
 trial-energy change:   -0.840525  1 .order   -0.908105   -1.651508   -0.164703
 step:   1.1622(harm=  1.1108)  dis= 0.03301  next Energy= -1253.932035 (dE=-0.854E+00)
 bond charge predicted
       N       E                     dE             d eps       ncg     rms          rms(c)
DAV:   1    -0.122353853735E+04    0.22231E-01   -0.25170E+00  1274   0.160E+00    0.134E+00
DAV:   2    -0.122359495463E+04   -0.56417E-01   -0.32392E-01  1599   0.620E-01    0.192E+00
DAV:   3    -0.122357276218E+04    0.22192E-01   -0.37665E-01  1729   0.361E-01    0.294E+00
DAV:   4    -0.122357689884E+04   -0.41367E-02   -0.12776E-01  1677   0.177E-01    0.127E+00
DAV:   5    -0.122357406045E+04    0.28384E-02   -0.23309E-01  1573   0.806E-02    0.180E+00
DAV:   6    -0.122355878908E+04    0.15271E-01   -0.22699E-01  1729   0.128E-01    0.533E-01
DAV:   7    -0.122355777089E+04    0.10182E-02   -0.42133E-02  1651   0.727E-02    0.126E+00
DAV:   8    -0.122355305335E+04    0.47175E-02   -0.34441E-02  1417   0.391E-02    0.167E-01
DAV:   9    -0.122355236419E+04    0.68916E-03   -0.45812E-03  1157   0.290E-02    0.722E-01
DAV:  10    -0.122355070712E+04    0.16571E-02   -0.31592E-03  1027   0.191E-02    0.105E-01
DAV:  11    -0.122355033850E+04    0.36861E-03   -0.16862E-03  1014   0.183E-02    0.366E-01
DAV:  12    -0.122354996573E+04    0.37277E-03   -0.91619E-04   780   0.107E-02    0.103E-01
DAV:  13    -0.122354987166E+04    0.94077E-04   -0.56736E-04   767   0.106E-02
   3 F= -.12539267E+04 E0= -.12538609E+04  d E =-.848290E+00
 curvature:  -0.44 expect dE=-0.196E+00 dE for cont linesearch -0.169E-02
 trial: gam= 0.32127 g(F)=  0.451E+00 g(S)=  0.000E+00 ort =-0.799E-01 (trialstep = 0.103E+01)
 search vector abs. value=  0.570E+00
 bond charge predicted
       N       E                     dE             d eps       ncg     rms          rms(c)
DAV:   1    -0.122272796406E+04    0.82200E+00   -0.66953E+01  1196   0.597E+00    0.348E+00
DAV:   2    -0.122385081774E+04   -0.11229E+01   -0.92947E+00  1560   0.176E+00    0.177E+01
DAV:   3    -0.122305952242E+04    0.79130E+00   -0.79019E-01  1612   0.567E-01    0.327E+00
DAV:   4    -0.122303293423E+04    0.26588E-01   -0.24847E+00  1482   0.237E-01    0.492E+00
DAV:   5    -0.122293662450E+04    0.96310E-01   -0.19738E+00  1573   0.137E-01    0.222E+00
DAV:   6    -0.122302577661E+04   -0.89152E-01   -0.47367E-01  1664   0.321E-01    0.940E+00
DAV:   7    -0.122292381509E+04    0.10196E+00   -0.14784E-01  1560   0.200E-01    0.189E+00
DAV:   8    -0.122288125398E+04    0.42561E-01   -0.34942E-01  1690   0.235E-01    0.173E+00
DAV:   9    -0.122286758030E+04    0.13674E-01   -0.26282E-01  1690   0.125E-01    0.101E+00
DAV:  10    -0.122286333264E+04    0.42477E-02   -0.69198E-02  1482   0.602E-02    0.951E-01
DAV:  11    -0.122285920902E+04    0.41236E-02   -0.53326E-02  1469   0.525E-02    0.655E-01
DAV:  12    -0.122285830465E+04    0.90437E-03   -0.22436E-02  1235   0.386E-02    0.618E-01
DAV:  13    -0.122285691823E+04    0.13864E-02   -0.13998E-02  1079   0.297E-02    0.473E-01
DAV:  14    -0.122285643508E+04    0.48314E-03   -0.79004E-03   936   0.200E-02    0.429E-01
DAV:  15    -0.122285577008E+04    0.66500E-03   -0.41930E-03   871   0.167E-02    0.334E-01
DAV:  16    -0.122285549329E+04    0.27679E-03   -0.26862E-03   819   0.120E-02    0.286E-01
DAV:  17    -0.122285517903E+04    0.31426E-03   -0.12231E-03   871   0.105E-02    0.210E-01
DAV:  18    -0.122285508270E+04    0.96330E-04   -0.58073E-04   741   0.715E-03
   4 F= -.12532695E+04 E0= -.12532038E+04  d E =0.657266E+00
 trial-energy change:    0.657266  1 .order    0.657300   -0.438735    1.753335
 step:   0.2066(harm=  0.2066)  dis= 0.01014  next Energy= -1253.970638 (dE=-0.439E-01)
 bond charge predicted
       N       E                     dE             d eps       ncg     rms          rms(c)
DAV:   1    -0.122350427491E+04   -0.64910E+00   -0.42968E+01  1196   0.487E+00    0.369E+00
DAV:   2    -0.122461294470E+04   -0.11087E+01   -0.87040E+00  1677   0.212E+00    0.776E+00
DAV:   3    -0.122370537583E+04    0.90757E+00   -0.55843E+00  1768   0.145E+00    0.318E+00
DAV:   4    -0.122367780585E+04    0.27570E-01   -0.10922E+00  1768   0.316E-01    0.303E+00
DAV:   5    -0.122364049894E+04    0.37307E-01   -0.35798E-01  1651   0.154E-01    0.213E+00
DAV:   6    -0.122362939316E+04    0.11106E-01   -0.39539E-01  1677   0.191E-01    0.238E+00
DAV:   7    -0.122362144113E+04    0.79520E-02   -0.44003E-01  1651   0.190E-01    0.263E+00
DAV:   8    -0.122361231508E+04    0.91261E-02   -0.21697E-01  1573   0.134E-01    0.154E+00
DAV:   9    -0.122361593823E+04   -0.36232E-02   -0.19434E-01  1703   0.202E-01    0.322E+00
DAV:  10    -0.122359745322E+04    0.18485E-01   -0.45465E-02  1482   0.997E-02    0.744E-01
DAV:  11    -0.122358903359E+04    0.84196E-02   -0.17467E-02  1404   0.547E-02    0.588E-01
DAV:  12    -0.122358790174E+04    0.11318E-02   -0.11669E-02  1144   0.283E-02    0.399E-01
DAV:  13    -0.122358756759E+04    0.33415E-03   -0.33457E-03   949   0.194E-02    0.418E-01
DAV:  14    -0.122358716034E+04    0.40725E-03   -0.41585E-03   871   0.180E-02    0.261E-01
DAV:  15    -0.122358687203E+04    0.28831E-03   -0.78351E-04   871   0.148E-02    0.174E-01
DAV:  16    -0.122358674235E+04    0.12968E-03   -0.58218E-04   715   0.108E-02    0.139E-01
DAV:  17    -0.122358670253E+04    0.39820E-04   -0.19061E-04   676   0.706E-03
   5 F= -.12539708E+04 E0= -.12539061E+04  d E =-.440479E-01
 curvature:  -0.14 expect dE=-0.315E-02 dE for cont linesearch -0.270E-06
 trial: gam=-0.02301 g(F)=  0.227E-01 g(S)=  0.000E+00 ort =-0.105E-02 (trialstep = 0.867E+00)
 search vector abs. value=  0.231E-01
 bond charge predicted
       N       E                     dE             d eps       ncg     rms          rms(c)
DAV:   1    -0.122360291311E+04   -0.16171E-01   -0.12471E+00  1196   0.850E-01    0.623E-01
DAV:   2    -0.122386733755E+04   -0.26442E+00   -0.95519E-01  1612   0.448E-01    0.103E+01
DAV:   3    -0.122367432615E+04    0.19301E+00   -0.38188E-01  1612   0.228E-01    0.161E+00
DAV:   4    -0.122361747021E+04    0.56856E-01   -0.11947E-01  1547   0.119E-01    0.115E+00
DAV:   5    -0.122361080908E+04    0.66611E-02   -0.69656E-02  1157   0.535E-02    0.793E-01
DAV:   6    -0.122360704423E+04    0.37648E-02   -0.12265E-02  1183   0.366E-02    0.594E-01
DAV:   7    -0.122360598729E+04    0.10569E-02   -0.17025E-02  1066   0.369E-02    0.524E-01
DAV:   8    -0.122360485547E+04    0.11318E-02   -0.13006E-02  1092   0.292E-02    0.305E-01
DAV:   9    -0.122360454810E+04    0.30737E-03   -0.10192E-02   962   0.238E-02    0.356E-01
DAV:  10    -0.122360398279E+04    0.56531E-03   -0.61018E-03   793   0.164E-02    0.103E-01
DAV:  11    -0.122360397025E+04    0.12536E-04   -0.34888E-03   728   0.126E-02    0.206E-01
DAV:  12    -0.122360378830E+04    0.18196E-03   -0.23681E-03   702   0.876E-03    0.621E-02
DAV:  13    -0.122360382022E+04   -0.31929E-04   -0.12673E-03   676   0.769E-03    0.125E-01
DAV:  14    -0.122360375206E+04    0.68166E-04   -0.71358E-04   637   0.507E-03
   6 F= -.12539826E+04 E0= -.12539170E+04  d E =-.118258E-01
 trial-energy change:   -0.011826  1 .order   -0.012115   -0.019735   -0.004494
 step:   1.1230(harm=  1.1230)  dis= 0.00748  next Energy= -1253.983557 (dE=-0.128E-01)
 bond charge predicted
       N       E                     dE             d eps       ncg     rms          rms(c)
DAV:   1    -0.122360592001E+04   -0.20998E-02   -0.10911E-01  1183   0.252E-01    0.233E-01
DAV:   2    -0.122364320958E+04   -0.37290E-01   -0.42762E-02  1625   0.158E-01    0.416E+00
DAV:   3    -0.122361986219E+04    0.23347E-01   -0.27464E-02  1443   0.974E-02    0.650E-01
DAV:   4    -0.122360758531E+04    0.12277E-01   -0.65735E-03  1326   0.500E-02    0.394E-01
DAV:   5    -0.122360662726E+04    0.95806E-03   -0.27549E-03   923   0.210E-02    0.283E-01
DAV:   6    -0.122360627176E+04    0.35550E-03   -0.20136E-03   832   0.140E-02    0.195E-01
DAV:   7    -0.122360637180E+04   -0.10004E-03   -0.37509E-03   845   0.161E-02    0.272E-01
DAV:   8    -0.122360606605E+04    0.30575E-03   -0.23733E-03   767   0.117E-02    0.861E-02
DAV:   9    -0.122360606002E+04    0.60329E-05   -0.13917E-03   663   0.962E-03    0.164E-01
DAV:  10    -0.122360593412E+04    0.12589E-03   -0.88162E-04   637   0.639E-03    0.278E-02
DAV:  11    -0.122360596001E+04   -0.25882E-04   -0.38910E-04   637   0.550E-03
   7 F= -.12539833E+04 E0= -.12539180E+04  d E =-.125156E-01
 curvature:  -0.57 expect dE=-0.571E-02 dE for cont linesearch -0.852E-06
 trial: gam= 0.44514 g(F)=  0.100E-01 g(S)=  0.000E+00 ort = 0.186E-03 (trialstep = 0.918E+00)
 search vector abs. value=  0.148E-01
 bond charge predicted
       N       E                     dE             d eps       ncg     rms          rms(c)
DAV:   1    -0.122360280519E+04    0.31289E-02   -0.13100E+00  1183   0.684E-01    0.435E-01
DAV:   2    -0.122378876435E+04   -0.18596E+00   -0.28266E-01  1729   0.316E-01    0.890E+00
DAV:   3    -0.122366238355E+04    0.12638E+00   -0.11776E-01  1625   0.180E-01    0.108E+00
DAV:   4    -0.122360949455E+04    0.52889E-01   -0.24059E-02  1508   0.987E-02    0.620E-01
DAV:   5    -0.122360685074E+04    0.26438E-02   -0.50679E-03  1092   0.349E-02    0.535E-01
DAV:   6    -0.122360543081E+04    0.14199E-02   -0.45982E-03  1014   0.259E-02    0.308E-01
DAV:   7    -0.122360679952E+04   -0.13687E-02   -0.81066E-03   923   0.225E-02    0.650E-01
DAV:   8    -0.122360629644E+04    0.50309E-03   -0.71605E-03   962   0.220E-02    0.456E-01
DAV:   9    -0.122360604811E+04    0.24832E-03   -0.43063E-03   871   0.165E-02    0.544E-01
DAV:  10    -0.122360562860E+04    0.41952E-03   -0.36382E-03   741   0.124E-02    0.429E-01
DAV:  11    -0.122360573807E+04   -0.10947E-03   -0.17640E-03   702   0.104E-02    0.515E-01
DAV:  12    -0.122360570380E+04    0.34274E-04   -0.10335E-03   650   0.752E-03    0.487E-01
DAV:  13    -0.122360587459E+04   -0.17080E-03   -0.56653E-04   663   0.581E-03    0.538E-01
DAV:  14    -0.122360593530E+04   -0.60710E-04   -0.30248E-04   637   0.459E-03
   8 F= -.12539823E+04 E0= -.12539208E+04  d E =0.103759E-02
 trial-energy change:    0.001038  1 .order    0.001834   -0.009285    0.012954
 step:   0.4327(harm=  0.3835)  dis= 0.00417  next Energy= -1253.985566 (dE=-0.227E-02)
 bond charge predicted
       N       E                     dE             d eps       ncg     rms          rms(c)
DAV:   1    -0.122360860049E+04   -0.27259E-02   -0.36598E-01  1157   0.367E-01    0.480E-01
DAV:   2    -0.122361400471E+04   -0.54042E-02   -0.21006E-02  1482   0.953E-02    0.942E-01
DAV:   3    -0.122361906933E+04   -0.50646E-02   -0.29953E-02  1417   0.970E-02    0.167E+00
DAV:   4    -0.122361184648E+04    0.72229E-02   -0.14053E-02  1339   0.712E-02    0.442E-01
DAV:   5    -0.122360887090E+04    0.29756E-02   -0.19637E-03  1001   0.203E-02    0.323E-01
DAV:   6    -0.122360856141E+04    0.30949E-03   -0.17197E-03   871   0.106E-02    0.264E-01
DAV:   7    -0.122360828214E+04    0.27927E-03   -0.19423E-03   806   0.116E-02    0.166E-01
DAV:   8    -0.122360820371E+04    0.78433E-04   -0.16929E-03   780   0.112E-02    0.114E-01
DAV:   9    -0.122360816427E+04    0.39437E-04   -0.13594E-03   650   0.832E-03    0.804E-02
DAV:  10    -0.122360815860E+04    0.56687E-05   -0.75764E-04   663   0.639E-03
   9 F= -.12539850E+04 E0= -.12539197E+04  d E =-.171264E-02
 curvature:  -0.28 expect dE=-0.186E-02 dE for cont linesearch -0.660E-04
 ZBRENT: interpolating
 opt :   0.3650  next Energy= -1253.985072 (dE=-0.178E-02)
 bond charge predicted
       N       E                     dE             d eps       ncg     rms          rms(c)
DAV:   1    -0.122360813303E+04    0.31238E-04   -0.75366E-03   962   0.504E-02    0.709E-02
DAV:   2    -0.122360851167E+04   -0.37864E-03   -0.21906E-03   858   0.180E-02    0.273E-01
DAV:   3    -0.122360863639E+04   -0.12471E-03   -0.33028E-03   910   0.226E-02    0.335E-01
DAV:   4    -0.122360825988E+04    0.37651E-03   -0.11062E-03   754   0.148E-02    0.114E-01
DAV:   5    -0.122360818841E+04    0.71463E-04   -0.27940E-04   663   0.542E-03
  10 F= -.12539851E+04 E0= -.12539190E+04  d E =-.181736E-02
 curvature:  -0.27 expect dE=-0.125E-02 dE for cont linesearch -0.230E-05
 trial: gam= 0.51326 g(F)=  0.467E-02 g(S)=  0.000E+00 ort =-0.357E-03 (trialstep = 0.808E+00)
 search vector abs. value=  0.820E-02
 bond charge predicted
       N       E                     dE             d eps       ncg     rms          rms(c)
DAV:   1    -0.122360779076E+04    0.46911E-03   -0.52867E-01  1170   0.388E-01    0.270E-01
DAV:   2    -0.122371104797E+04   -0.10326E+00   -0.10521E-01  1716   0.200E-01    0.706E+00
DAV:   3    -0.122364612936E+04    0.64919E-01   -0.41818E-02  1573   0.133E-01    0.901E-01
DAV:   4    -0.122361158537E+04    0.34544E-01   -0.15179E-02  1482   0.759E-02    0.504E-01
DAV:   5    -0.122360938921E+04    0.21962E-02   -0.15010E-03  1027   0.259E-02    0.312E-01
DAV:   6    -0.122360887066E+04    0.51856E-03   -0.97890E-04   897   0.176E-02    0.279E-01
DAV:   7    -0.122360891729E+04   -0.46635E-04   -0.69108E-04   819   0.170E-02
  11 F= -.12539873E+04 E0= -.12539188E+04  d E =-.218947E-02
 trial-energy change:   -0.002189  1 .order   -0.001155   -0.003626    0.001316
 step:   0.7052(harm=  0.5927)  dis= 0.00421  next Energy= -1253.987384 (dE=-0.227E-02)
 bond charge predicted
       N       E                     dE             d eps       ncg     rms          rms(c)
DAV:   1    -0.122360890715E+04   -0.36496E-04   -0.92149E-03  1105   0.513E-02    0.246E-01
DAV:   2    -0.122363127374E+04   -0.22367E-01   -0.80511E-02  1651   0.154E-01    0.123E+00
DAV:   3    -0.122361111034E+04    0.20163E-01   -0.48460E-02  1430   0.125E-01    0.526E-01
DAV:   4    -0.122360982582E+04    0.12845E-02   -0.35281E-03  1131   0.283E-02    0.444E-01
DAV:   5    -0.122360883226E+04    0.99356E-03   -0.23637E-03   845   0.227E-02    0.144E-01
DAV:   6    -0.122360877303E+04    0.59231E-04   -0.78546E-04   806   0.152E-02
  12 F= -.12539870E+04 E0= -.12539239E+04  d E =-.185821E-02
 curvature:  -0.39 expect dE=-0.143E-02 dE for cont linesearch -0.797E-05
 trial: gam= 0.72000 g(F)=  0.363E-02 g(S)=  0.000E+00 ort = 0.408E-03 (trialstep = 0.762E+00)
 search vector abs. value=  0.846E-02
 bond charge predicted
       N       E                     dE             d eps       ncg     rms          rms(c)
DAV:   1    -0.122360601193E+04    0.28203E-02   -0.49700E-01  1170   0.415E-01    0.312E-01
DAV:   2    -0.122372688399E+04   -0.12087E+00   -0.13123E-01  1807   0.224E-01    0.755E+00
DAV:   3    -0.122365000032E+04    0.76884E-01   -0.49335E-02  1599   0.146E-01    0.101E+00
DAV:   4    -0.122360987771E+04    0.40123E-01   -0.17327E-02  1495   0.810E-02    0.463E-01
DAV:   5    -0.122360785373E+04    0.20240E-02   -0.21558E-03  1014   0.273E-02    0.426E-01
DAV:   6    -0.122360709044E+04    0.76329E-03   -0.18961E-03   858   0.185E-02    0.268E-01
DAV:   7    -0.122360737188E+04   -0.28144E-03   -0.32055E-03   780   0.162E-02    0.411E-01
DAV:   8    -0.122360694744E+04    0.42443E-03   -0.30212E-03   884   0.156E-02    0.239E-01
DAV:   9    -0.122360683165E+04    0.11580E-03   -0.17782E-03   715   0.113E-02    0.278E-01
DAV:  10    -0.122360659541E+04    0.23624E-03   -0.13789E-03   676   0.825E-03    0.161E-01
DAV:  11    -0.122360658875E+04    0.66597E-05   -0.74334E-04   650   0.686E-03
  13 F= -.12539869E+04 E0= -.12539223E+04  d E =0.105350E-03
 trial-energy change:    0.000105  1 .order   -0.000308   -0.002990    0.002373
 step:   0.3379(harm=  0.4249)  dis= 0.00172  next Energy= -1253.987598 (dE=-0.627E-03)
 bond charge predicted
       N       E                     dE             d eps       ncg     rms          rms(c)
DAV:   1    -0.122360809181E+04   -0.14964E-02   -0.15408E-01  1157   0.230E-01    0.201E-01
DAV:   2    -0.122361863991E+04   -0.10548E-01   -0.39063E-02  1508   0.122E-01    0.908E-01
DAV:   3    -0.122360858136E+04    0.10059E-01   -0.26966E-02  1404   0.957E-02    0.226E-01
DAV:   4    -0.122360862496E+04   -0.43600E-04   -0.49256E-03   962   0.187E-02    0.284E-01
DAV:   5    -0.122360838991E+04    0.23506E-03   -0.46898E-03   754   0.140E-02    0.162E-01
DAV:   6    -0.122360833096E+04    0.58946E-04   -0.26396E-03   741   0.120E-02    0.161E-01
DAV:   7    -0.122360835117E+04   -0.20212E-04   -0.35231E-03   806   0.127E-02    0.166E-01
DAV:   8    -0.122360823658E+04    0.11459E-03   -0.19002E-03   780   0.125E-02    0.727E-02
DAV:   9    -0.122360823284E+04    0.37457E-05   -0.76403E-04   637   0.639E-03
  14 F= -.12539873E+04 E0= -.12539222E+04  d E =-.378071E-03
 curvature:  -0.43 expect dE=-0.822E-03 dE for cont linesearch -0.555E-05
 trial: gam= 0.43155 g(F)=  0.192E-02 g(S)=  0.000E+00 ort = 0.331E-03 (trialstep = 0.677E+00)
 search vector abs. value=  0.378E-02
 bond charge predicted
       N       E                     dE             d eps       ncg     rms          rms(c)
DAV:   1    -0.122360707635E+04    0.11602E-02   -0.14601E-01  1170   0.250E-01    0.147E-01
DAV:   2    -0.122362119885E+04   -0.14122E-01   -0.19946E-02  1625   0.101E-01    0.234E+00
DAV:   3    -0.122361085311E+04    0.10346E-01   -0.10392E-02  1300   0.622E-02    0.359E-01
DAV:   4    -0.122360771954E+04    0.31336E-02   -0.17759E-03  1131   0.271E-02    0.218E-01
DAV:   5    -0.122360743579E+04    0.28375E-03   -0.37893E-04   793   0.122E-02    0.151E-01
DAV:   6    -0.122360738804E+04    0.47757E-04   -0.45055E-04   845   0.953E-03
  15 F= -.12539881E+04 E0= -.12539210E+04  d E =-.707657E-03
 trial-energy change:   -0.000708  1 .order   -0.000592   -0.001398    0.000213
 step:   0.5878(harm=  0.5878)  dis= 0.00206  next Energy= -1253.987956 (dE=-0.607E-03)
 bond charge predicted
       N       E                     dE             d eps       ncg     rms          rms(c)
DAV:   1    -0.122360753303E+04   -0.97233E-04   -0.32846E-03   988   0.352E-02    0.936E-02
DAV:   2    -0.122360933906E+04   -0.18060E-02   -0.65494E-03  1144   0.352E-02    0.494E-01
DAV:   3    -0.122360791909E+04    0.14200E-02   -0.75526E-03  1092   0.400E-02    0.282E-01
DAV:   4    -0.122360757647E+04    0.34262E-03   -0.12060E-03   741   0.128E-02    0.107E-01
DAV:   5    -0.122360750561E+04    0.70856E-04   -0.67827E-04   650   0.562E-03
  16 F= -.12539880E+04 E0= -.12539227E+04  d E =-.619353E-03
 curvature:  -0.54 expect dE=-0.275E-03 dE for cont linesearch -0.213E-05
 ZBRENT: interpolating
 opt :   0.6129  next Energy= -1253.987970 (dE=-0.621E-03)
 bond charge predicted
       N       E                     dE             d eps       ncg     rms          rms(c)
DAV:   1    -0.122360742697E+04    0.14950E-03   -0.49105E-04   780   0.111E-02    0.391E-02
DAV:   2    -0.122360750518E+04   -0.78209E-04   -0.12238E-03   637   0.520E-03    0.133E-01
DAV:   3    -0.122360744872E+04    0.56461E-04   -0.16605E-03   650   0.568E-03    0.746E-02
DAV:   4    -0.122360745471E+04   -0.59837E-05   -0.77732E-04   663   0.546E-03
  17 F= -.12539880E+04 E0= -.12539218E+04  d E =-.626080E-03
 curvature:  -0.39 expect dE=-0.194E-03 dE for cont linesearch -0.506E-07
 trial: gam= 0.29914 g(F)=  0.500E-03 g(S)=  0.000E+00 ort =-0.222E-04 (trialstep = 0.664E+00)
 search vector abs. value=  0.825E-03
 bond charge predicted
       N       E                     dE             d eps       ncg     rms          rms(c)
DAV:   1    -0.122360693814E+04    0.51058E-03   -0.30227E-02  1144   0.113E-01    0.562E-02
DAV:   2    -0.122360824466E+04   -0.13065E-02   -0.27305E-03  1053   0.380E-02    0.576E-01
DAV:   3    -0.122360718092E+04    0.10637E-02   -0.14869E-03   936   0.233E-02    0.986E-02
DAV:   4    -0.122360705594E+04    0.12497E-03   -0.14543E-04   728   0.909E-03    0.959E-02
DAV:   5    -0.122360700988E+04    0.46061E-04   -0.10170E-04   637   0.545E-03
  18 F= -.12539880E+04 E0= -.12539221E+04  d E =-.267834E-04
 trial-energy change:   -0.000027  1 .order   -0.000052   -0.000328    0.000224
 step:   0.3948(harm=  0.3948)  dis= 0.00072  next Energy= -1253.988073 (dE=-0.974E-04)
 bond charge predicted
       N       E                     dE             d eps       ncg     rms          rms(c)
DAV:   1    -0.122360723350E+04   -0.17755E-03   -0.52830E-03  1105   0.470E-02    0.536E-02
DAV:   2    -0.122360803166E+04   -0.79817E-03   -0.18971E-03   897   0.253E-02    0.363E-01
DAV:   3    -0.122360742202E+04    0.60964E-03   -0.19786E-03   910   0.238E-02    0.166E-01
DAV:   4    -0.122360732112E+04    0.10090E-03   -0.17996E-04   676   0.816E-03    0.106E-01
DAV:   5    -0.122360726220E+04    0.58922E-04   -0.49003E-05   637   0.464E-03
  19 F= -.12539881E+04 E0= -.12539227E+04  d E =-.875036E-04
 curvature:  -0.33 expect dE=-0.865E-04 dE for cont linesearch -0.334E-07
 trial: gam= 0.55269 g(F)=  0.262E-03 g(S)=  0.000E+00 ort =-0.914E-05 (trialstep = 0.611E+00)
 search vector abs. value=  0.504E-03
 bond charge predicted
       N       E                     dE             d eps       ncg     rms          rms(c)
DAV:   1    -0.122360711836E+04    0.20276E-03   -0.12052E-02  1131   0.726E-02    0.641E-02
DAV:   2    -0.122360776061E+04   -0.64225E-03   -0.12318E-03   949   0.261E-02    0.392E-01
DAV:   3    -0.122360750714E+04    0.25347E-03   -0.16795E-03   910   0.236E-02    0.219E-01
DAV:   4    -0.122360721227E+04    0.29487E-03   -0.33744E-04   702   0.119E-02    0.101E-01
DAV:   5    -0.122360714088E+04    0.71388E-04   -0.44657E-05   637   0.499E-03
  20 F= -.12539881E+04 E0= -.12539228E+04  d E =-.804881E-04
 trial-energy change:   -0.000080  1 .order   -0.000094   -0.000157   -0.000031
 step:   0.7634(harm=  0.7634)  dis= 0.00126  next Energy= -1253.988161 (dE=-0.980E-04)
 bond charge predicted
       N       E                     dE             d eps       ncg     rms          rms(c)
DAV:   1    -0.122360708139E+04    0.13088E-03   -0.72620E-04   975   0.186E-02    0.262E-02
DAV:   2    -0.122360714641E+04   -0.65020E-04   -0.94389E-05   650   0.733E-03
  21 F= -.12539882E+04 E0= -.12539243E+04  d E =-.136593E-03
 curvature:  -0.75 expect dE=-0.301E-03 dE for cont linesearch -0.652E-09
 trial: gam= 1.42940 g(F)=  0.402E-03 g(S)=  0.000E+00 ort = 0.662E-06 (trialstep = 0.225E+00)
 search vector abs. value=  0.143E-02
 bond charge predicted
       N       E                     dE             d eps       ncg     rms          rms(c)
DAV:   1    -0.122360708310E+04   -0.17076E-05   -0.54225E-03  1144   0.484E-02    0.969E-02
DAV:   2    -0.122361174255E+04   -0.46595E-02   -0.10078E-02  1313   0.550E-02    0.697E-01
DAV:   3    -0.122360727304E+04    0.44695E-02   -0.82066E-03  1235   0.513E-02    0.122E-01
DAV:   4    -0.122360719371E+04    0.79335E-04   -0.31632E-04   767   0.112E-02
  22 F= -.12539884E+04 E0= -.12539247E+04  d E =-.158191E-03
 ZBRENT: can't locate minimum, use default step
 trial-energy change:   -0.000158  1 .order   -0.000087   -0.000091   -0.000083
 step:   0.9014(harm=  2.6322)  dis= 0.00175  next Energy= -1253.988730 (dE=-0.530E-03)
 bond charge predicted
       N       E                     dE             d eps       ncg     rms          rms(c)
DAV:   1    -0.122360679415E+04    0.47890E-03   -0.46998E-02  1170   0.141E-01    0.748E-02
DAV:   2    -0.122360705316E+04   -0.25901E-03   -0.20314E-03  1326   0.328E-02    0.203E-01
DAV:   3    -0.122360699662E+04    0.56543E-04   -0.14194E-03   832   0.156E-02    0.152E-01
DAV:   4    -0.122360691050E+04    0.86125E-04   -0.85662E-04   780   0.144E-02
  23 F= -.12539884E+04 E0= -.12539212E+04  d E =-.208346E-03
 curvature:  -2.26 expect dE=-0.169E-02 dE for cont linesearch -0.857E-05
 trial: gam= 1.54101 g(F)=  0.749E-03 g(S)=  0.000E+00 ort = 0.737E-04 (trialstep = 0.118E+00)
 search vector abs. value=  0.438E-02
 bond charge predicted
       N       E                     dE             d eps       ncg     rms          rms(c)
DAV:   1    -0.122360682782E+04    0.16880E-03   -0.45247E-03  1118   0.449E-02    0.557E-02
DAV:   2    -0.122360739904E+04   -0.57122E-03   -0.12766E-03   871   0.173E-02    0.375E-01
DAV:   3    -0.122360698812E+04    0.41092E-03   -0.16327E-03   845   0.198E-02    0.155E-01
DAV:   4    -0.122360687792E+04    0.11021E-03   -0.13898E-04   650   0.802E-03    0.851E-02
DAV:   5    -0.122360684225E+04    0.35668E-04   -0.47950E-05   650   0.447E-03
  24 F= -.12539884E+04 E0= -.12539230E+04  d E =-.230970E-04
 ZBRENT: can't locate minimum, use default step
 trial-energy change:   -0.000023  1 .order   -0.000091   -0.000102   -0.000080
 step:   0.4720(harm=  0.5614)  dis= 0.00203  next Energy= -1253.988650 (dE=-0.242E-03)
 bond charge predicted
       N       E                     dE             d eps       ncg     rms          rms(c)
DAV:   1    -0.122360664151E+04    0.23641E-03   -0.38795E-02  1170   0.133E-01    0.683E-02
DAV:   2    -0.122360683846E+04   -0.19695E-03   -0.10462E-03  1235   0.297E-02    0.171E-01
DAV:   3    -0.122360696693E+04   -0.12847E-03   -0.54004E-04   819   0.150E-02    0.239E-01
DAV:   4    -0.122360679695E+04    0.16998E-03   -0.48827E-04   715   0.132E-02    0.127E-01
DAV:   5    -0.122360673545E+04    0.61500E-04   -0.82856E-05   611   0.731E-03
  25 F= -.12539886E+04 E0= -.12539222E+04  d E =-.190868E-03
 curvature:  -1.37 expect dE=-0.838E-03 dE for cont linesearch -0.259E-04
 ZBRENT: increasing intervall
 opt :   1.1801  next Energy= -1253.988524 (dE=-0.116E-03)
 bond charge predicted
       N       E                     dE             d eps       ncg     rms          rms(c)
DAV:   1    -0.122360570923E+04    0.10877E-02   -0.15582E-01  1170   0.266E-01    0.135E-01
DAV:   2    -0.122360660935E+04   -0.90011E-03   -0.44991E-03  1690   0.600E-02    0.386E-01
DAV:   3    -0.122360721852E+04   -0.60917E-03   -0.33691E-03  1040   0.322E-02    0.414E-01
DAV:   4    -0.122360623001E+04    0.98851E-03   -0.22074E-03   975   0.275E-02    0.210E-01
DAV:   5    -0.122360618355E+04    0.46461E-04   -0.35477E-04   793   0.125E-02
  26 F= -.12539886E+04 E0= -.12539260E+04  d E =-.190591E-03
 curvature:   3.95 expect dE= 0.258E-01 dE for cont linesearch  0.430E-03
 ZBRENT: bracketing found
 ZBRENT: interpolating
 opt :   0.6802  next Energy= -1253.988629 (dE=-0.221E-03)
 bond charge predicted
       N       E                     dE             d eps       ncg     rms          rms(c)
DAV:   1    -0.122360646429E+04   -0.23428E-03   -0.78218E-02  1170   0.188E-01    0.120E-01
DAV:   2    -0.122360870015E+04   -0.22359E-02   -0.46736E-03  1703   0.564E-02    0.711E-01
DAV:   3    -0.122360766434E+04    0.10358E-02   -0.52431E-03  1196   0.433E-02    0.356E-01
DAV:   4    -0.122360658311E+04    0.10812E-02   -0.80252E-04   858   0.185E-02    0.324E-02
DAV:   5    -0.122360656376E+04    0.19346E-04   -0.75974E-05   689   0.794E-03
  27 F= -.12539886E+04 E0= -.12539244E+04  d E =-.181035E-03
 curvature:  -0.27 expect dE=-0.520E-03 dE for cont linesearch -0.217E-05
 ZBRENT: interpolating
 opt :   0.5986  next Energy= -1253.988596 (dE=-0.189E-03)
 bond charge predicted
       N       E                     dE             d eps       ncg     rms          rms(c)
DAV:   1    -0.122360662061E+04   -0.37503E-04   -0.20168E-03  1131   0.319E-02    0.710E-02
DAV:   2    -0.122360817937E+04   -0.15588E-02   -0.25137E-03   988   0.283E-02    0.490E-01
DAV:   3    -0.122360687902E+04    0.13003E-02   -0.32123E-03  1001   0.315E-02    0.193E-01
DAV:   4    -0.122360681885E+04    0.60174E-04   -0.28570E-04   676   0.959E-03
  28 F= -.12539888E+04 E0= -.12539259E+04  d E =-.372571E-03
 curvature:  -0.96 expect dE=-0.159E-02 dE for cont linesearch -0.128E-07
 trial: gam= 2.53263 g(F)=  0.165E-02 g(S)=  0.000E+00 ort =-0.762E-05 (trialstep = 0.316E-01)
 search vector abs. value=  0.297E-01
 bond charge predicted
       N       E                     dE             d eps       ncg     rms          rms(c)
DAV:   1    -0.122360663379E+04    0.24524E-03   -0.19711E-03  1131   0.308E-02    0.554E-02
DAV:   2    -0.122360747874E+04   -0.84495E-03   -0.12150E-03   936   0.220E-02    0.441E-01
DAV:   3    -0.122360686400E+04    0.61474E-03   -0.17106E-03   936   0.247E-02    0.188E-01
DAV:   4    -0.122360659568E+04    0.26832E-03   -0.15173E-04   689   0.806E-03    0.344E-02
DAV:   5    -0.122360658425E+04    0.11438E-04   -0.15836E-05   637   0.332E-03
  29 F= -.12539886E+04 E0= -.12539238E+04  d E =0.175648E-03
 ZBRENT: can't locate minimum, use default step
 trial-energy change:    0.000176  1 .order   -0.000047   -0.000052   -0.000042
 step:   0.1263(harm=  0.1730)  dis= 0.00111  next Energy= -1253.988922 (dE=-0.141E-03)
 bond charge predicted
       N       E                     dE             d eps       ncg     rms          rms(c)
DAV:   1    -0.122360648813E+04    0.10756E-03   -0.17346E-02  1170   0.900E-02    0.498E-02
DAV:   2    -0.122360701754E+04   -0.52941E-03   -0.12129E-03  1079   0.293E-02    0.350E-01
DAV:   3    -0.122360664669E+04    0.37085E-03   -0.98596E-04   858   0.198E-02    0.130E-01
DAV:   4    -0.122360656268E+04    0.84011E-04   -0.67639E-05   637   0.768E-03
  30 F= -.12539888E+04 E0= -.12539233E+04  d E =0.201933E-04
 curvature:  -1.40 expect dE=-0.168E-02 dE for cont linesearch -0.557E-04
 ZBRENT: increasing intervall
 opt :   0.3157  next Energy= -1253.988919 (dE=-0.138E-03)
 bond charge predicted
       N       E                     dE             d eps       ncg     rms          rms(c)
DAV:   1    -0.122360623636E+04    0.41033E-03   -0.69201E-02  1170   0.180E-01    0.104E-01
DAV:   2    -0.122360727447E+04   -0.10381E-02   -0.30713E-03  1521   0.495E-02    0.480E-01
DAV:   3    -0.122360717803E+04    0.96448E-04   -0.31233E-03  1001   0.309E-02    0.325E-01
DAV:   4    -0.122360649778E+04    0.68025E-03   -0.89594E-04   806   0.189E-02    0.144E-01
DAV:   5    -0.122360639878E+04    0.98991E-04   -0.11266E-04   676   0.699E-03
  31 F= -.12539890E+04 E0= -.12539234E+04  d E =-.170937E-03
 curvature:  -4.00 expect dE=-0.806E-02 dE for cont linesearch -0.141E-03
 ZBRENT: increasing intervall
 opt :   0.6945  next Energy= -1253.989315 (dE=-0.534E-03)
 bond charge predicted
       N       E                     dE             d eps       ncg     rms          rms(c)
DAV:   1    -0.122360528988E+04    0.12079E-02   -0.27429E-01  1170   0.359E-01    0.172E-01
DAV:   2    -0.122360641234E+04   -0.11225E-02   -0.73002E-03  1703   0.781E-02    0.416E-01
DAV:   3    -0.122360770117E+04   -0.12888E-02   -0.60270E-03  1209   0.441E-02    0.506E-01
DAV:   4    -0.122360588890E+04    0.18123E-02   -0.26160E-03   962   0.318E-02    0.129E-01
DAV:   5    -0.122360593600E+04   -0.47101E-04   -0.39058E-04   884   0.123E-02
  32 F= -.12539892E+04 E0= -.12539234E+04  d E =-.422031E-03
 curvature: -10.32 expect dE=-0.506E-01 dE for cont linesearch -0.443E-04
 trial: gam= 2.09865 g(F)=  0.490E-02 g(S)=  0.000E+00 ort = 0.357E-03 (trialstep = 0.355E-01)
 search vector abs. value=  0.137E+00
 bond charge predicted
       N       E                     dE             d eps       ncg     rms          rms(c)
DAV:   1    -0.122360573368E+04    0.15522E-03   -0.98106E-03  1144   0.692E-02    0.745E-02
DAV:   2    -0.122360638382E+04   -0.65013E-03   -0.21190E-03  1092   0.305E-02    0.332E-01
DAV:   3    -0.122360576105E+04    0.62277E-03   -0.17182E-03   949   0.250E-02    0.120E-01
DAV:   4    -0.122360573668E+04    0.24373E-04   -0.11709E-04   650   0.835E-03
  33 F= -.12539892E+04 E0= -.12539253E+04  d E =0.501838E-04
 trial-energy change:    0.000050  1 .order   -0.000176   -0.000201   -0.000150
 step:   0.1408(harm=  0.1408)  dis= 0.00266  next Energy= -1253.989600 (dE=-0.398E-03)
 bond charge predicted
       N       E                     dE             d eps       ncg     rms          rms(c)
DAV:   1    -0.122360542109E+04    0.33996E-03   -0.93466E-02  1170   0.208E-01    0.992E-02
DAV:   2    -0.122360713031E+04   -0.17092E-02   -0.45290E-03  1625   0.586E-02    0.652E-01
DAV:   3    -0.122360593209E+04    0.11982E-02   -0.25747E-03  1040   0.304E-02    0.200E-01
DAV:   4    -0.122360566191E+04    0.27017E-03   -0.19005E-04   715   0.111E-02    0.112E-01
DAV:   5    -0.122360561153E+04    0.50388E-04   -0.86020E-05   676   0.721E-03
  34 F= -.12539895E+04 E0= -.12539247E+04  d E =-.267708E-03
 curvature:  -1.71 expect dE=-0.418E-02 dE for cont linesearch -0.145E-03
 ZBRENT: increasing intervall
 opt :   0.3514  next Energy= -1253.990018 (dE=-0.815E-03)
 bond charge predicted
       N       E                     dE             d eps       ncg     rms          rms(c)
DAV:   1    -0.122360436698E+04    0.12949E-02   -0.37159E-01  1170   0.414E-01    0.182E-01
DAV:   2    -0.122360604326E+04   -0.16763E-02   -0.11612E-02  1729   0.934E-02    0.524E-01
DAV:   3    -0.122360643840E+04   -0.39514E-03   -0.65323E-03  1300   0.450E-02    0.435E-01
DAV:   4    -0.122360514619E+04    0.12922E-02   -0.13027E-03   988   0.264E-02    0.156E-01
DAV:   5    -0.122360507077E+04    0.75415E-04   -0.24229E-04   806   0.111E-02
  35 F= -.12539898E+04 E0= -.12539253E+04  d E =-.617702E-03
 curvature:  -6.45 expect dE=-0.120E-01 dE for cont linesearch -0.113E-03
 ZBRENT: increasing intervall
 opt :   0.7727  next Energy= -1253.989688 (dE=-0.486E-03)
 bond charge predicted
       N       E                     dE             d eps       ncg     rms          rms(c)
DAV:   1    -0.122359985356E+04    0.52926E-02   -0.14875E+00  1170   0.829E-01    0.368E-01
DAV:   2    -0.122360449245E+04   -0.46389E-02   -0.39622E-02  1716   0.179E-01    0.776E-01
DAV:   3    -0.122360900870E+04   -0.45163E-02   -0.24235E-02  1651   0.896E-02    0.785E-01
DAV:   4    -0.122360320030E+04    0.58084E-02   -0.75175E-03  1430   0.594E-02    0.359E-01
DAV:   5    -0.122360261977E+04    0.58053E-03   -0.12994E-03  1092   0.228E-02    0.274E-01
DAV:   6    -0.122360361077E+04   -0.99100E-03   -0.25925E-03  1482   0.347E-02    0.605E-01
DAV:   7    -0.122360270961E+04    0.90116E-03   -0.20132E-03  1209   0.334E-02    0.267E-01
DAV:   8    -0.122360227915E+04    0.43046E-03   -0.60997E-04   858   0.152E-02    0.572E-02
DAV:   9    -0.122360226198E+04    0.17168E-04   -0.42531E-04   689   0.986E-03
  36 F= -.12539888E+04 E0= -.12539245E+04  d E =0.391187E-03
 curvature:   7.51 expect dE= 0.912E-01 dE for cont linesearch  0.102E-02
 ZBRENT: bracketing found
 ZBRENT: interpolating
 opt :   0.4629  next Energy= -1253.989906 (dE=-0.704E-03)
 bond charge predicted
       N       E                     dE             d eps       ncg     rms          rms(c)
DAV:   1    -0.122360310332E+04   -0.82417E-03   -0.80930E-01  1170   0.613E-01    0.285E-01
DAV:   2    -0.122360681167E+04   -0.37083E-02   -0.23912E-02  1677   0.144E-01    0.640E-01
DAV:   3    -0.122361049400E+04   -0.36823E-02   -0.14281E-02  1508   0.688E-02    0.135E+00
DAV:   4    -0.122360732053E+04    0.31735E-02   -0.94006E-03  1287   0.580E-02    0.485E-01
DAV:   5    -0.122360504677E+04    0.22738E-02   -0.15350E-03  1222   0.262E-02    0.280E-01
DAV:   6    -0.122360469252E+04    0.35425E-03   -0.31945E-04   845   0.141E-02    0.165E-01
DAV:   7    -0.122360486946E+04   -0.17694E-03   -0.56213E-04   819   0.183E-02    0.306E-01
DAV:   8    -0.122360455527E+04    0.31419E-03   -0.47150E-04   767   0.121E-02    0.946E-02
DAV:   9    -0.122360450685E+04    0.48414E-04   -0.42721E-04   663   0.903E-03
  37 F= -.12539897E+04 E0= -.12539230E+04  d E =-.527505E-03
 curvature:  -0.64 expect dE=-0.327E-02 dE for cont linesearch -0.196E-04
 ZBRENT: interpolating
 opt :   0.3993  next Energy= -1253.989857 (dE=-0.655E-03)
 bond charge predicted
       N       E                     dE             d eps       ncg     rms          rms(c)
DAV:   1    -0.122360471828E+04   -0.16301E-03   -0.34110E-02  1170   0.125E-01    0.116E-01
DAV:   2    -0.122360673224E+04   -0.20140E-02   -0.53898E-03  1378   0.477E-02    0.532E-01
DAV:   3    -0.122360553550E+04    0.11967E-02   -0.70425E-03  1183   0.454E-02    0.414E-01
DAV:   4    -0.122360504506E+04    0.49045E-03   -0.83617E-04   858   0.186E-02    0.183E-01
DAV:   5    -0.122360488986E+04    0.15520E-03   -0.13111E-04   663   0.841E-03    0.140E-01
DAV:   6    -0.122360478572E+04    0.10414E-03   -0.95651E-05   663   0.770E-03    0.587E-02
DAV:   7    -0.122360484090E+04   -0.55178E-04   -0.49131E-05   637   0.522E-03
  38 F= -.12539898E+04 E0= -.12539233E+04  d E =-.591306E-03
 curvature:  -1.21 expect dE=-0.466E-02 dE for cont linesearch -0.161E-04
 ZBRENT: interpolating
 opt :   0.3770  next Energy= -1253.989809 (dE=-0.606E-03)
 bond charge predicted
       N       E                     dE             d eps       ncg     rms          rms(c)
DAV:   1    -0.122360484670E+04   -0.60982E-04   -0.41505E-03  1105   0.444E-02    0.385E-02
DAV:   2    -0.122360537311E+04   -0.52641E-03   -0.12159E-03   936   0.213E-02    0.288E-01
DAV:   3    -0.122360486697E+04    0.50613E-03   -0.97872E-04   832   0.188E-02    0.702E-02
DAV:   4    -0.122360484320E+04    0.23777E-04   -0.81236E-05   637   0.522E-03
  39 F= -.12539897E+04 E0= -.12539243E+04  d E =-.498763E-03
 curvature:  -1.13 expect dE=-0.331E-02 dE for cont linesearch -0.513E-06
 trial: gam= 0.53146 g(F)=  0.292E-02 g(S)=  0.000E+00 ort =-0.249E-03 (trialstep = 0.104E+00)
 search vector abs. value=  0.414E-01
 bond charge predicted
       N       E                     dE             d eps       ncg     rms          rms(c)
DAV:   1    -0.122360472815E+04    0.13883E-03   -0.25773E-02  1170   0.107E-01    0.855E-02
DAV:   2    -0.122360561765E+04   -0.88950E-03   -0.26658E-03  1378   0.367E-02    0.381E-01
DAV:   3    -0.122360534915E+04    0.26850E-03   -0.35674E-03  1014   0.319E-02    0.356E-01
DAV:   4    -0.122360493554E+04    0.41362E-03   -0.72441E-04   780   0.163E-02    0.136E-01
DAV:   5    -0.122360483303E+04    0.10251E-03   -0.90487E-05   663   0.679E-03    0.904E-02
DAV:   6    -0.122360478448E+04    0.48553E-04   -0.49181E-05   650   0.594E-03
  40 F= -.12539900E+04 E0= -.12539248E+04  d E =-.261841E-03
 ZBRENT: can't locate minimum, use default step
 trial-energy change:   -0.000262  1 .order   -0.000258   -0.000289   -0.000226
 step:   0.4153(harm=  0.4708)  dis= 0.00410  next Energy= -1253.990357 (dE=-0.656E-03)
 bond charge predicted
       N       E                     dE             d eps       ncg     rms          rms(c)
DAV:   1    -0.122360373631E+04    0.10967E-02   -0.23040E-01  1170   0.320E-01    0.174E-01
DAV:   2    -0.122360597717E+04   -0.22409E-02   -0.88469E-03  1729   0.811E-02    0.539E-01
DAV:   3    -0.122360600392E+04   -0.26756E-04   -0.80474E-03  1326   0.519E-02    0.686E-01
DAV:   4    -0.122360495286E+04    0.10511E-02   -0.29065E-03  1066   0.314E-02    0.295E-01
DAV:   5    -0.122360435358E+04    0.59927E-03   -0.51159E-04   884   0.171E-02    0.191E-01
DAV:   6    -0.122360418072E+04    0.17286E-03   -0.20826E-04   663   0.103E-02    0.859E-02
DAV:   7    -0.122360427647E+04   -0.95755E-04   -0.23981E-04   741   0.932E-03
  41 F= -.12539904E+04 E0= -.12539229E+04  d E =-.718009E-03
 curvature:  -3.42 expect dE=-0.894E-02 dE for cont linesearch -0.231E-05
 trial: gam= 0.68816 g(F)=  0.262E-02 g(S)=  0.000E+00 ort = 0.167E-03 (trialstep = 0.166E+00)
 search vector abs. value=  0.225E-01
 bond charge predicted
       N       E                     dE             d eps       ncg     rms          rms(c)
DAV:   1    -0.122360398738E+04    0.19334E-03   -0.36612E-02  1170   0.132E-01    0.958E-02
DAV:   2    -0.122360653943E+04   -0.25520E-02   -0.69823E-03  1651   0.603E-02    0.549E-01
DAV:   3    -0.122360421806E+04    0.23214E-02   -0.57256E-03  1209   0.432E-02    0.168E-01
DAV:   4    -0.122360408599E+04    0.13207E-03   -0.34241E-04   728   0.104E-02    0.833E-02
DAV:   5    -0.122360408842E+04   -0.24383E-05   -0.52422E-04   702   0.852E-03
  42 F= -.12539906E+04 E0= -.12539258E+04  d E =-.221186E-03
 trial-energy change:   -0.000221  1 .order   -0.000389   -0.000454   -0.000325
 step:   0.5855(harm=  0.5855)  dis= 0.00512  next Energy= -1253.991219 (dE=-0.799E-03)
 bond charge predicted
       N       E                     dE             d eps       ncg     rms          rms(c)
DAV:   1    -0.122360296083E+04    0.11252E-02   -0.23304E-01  1170   0.333E-01    0.179E-01
DAV:   2    -0.122360549587E+04   -0.25350E-02   -0.10826E-02  1729   0.857E-02    0.549E-01
DAV:   3    -0.122360480075E+04    0.69512E-03   -0.10314E-02  1378   0.555E-02    0.604E-01
DAV:   4    -0.122360401001E+04    0.79074E-03   -0.22406E-03   988   0.287E-02    0.277E-01
DAV:   5    -0.122360359669E+04    0.41331E-03   -0.31243E-04   806   0.126E-02    0.187E-01
DAV:   6    -0.122360342806E+04    0.16864E-03   -0.24880E-04   715   0.122E-02    0.101E-01
DAV:   7    -0.122360349149E+04   -0.63436E-04   -0.21085E-04   780   0.103E-02
  43 F= -.12539911E+04 E0= -.12539235E+04  d E =-.659670E-03
 curvature:  -2.41 expect dE=-0.768E-02 dE for cont linesearch -0.108E-04
 trial: gam= 1.08814 g(F)=  0.319E-02 g(S)=  0.000E+00 ort = 0.317E-03 (trialstep = 0.184E+00)
 search vector abs. value=  0.305E-01
 bond charge predicted
       N       E                     dE             d eps       ncg     rms          rms(c)
DAV:   1    -0.122360328068E+04    0.14737E-03   -0.64717E-02  1170   0.177E-01    0.826E-02
DAV:   2    -0.122360428663E+04   -0.10060E-02   -0.40468E-03  1677   0.550E-02    0.360E-01
DAV:   3    -0.122360356065E+04    0.72599E-03   -0.24656E-03  1053   0.288E-02    0.177E-01
DAV:   4    -0.122360341970E+04    0.14095E-03   -0.23241E-04   702   0.105E-02    0.795E-02
DAV:   5    -0.122360341177E+04    0.79268E-05   -0.18014E-04   611   0.638E-03
  44 F= -.12539914E+04 E0= -.12539259E+04  d E =-.364128E-03
 trial-energy change:   -0.000364  1 .order   -0.000553   -0.000651   -0.000455
 step:   0.6106(harm=  0.6106)  dis= 0.00626  next Energy= -1253.992158 (dE=-0.108E-02)
 bond charge predicted
       N       E                     dE             d eps       ncg     rms          rms(c)
DAV:   1    -0.122360208205E+04    0.13376E-02   -0.34550E-01  1170   0.409E-01    0.187E-01
DAV:   2    -0.122360556666E+04   -0.34846E-02   -0.14772E-02  1794   0.111E-01    0.590E-01
DAV:   3    -0.122360346446E+04    0.21022E-02   -0.98024E-03  1430   0.593E-02    0.428E-01
DAV:   4    -0.122360307648E+04    0.38798E-03   -0.98095E-04   884   0.219E-02    0.244E-01
DAV:   5    -0.122360292510E+04    0.15138E-03   -0.30058E-04   910   0.129E-02    0.195E-01
DAV:   6    -0.122360289434E+04    0.30757E-04   -0.70273E-04   975   0.192E-02
  45 F= -.12539920E+04 E0= -.12539240E+04  d E =-.877415E-03
 curvature:  -2.63 expect dE=-0.765E-02 dE for cont linesearch -0.147E-04
 trial: gam= 1.14169 g(F)=  0.291E-02 g(S)=  0.000E+00 ort =-0.413E-03 (trialstep = 0.197E+00)
 search vector abs. value=  0.417E-01
 bond charge predicted
       N       E                     dE             d eps       ncg     rms          rms(c)
DAV:   1    -0.122360238128E+04    0.54382E-03   -0.10430E-01  1170   0.226E-01    0.199E-01
DAV:   2    -0.122361360728E+04   -0.11226E-01   -0.33422E-02  1742   0.127E-01    0.101E+00
DAV:   3    -0.122360335529E+04    0.10252E-01   -0.25536E-02  1456   0.936E-02    0.260E-01
DAV:   4    -0.122360298943E+04    0.36586E-03   -0.16480E-03   975   0.196E-02    0.265E-01
DAV:   5    -0.122360261746E+04    0.37197E-03   -0.11015E-03   819   0.164E-02    0.140E-01
DAV:   6    -0.122360251639E+04    0.10108E-03   -0.10092E-03   689   0.130E-02    0.121E-01
DAV:   7    -0.122360250610E+04    0.10293E-04   -0.11345E-03   780   0.127E-02    0.123E-01
DAV:   8    -0.122360246774E+04    0.38360E-04   -0.77983E-04   741   0.123E-02
  46 F= -.12539920E+04 E0= -.12539250E+04  d E =-.613306E-04
 trial-energy change:   -0.000061  1 .order   -0.000346   -0.000480   -0.000213
 step:   0.3539(harm=  0.3539)  dis= 0.00409  next Energy= -1253.992387 (dE=-0.431E-03)
 bond charge predicted
       N       E                     dE             d eps       ncg     rms          rms(c)
DAV:   1    -0.122360195901E+04    0.54708E-03   -0.66593E-02  1170   0.180E-01    0.111E-01
DAV:   2    -0.122360519504E+04   -0.32360E-02   -0.85566E-03  1664   0.754E-02    0.627E-01
DAV:   3    -0.122360241154E+04    0.27835E-02   -0.70366E-03  1274   0.482E-02    0.221E-01
DAV:   4    -0.122360227999E+04    0.13155E-03   -0.34077E-04   780   0.123E-02    0.171E-01
DAV:   5    -0.122360218414E+04    0.95851E-04   -0.26510E-04   702   0.103E-02
  47 F= -.12539921E+04 E0= -.12539278E+04  d E =-.167459E-03
 curvature:  -3.03 expect dE=-0.812E-02 dE for cont linesearch -0.163E-06
 trial: gam= 0.52458 g(F)=  0.268E-02 g(S)=  0.000E+00 ort =-0.473E-04 (trialstep = 0.228E+00)
 search vector abs. value=  0.141E-01
 bond charge predicted
       N       E                     dE             d eps       ncg     rms          rms(c)
DAV:   1    -0.122360221415E+04    0.65837E-04   -0.52573E-02  1170   0.155E-01    0.108E-01
DAV:   2    -0.122360556393E+04   -0.33498E-02   -0.79581E-03  1560   0.613E-02    0.587E-01
DAV:   3    -0.122360235180E+04    0.32121E-02   -0.67383E-03  1248   0.485E-02    0.118E-01
DAV:   4    -0.122360230447E+04    0.47334E-04   -0.37386E-04   741   0.987E-03
  48 F= -.12539924E+04 E0= -.12539287E+04  d E =-.308842E-03
 trial-energy change:   -0.000309  1 .order   -0.000408   -0.000606   -0.000210
 step:   0.3498(harm=  0.3498)  dis= 0.00219  next Energy= -1253.992588 (dE=-0.464E-03)
 bond charge predicted
       N       E                     dE             d eps       ncg     rms          rms(c)
DAV:   1    -0.122360222220E+04    0.12960E-03   -0.15064E-02  1157   0.825E-02    0.102E-01
DAV:   2    -0.122360259864E+04   -0.37644E-03   -0.24528E-03   949   0.204E-02    0.278E-01
DAV:   3    -0.122360241769E+04    0.18095E-03   -0.35521E-03   845   0.155E-02    0.168E-01
DAV:   4    -0.122360228941E+04    0.12828E-03   -0.20220E-03   754   0.140E-02    0.122E-01
DAV:   5    -0.122360223113E+04    0.58276E-04   -0.14709E-03   650   0.713E-03    0.965E-02
DAV:   6    -0.122360221022E+04    0.20911E-04   -0.10989E-03   637   0.656E-03    0.785E-02
DAV:   7    -0.122360221751E+04   -0.72919E-05   -0.83145E-04   637   0.577E-03
  49 F= -.12539924E+04 E0= -.12539265E+04  d E =-.322391E-03
 curvature:  -0.93 expect dE=-0.141E-02 dE for cont linesearch -0.113E-05
 trial: gam= 0.56647 g(F)=  0.152E-02 g(S)=  0.000E+00 ort = 0.131E-03 (trialstep = 0.253E+00)
 search vector abs. value=  0.619E-02
 bond charge predicted
       N       E                     dE             d eps       ncg     rms          rms(c)
DAV:   1    -0.122360256862E+04   -0.35839E-03   -0.26293E-02  1170   0.113E-01    0.711E-02
DAV:   2    -0.122360317782E+04   -0.60920E-03   -0.28310E-03  1196   0.316E-02    0.367E-01
DAV:   3    -0.122360304381E+04    0.13401E-03   -0.30562E-03   962   0.249E-02    0.238E-01
DAV:   4    -0.122360269875E+04    0.34506E-03   -0.59373E-04   715   0.143E-02    0.110E-01
DAV:   5    -0.122360262904E+04    0.69714E-04   -0.12630E-04   663   0.581E-03
  50 F= -.12539928E+04 E0= -.12539273E+04  d E =-.329995E-03
 ZBRENT: can't locate minimum, use default step
 trial-energy change:   -0.000330  1 .order   -0.000362   -0.000403   -0.000320
 step:   1.0107(harm=  1.2229)  dis= 0.00424  next Energy= -1253.993422 (dE=-0.976E-03)
 bond charge predicted
       N       E                     dE             d eps       ncg     rms          rms(c)
DAV:   1    -0.122360284434E+04   -0.14558E-03   -0.23162E-01  1170   0.337E-01    0.153E-01
DAV:   2    -0.122360440791E+04   -0.15636E-02   -0.70884E-03  1703   0.780E-02    0.564E-01
DAV:   3    -0.122360405275E+04    0.35516E-03   -0.39508E-03  1170   0.380E-02    0.339E-01
DAV:   4    -0.122360337496E+04    0.67778E-03   -0.50351E-04   884   0.186E-02    0.154E-01
DAV:   5    -0.122360327086E+04    0.10410E-03   -0.19371E-04   754   0.950E-03    0.121E-01
DAV:   6    -0.122360322819E+04    0.42670E-04   -0.19631E-04   884   0.109E-02
  51 F= -.12539931E+04 E0= -.12539269E+04  d E =-.686643E-03
 curvature:  -2.26 expect dE=-0.688E-02 dE for cont linesearch -0.222E-04
 trial: gam= 2.30944 g(F)=  0.304E-02 g(S)=  0.000E+00 ort =-0.247E-03 (trialstep = 0.717E-01)
 search vector abs. value=  0.349E-01
 bond charge predicted
       N       E                     dE             d eps       ncg     rms          rms(c)
DAV:   1    -0.122360339957E+04   -0.12871E-03   -0.10151E-02  1118   0.722E-02    0.895E-02
DAV:   2    -0.122360370751E+04   -0.30794E-03   -0.65383E-04   949   0.203E-02    0.245E-01
DAV:   3    -0.122360354853E+04    0.15898E-03   -0.49128E-04   728   0.124E-02    0.118E-01
DAV:   4    -0.122360350107E+04    0.47466E-04   -0.39205E-04   702   0.105E-02
  52 F= -.12539934E+04 E0= -.12539284E+04  d E =-.247176E-03
 ZBRENT: can't locate minimum, use default step
 trial-energy change:   -0.000247  1 .order   -0.000156   -0.000177   -0.000135
 step:   0.2867(harm=  0.2982)  dis= 0.00316  next Energy= -1253.993501 (dE=-0.369E-03)
 bond charge predicted
       N       E                     dE             d eps       ncg     rms          rms(c)
DAV:   1    -0.122360365148E+04   -0.10295E-03   -0.92013E-02  1170   0.215E-01    0.120E-01
DAV:   2    -0.122360472654E+04   -0.10751E-02   -0.42424E-03  1677   0.538E-02    0.372E-01
DAV:   3    -0.122360449847E+04    0.22806E-03   -0.44407E-03  1170   0.381E-02    0.405E-01
DAV:   4    -0.122360393757E+04    0.56090E-03   -0.13100E-03   949   0.214E-02    0.148E-01
DAV:   5    -0.122360379345E+04    0.14413E-03   -0.29323E-04   650   0.912E-03    0.773E-02
DAV:   6    -0.122360378005E+04    0.13399E-04   -0.43518E-04   663   0.694E-03
  53 F= -.12539936E+04 E0= -.12539281E+04  d E =-.449628E-03
 curvature:  -2.10 expect dE=-0.380E-02 dE for cont linesearch -0.937E-04
 ZBRENT: increasing intervall
 opt :   0.7167  next Energy= -1253.993848 (dE=-0.716E-03)
 bond charge predicted
       N       E                     dE             d eps       ncg     rms          rms(c)
DAV:   1    -0.122360320987E+04    0.58358E-03   -0.36558E-01  1170   0.429E-01    0.206E-01
DAV:   2    -0.122360434705E+04   -0.11372E-02   -0.12827E-02  1742   0.970E-02    0.312E-01
DAV:   3    -0.122360600190E+04   -0.16549E-02   -0.99065E-03  1261   0.435E-02    0.761E-01
DAV:   4    -0.122360460506E+04    0.13968E-02   -0.61111E-03  1131   0.397E-02    0.304E-01
DAV:   5    -0.122360394961E+04    0.65544E-03   -0.12043E-03   884   0.160E-02    0.149E-01
DAV:   6    -0.122360386722E+04    0.82390E-04   -0.13883E-03   728   0.100E-02    0.121E-01
DAV:   7    -0.122360384883E+04    0.18395E-04   -0.92866E-04   819   0.106E-02
  54 F= -.12539935E+04 E0= -.12539276E+04  d E =-.368020E-03
 curvature:  -5.96 expect dE=-0.270E-01 dE for cont linesearch -0.334E-03
 ZBRENT: bracketing found
 ZBRENT: interpolating
 opt :   0.4895  next Energy= -1253.993709 (dE=-0.576E-03)
 bond charge predicted
       N       E                     dE             d eps       ncg     rms          rms(c)
DAV:   1    -0.122360372130E+04    0.14592E-03   -0.10376E-01  1170   0.228E-01    0.113E-01
DAV:   2    -0.122360424468E+04   -0.52338E-03   -0.56522E-03  1729   0.596E-02    0.252E-01
DAV:   3    -0.122360462120E+04   -0.37653E-03   -0.51700E-03  1014   0.256E-02    0.406E-01
DAV:   4    -0.122360414474E+04    0.47646E-03   -0.21561E-03   936   0.230E-02    0.171E-01
DAV:   5    -0.122360397382E+04    0.17092E-03   -0.52556E-04   689   0.918E-03    0.102E-01
DAV:   6    -0.122360392451E+04    0.49307E-04   -0.42040E-04   676   0.757E-03
  55 F= -.12539937E+04 E0= -.12539284E+04  d E =-.522719E-03
 curvature:  -2.26 expect dE=-0.514E-02 dE for cont linesearch -0.791E-05
 trial: gam= 0.39381 g(F)=  0.227E-02 g(S)=  0.000E+00 ort =-0.350E-03 (trialstep = 0.155E+00)
 search vector abs. value=  0.742E-02
 bond charge predicted
       N       E                     dE             d eps       ncg     rms          rms(c)
DAV:   1    -0.122360406757E+04   -0.93754E-04   -0.10902E-02  1118   0.693E-02    0.873E-02
DAV:   2    -0.122360488884E+04   -0.82127E-03   -0.25417E-03  1014   0.286E-02    0.390E-01
DAV:   3    -0.122360484846E+04    0.40386E-04   -0.40479E-03  1053   0.314E-02    0.409E-01
DAV:   4    -0.122360428587E+04    0.56259E-03   -0.10963E-03   819   0.171E-02    0.151E-01
DAV:   5    -0.122360413159E+04    0.15428E-03   -0.19049E-04   689   0.796E-03    0.830E-02
DAV:   6    -0.122360408345E+04    0.48143E-04   -0.63794E-05   650   0.637E-03
  56 F= -.12539940E+04 E0= -.12539288E+04  d E =-.307910E-03
 ZBRENT: can't locate minimum, use default step
 trial-energy change:   -0.000308  1 .order   -0.000291   -0.000331   -0.000251
 step:   0.6210(harm=  0.6408)  dis= 0.00353  next Energy= -1253.994339 (dE=-0.684E-03)
 bond charge predicted
       N       E                     dE             d eps       ncg     rms          rms(c)
DAV:   1    -0.122360377033E+04    0.36126E-03   -0.90570E-02  1170   0.203E-01    0.117E-01
DAV:   2    -0.122360429667E+04   -0.52634E-03   -0.27842E-03  1625   0.459E-02    0.275E-01
DAV:   3    -0.122360485596E+04   -0.55929E-03   -0.17842E-03   988   0.249E-02    0.469E-01
DAV:   4    -0.122360425966E+04    0.59631E-03   -0.14881E-03   910   0.220E-02    0.201E-01
DAV:   5    -0.122360405476E+04    0.20489E-03   -0.23354E-04   780   0.114E-02    0.152E-01
DAV:   6    -0.122360396690E+04    0.87868E-04   -0.85809E-05   650   0.720E-03
  57 F= -.12539943E+04 E0= -.12539294E+04  d E =-.639731E-03
 curvature:  -1.11 expect dE=-0.312E-02 dE for cont linesearch -0.136E-04
 trial: gam= 1.45013 g(F)=  0.281E-02 g(S)=  0.000E+00 ort =-0.301E-03 (trialstep = 0.105E+00)
 search vector abs. value=  0.175E-01
 bond charge predicted
       N       E                     dE             d eps       ncg     rms          rms(c)
DAV:   1    -0.122360394908E+04    0.10569E-03   -0.97453E-03  1131   0.712E-02    0.928E-02
DAV:   2    -0.122360475288E+04   -0.80381E-03   -0.16888E-03  1014   0.255E-02    0.398E-01
DAV:   3    -0.122360486664E+04   -0.11375E-03   -0.34559E-03  1027   0.309E-02    0.453E-01
DAV:   4    -0.122360419150E+04    0.67514E-03   -0.11524E-03   806   0.179E-02    0.168E-01
DAV:   5    -0.122360400245E+04    0.18905E-03   -0.19614E-04   663   0.832E-03    0.916E-02
DAV:   6    -0.122360394808E+04    0.54376E-04   -0.68713E-05   663   0.653E-03
  58 F= -.12539945E+04 E0= -.12539292E+04  d E =-.186298E-03
 ZBRENT: can't locate minimum, use default step
 trial-energy change:   -0.000186  1 .order   -0.000227   -0.000249   -0.000206
 step:   0.4203(harm=  0.6032)  dis= 0.00306  next Energy= -1253.995010 (dE=-0.715E-03)
 bond charge predicted
       N       E                     dE             d eps       ncg     rms          rms(c)
DAV:   1    -0.122360358295E+04    0.41950E-03   -0.89013E-02  1170   0.214E-01    0.108E-01
DAV:   2    -0.122360389879E+04   -0.31584E-03   -0.23225E-03  1677   0.455E-02    0.178E-01
DAV:   3    -0.122360395434E+04   -0.55550E-04   -0.52423E-04   923   0.159E-02
  59 F= -.12539951E+04 E0= -.12539323E+04  d E =-.808452E-03
 curvature:  -1.93 expect dE=-0.505E-02 dE for cont linesearch -0.118E-03
 ZBRENT: increasing intervall
 opt :   1.0509  next Energy= -1253.995174 (dE=-0.879E-03)
 bond charge predicted
       N       E                     dE             d eps       ncg     rms          rms(c)
DAV:   1    -0.122360172516E+04    0.21736E-02   -0.35579E-01  1170   0.430E-01    0.252E-01
DAV:   2    -0.122361235710E+04   -0.10632E-01   -0.32563E-02  1781   0.128E-01    0.846E-01
DAV:   3    -0.122360254739E+04    0.98097E-02   -0.27859E-02  1586   0.104E-01    0.246E-01
DAV:   4    -0.122360260163E+04   -0.54234E-04   -0.10256E-03  1053   0.193E-02    0.245E-01
DAV:   5    -0.122360245176E+04    0.14986E-03   -0.40961E-04   910   0.163E-02    0.166E-01
DAV:   6    -0.122360251798E+04   -0.66218E-04   -0.57930E-04   897   0.186E-02
  60 F= -.12539949E+04 E0= -.12539286E+04  d E =-.606426E-03
 curvature:  -1.15 expect dE=-0.927E-02 dE for cont linesearch -0.148E-03
 ZBRENT: bracketing found
 ZBRENT: interpolating
 opt :   0.6775  next Energy= -1253.995237 (dE=-0.941E-03)
 bond charge predicted
       N       E                     dE             d eps       ncg     rms          rms(c)
DAV:   1    -0.122360310027E+04   -0.64851E-03   -0.12672E-01  1170   0.256E-01    0.126E-01
DAV:   2    -0.122360399834E+04   -0.89807E-03   -0.58976E-03  1755   0.636E-02    0.374E-01
DAV:   3    -0.122360424048E+04   -0.24213E-03   -0.50336E-03  1235   0.365E-02    0.358E-01
DAV:   4    -0.122360339320E+04    0.84728E-03   -0.18062E-03   949   0.235E-02    0.106E-01
DAV:   5    -0.122360336894E+04    0.24258E-04   -0.57198E-04   663   0.822E-03
  61 F= -.12539950E+04 E0= -.12539307E+04  d E =-.726014E-03
 curvature:  -1.03 expect dE=-0.404E-02 dE for cont linesearch -0.791E-05
 trial: gam= 1.00955 g(F)=  0.391E-02 g(S)=  0.000E+00 ort =-0.366E-03 (trialstep = 0.183E+00)
 search vector abs. value=  0.210E-01
 bond charge predicted
       N       E                     dE             d eps       ncg     rms          rms(c)
DAV:   1    -0.122360339947E+04   -0.62761E-05   -0.42103E-02  1170   0.140E-01    0.894E-02
DAV:   2    -0.122360579627E+04   -0.23968E-02   -0.51555E-03  1430   0.487E-02    0.797E-01
DAV:   3    -0.122360399348E+04    0.18028E-02   -0.42668E-03  1144   0.370E-02    0.227E-01
DAV:   4    -0.122360354642E+04    0.44706E-03   -0.47142E-04   767   0.130E-02    0.878E-02
DAV:   5    -0.122360350035E+04    0.46066E-04   -0.43848E-04   650   0.698E-03
  62 F= -.12539955E+04 E0= -.12539307E+04  d E =-.521242E-03
 trial-energy change:   -0.000521  1 .order   -0.000547   -0.000647   -0.000446
 step:   0.5890(harm=  0.5890)  dis= 0.00435  next Energy= -1253.996063 (dE=-0.104E-02)
 bond charge predicted
       N       E                     dE             d eps       ncg     rms          rms(c)
DAV:   1    -0.122360269824E+04    0.84818E-03   -0.20295E-01  1170   0.307E-01    0.158E-01
DAV:   2    -0.122360358364E+04   -0.88539E-03   -0.89686E-03  1651   0.674E-02    0.341E-01
DAV:   3    -0.122360407655E+04   -0.49292E-03   -0.82574E-03  1118   0.329E-02    0.376E-01
DAV:   4    -0.122360327342E+04    0.80313E-03   -0.45005E-03  1066   0.313E-02    0.233E-01
DAV:   5    -0.122360306875E+04    0.20467E-03   -0.13450E-03   819   0.125E-02    0.124E-01
DAV:   6    -0.122360306078E+04    0.79728E-05   -0.11499E-03   741   0.943E-03    0.119E-01
DAV:   7    -0.122360305577E+04    0.50099E-05   -0.14097E-03   819   0.117E-02    0.117E-01
DAV:   8    -0.122360300536E+04    0.50406E-04   -0.10604E-03   663   0.881E-03    0.635E-02
DAV:   9    -0.122360301006E+04   -0.46990E-05   -0.80254E-04   637   0.487E-03
  63 F= -.12539959E+04 E0= -.12539306E+04  d E =-.897710E-03
 curvature:  -1.75 expect dE=-0.442E-02 dE for cont linesearch -0.145E-04
 trial: gam= 0.75968 g(F)=  0.252E-02 g(S)=  0.000E+00 ort =-0.417E-03 (trialstep = 0.264E+00)
 search vector abs. value=  0.140E-01
 bond charge predicted
       N       E                     dE             d eps       ncg     rms          rms(c)
DAV:   1    -0.122360289621E+04    0.10915E-03   -0.64927E-02  1170   0.171E-01    0.886E-02
DAV:   2    -0.122360320372E+04   -0.30750E-03   -0.32772E-03  1391   0.377E-02    0.197E-01
DAV:   3    -0.122360320491E+04   -0.11918E-05   -0.27701E-03   819   0.139E-02    0.190E-01
DAV:   4    -0.122360323764E+04   -0.32728E-04   -0.17954E-03   793   0.158E-02    0.192E-01
DAV:   5    -0.122360305655E+04    0.18109E-03   -0.52956E-04   702   0.110E-02    0.703E-02
DAV:   6    -0.122360303949E+04    0.17060E-04   -0.13030E-04   637   0.567E-03
  64 F= -.12539963E+04 E0= -.12539312E+04  d E =-.376591E-03
 trial-energy change:   -0.000377  1 .order   -0.000378   -0.000583   -0.000173
 step:   0.3753(harm=  0.3753)  dis= 0.00221  next Energy= -1253.996333 (dE=-0.414E-03)
 bond charge predicted
       N       E                     dE             d eps       ncg     rms          rms(c)
DAV:   1    -0.122360288954E+04    0.16701E-03   -0.10968E-02  1131   0.712E-02    0.596E-02
DAV:   2    -0.122360305260E+04   -0.16306E-03   -0.49720E-04   858   0.171E-02    0.172E-01
DAV:   3    -0.122360297617E+04    0.76429E-04   -0.36193E-04   663   0.827E-03
  65 F= -.12539964E+04 E0= -.12539299E+04  d E =-.459495E-03
 curvature:  -1.19 expect dE=-0.194E-02 dE for cont linesearch -0.136E-06
 trial: gam= 0.41150 g(F)=  0.163E-02 g(S)=  0.000E+00 ort = 0.400E-04 (trialstep = 0.286E+00)
 search vector abs. value=  0.404E-02
 bond charge predicted
       N       E                     dE             d eps       ncg     rms          rms(c)
DAV:   1    -0.122360334879E+04   -0.29620E-03   -0.25143E-02  1157   0.109E-01    0.123E-01
DAV:   2    -0.122361070926E+04   -0.73605E-02   -0.77700E-03  1365   0.563E-02    0.160E+00
DAV:   3    -0.122360561742E+04    0.50918E-02   -0.86509E-03  1248   0.551E-02    0.343E-01
DAV:   4    -0.122360427126E+04    0.13462E-02   -0.10938E-03  1027   0.228E-02    0.379E-01
DAV:   5    -0.122360363206E+04    0.63920E-03   -0.41549E-04   741   0.136E-02    0.103E-01
DAV:   6    -0.122360358252E+04    0.49540E-04   -0.28594E-04   637   0.918E-03
  66 F= -.12539969E+04 E0= -.12539311E+04  d E =-.533903E-03
 trial-energy change:   -0.000534  1 .order   -0.000362   -0.000471   -0.000253
 step:   0.6181(harm=  0.6181)  dis= 0.00222  next Energy= -1253.996886 (dE=-0.508E-03)
 bond charge predicted
       N       E                     dE             d eps       ncg     rms          rms(c)
DAV:   1    -0.122360351837E+04    0.11369E-03   -0.33347E-02  1170   0.125E-01    0.806E-02
DAV:   2    -0.122360384493E+04   -0.32656E-03   -0.30781E-03  1066   0.283E-02    0.257E-01
DAV:   3    -0.122360361349E+04    0.23144E-03   -0.25861E-03   767   0.123E-02    0.844E-02
DAV:   4    -0.122360363320E+04   -0.19705E-04   -0.18190E-03   754   0.977E-03    0.156E-01
DAV:   5    -0.122360360049E+04    0.32708E-04   -0.15532E-03   689   0.910E-03    0.131E-01
DAV:   6    -0.122360355112E+04    0.49375E-04   -0.62480E-04   702   0.984E-03
  67 F= -.12539968E+04 E0= -.12539303E+04  d E =-.419427E-03
 curvature:  -0.76 expect dE=-0.109E-02 dE for cont linesearch -0.374E-05
 trial: gam= 1.02270 g(F)=  0.144E-02 g(S)=  0.000E+00 ort =-0.141E-03 (trialstep = 0.265E+00)
 search vector abs. value=  0.537E-02
 bond charge predicted
       N       E                     dE             d eps       ncg     rms          rms(c)
DAV:   1    -0.122360388858E+04   -0.28809E-03   -0.27098E-02  1157   0.113E-01    0.684E-02
DAV:   2    -0.122360442399E+04   -0.53541E-03   -0.16629E-03  1001   0.291E-02    0.339E-01
DAV:   3    -0.122360430010E+04    0.12389E-03   -0.19372E-03  1014   0.237E-02    0.229E-01
DAV:   4    -0.122360401783E+04    0.28227E-03   -0.48699E-04   715   0.138E-02    0.112E-01
DAV:   5    -0.122360394858E+04    0.69247E-04   -0.64215E-05   663   0.560E-03
  68 F= -.12539970E+04 E0= -.12539318E+04  d E =-.205416E-03
 trial-energy change:   -0.000205  1 .order   -0.000261   -0.000344   -0.000179
 step:   0.5536(harm=  0.5536)  dis= 0.00231  next Energy= -1253.997157 (dE=-0.359E-03)
 bond charge predicted
       N       E                     dE             d eps       ncg     rms          rms(c)
DAV:   1    -0.122360414817E+04   -0.13035E-03   -0.31857E-02  1157   0.123E-01    0.625E-02
DAV:   2    -0.122360425585E+04   -0.10767E-03   -0.99417E-04  1157   0.307E-02    0.114E-01
DAV:   3    -0.122360427141E+04   -0.15561E-04   -0.29000E-04   741   0.110E-02
  69 F= -.12539971E+04 E0= -.12539299E+04  d E =-.319461E-03
 curvature:  -1.15 expect dE=-0.225E-02 dE for cont linesearch -0.602E-06
 trial: gam= 1.11490 g(F)=  0.196E-02 g(S)=  0.000E+00 ort =-0.531E-04 (trialstep = 0.203E+00)
 search vector abs. value=  0.852E-02
 bond charge predicted
       N       E                     dE             d eps       ncg     rms          rms(c)
DAV:   1    -0.122360468234E+04   -0.42649E-03   -0.23974E-02  1170   0.106E-01    0.136E-01
DAV:   2    -0.122362005116E+04   -0.15369E-01   -0.15075E-02  1430   0.711E-02    0.249E+00
DAV:   3    -0.122360943872E+04    0.10612E-01   -0.13435E-02  1365   0.694E-02    0.398E-01
DAV:   4    -0.122360523735E+04    0.42014E-02   -0.21603E-03  1183   0.309E-02    0.246E-01
DAV:   5    -0.122360478903E+04    0.44832E-03   -0.48020E-04   728   0.140E-02    0.104E-01
DAV:   6    -0.122360477838E+04    0.10652E-04   -0.41385E-04   650   0.764E-03
  70 F= -.12539975E+04 E0= -.12539323E+04  d E =-.366566E-03
 trial-energy change:   -0.000367  1 .order   -0.000332   -0.000387   -0.000276
 step:   0.7086(harm=  0.7086)  dis= 0.00432  next Energy= -1253.997792 (dE=-0.675E-03)
 bond charge predicted
       N       E                     dE             d eps       ncg     rms          rms(c)
DAV:   1    -0.122360499111E+04   -0.20208E-03   -0.14603E-01  1170   0.258E-01    0.137E-01
DAV:   2    -0.122360777516E+04   -0.27840E-02   -0.97420E-03  1729   0.762E-02    0.558E-01
DAV:   3    -0.122360561263E+04    0.21625E-02   -0.77241E-03  1261   0.489E-02    0.271E-01
DAV:   4    -0.122360541773E+04    0.19490E-03   -0.61711E-04   819   0.146E-02    0.172E-01
DAV:   5    -0.122360538666E+04    0.31071E-04   -0.46085E-04   715   0.107E-02
  71 F= -.12539977E+04 E0= -.12539337E+04  d E =-.628499E-03
 curvature:  -1.59 expect dE=-0.308E-02 dE for cont linesearch -0.596E-06
 trial: gam= 1.00719 g(F)=  0.194E-02 g(S)=  0.000E+00 ort =-0.566E-04 (trialstep = 0.248E+00)
 search vector abs. value=  0.105E-01
 bond charge predicted
       N       E                     dE             d eps       ncg     rms          rms(c)
DAV:   1    -0.122360542446E+04   -0.67354E-05   -0.45893E-02  1170   0.142E-01    0.963E-02
DAV:   2    -0.122360685438E+04   -0.14299E-02   -0.42524E-03  1417   0.450E-02    0.430E-01
DAV:   3    -0.122360568113E+04    0.11733E-02   -0.43068E-03  1118   0.372E-02    0.211E-01
DAV:   4    -0.122360551206E+04    0.16907E-03   -0.58852E-04   767   0.138E-02    0.110E-01
DAV:   5    -0.122360546975E+04    0.42305E-04   -0.49150E-04   637   0.682E-03
  72 F= -.12539978E+04 E0= -.12539328E+04  d E =-.644096E-04
 trial-energy change:   -0.000064  1 .order   -0.000281   -0.000467   -0.000095
 step:   0.3111(harm=  0.3111)  dis= 0.00191  next Energy= -1253.998039 (dE=-0.293E-03)
 bond charge predicted
       N       E                     dE             d eps       ncg     rms          rms(c)
DAV:   1    -0.122360545975E+04    0.52311E-04   -0.34062E-03  1118   0.367E-02    0.691E-02
DAV:   2    -0.122360634467E+04   -0.88493E-03   -0.36650E-03  1014   0.258E-02    0.376E-01
DAV:   3    -0.122360570768E+04    0.63699E-03   -0.42906E-03   988   0.288E-02    0.223E-01
DAV:   4    -0.122360551123E+04    0.19645E-03   -0.73971E-04   689   0.101E-02    0.944E-02
DAV:   5    -0.122360546781E+04    0.43422E-04   -0.42747E-04   650   0.530E-03
  73 F= -.12539978E+04 E0= -.12539327E+04  d E =-.578025E-04
 curvature:  -0.86 expect dE=-0.923E-03 dE for cont linesearch -0.993E-07
 trial: gam= 0.38888 g(F)=  0.107E-02 g(S)=  0.000E+00 ort =-0.347E-04 (trialstep = 0.260E+00)
 search vector abs. value=  0.263E-02
 bond charge predicted
       N       E                     dE             d eps       ncg     rms          rms(c)
DAV:   1    -0.122360541978E+04    0.91456E-04   -0.13436E-02  1131   0.807E-02    0.471E-02
DAV:   2    -0.122360565569E+04   -0.23592E-03   -0.98004E-04   923   0.219E-02    0.189E-01
DAV:   3    -0.122360553544E+04    0.12025E-03   -0.10104E-03   845   0.183E-02    0.145E-01
DAV:   4    -0.122360545302E+04    0.82421E-04   -0.21668E-04   702   0.902E-03
  74 F= -.12539980E+04 E0= -.12539335E+04  d E =-.199720E-03
 trial-energy change:   -0.000200  1 .order   -0.000218   -0.000275   -0.000162
 step:   0.6368(harm=  0.6368)  dis= 0.00217  next Energy= -1253.998139 (dE=-0.336E-03)
 bond charge predicted
       N       E                     dE             d eps       ncg     rms          rms(c)
DAV:   1    -0.122360518838E+04    0.34706E-03   -0.27924E-02  1170   0.116E-01    0.676E-02
DAV:   2    -0.122360532985E+04   -0.14147E-03   -0.10623E-03  1001   0.283E-02    0.140E-01
DAV:   3    -0.122360543377E+04   -0.10392E-03   -0.10326E-03   871   0.179E-02    0.184E-01
DAV:   4    -0.122360526109E+04    0.17268E-03   -0.59659E-04   767   0.149E-02    0.842E-02
DAV:   5    -0.122360523365E+04    0.27442E-04   -0.15293E-04   650   0.589E-03
  75 F= -.12539981E+04 E0= -.12539332E+04  d E =-.290870E-03
 curvature:  -0.79 expect dE=-0.905E-03 dE for cont linesearch -0.454E-06
 trial: gam= 1.08854 g(F)=  0.114E-02 g(S)=  0.000E+00 ort =-0.388E-04 (trialstep = 0.211E+00)
 search vector abs. value=  0.417E-02
 bond charge predicted
       N       E                     dE             d eps       ncg     rms          rms(c)
DAV:   1    -0.122360504035E+04    0.22074E-03   -0.13355E-02  1144   0.830E-02    0.529E-02
DAV:   2    -0.122360524930E+04   -0.20895E-03   -0.88332E-04   936   0.224E-02    0.194E-01
DAV:   3    -0.122360520699E+04    0.42318E-04   -0.10293E-03   858   0.188E-02    0.160E-01
DAV:   4    -0.122360507188E+04    0.13511E-03   -0.26959E-04   715   0.110E-02    0.476E-02
DAV:   5    -0.122360506953E+04    0.23536E-05   -0.12371E-04   637   0.434E-03
  76 F= -.12539983E+04 E0= -.12539331E+04  d E =-.171516E-03
 trial-energy change:   -0.000172  1 .order   -0.000174   -0.000233   -0.000116
 step:   0.4215(harm=  0.4215)  dis= 0.00145  next Energy= -1253.998326 (dE=-0.232E-03)
 bond charge predicted
       N       E                     dE             d eps       ncg     rms          rms(c)
DAV:   1    -0.122360477552E+04    0.29636E-03   -0.13223E-02  1144   0.823E-02    0.584E-02
DAV:   2    -0.122360490215E+04   -0.12663E-03   -0.14823E-03   884   0.204E-02    0.150E-01
DAV:   3    -0.122360485114E+04    0.51016E-04   -0.18086E-03   702   0.115E-02    0.104E-01
DAV:   4    -0.122360485212E+04   -0.97923E-06   -0.10123E-03   728   0.109E-02    0.104E-01
DAV:   5    -0.122360479873E+04    0.53383E-04   -0.40020E-04   663   0.649E-03
  77 F= -.12539983E+04 E0= -.12539334E+04  d E =-.234600E-03
 curvature:  -0.80 expect dE=-0.689E-03 dE for cont linesearch -0.191E-05
 trial: gam= 0.55693 g(F)=  0.862E-03 g(S)=  0.000E+00 ort = 0.100E-03 (trialstep = 0.253E+00)
 search vector abs. value=  0.227E-02
 bond charge predicted
       N       E                     dE             d eps       ncg     rms          rms(c)
DAV:   1    -0.122360472160E+04    0.13052E-03   -0.10524E-02  1118   0.709E-02    0.593E-02
DAV:   2    -0.122360530205E+04   -0.58046E-03   -0.21266E-03   936   0.255E-02    0.362E-01
DAV:   3    -0.122360493730E+04    0.36475E-03   -0.22491E-03   923   0.235E-02    0.179E-01
DAV:   4    -0.122360476570E+04    0.17160E-03   -0.33591E-04   715   0.103E-02    0.654E-02
DAV:   5    -0.122360473606E+04    0.29637E-04   -0.18271E-04   637   0.450E-03
  78 F= -.12539985E+04 E0= -.12539333E+04  d E =-.183774E-03
 trial-energy change:   -0.000184  1 .order   -0.000186   -0.000233   -0.000139
 step:   0.6312(harm=  0.6312)  dis= 0.00191  next Energy= -1253.998619 (dE=-0.290E-03)
 bond charge predicted
       N       E                     dE             d eps       ncg     rms          rms(c)
DAV:   1    -0.122360442384E+04    0.34186E-03   -0.22828E-02  1157   0.105E-01    0.610E-02
DAV:   2    -0.122360454899E+04   -0.12516E-03   -0.12489E-03   962   0.254E-02    0.134E-01
DAV:   3    -0.122360449777E+04    0.51225E-04   -0.10321E-03   689   0.886E-03    0.800E-02
DAV:   4    -0.122360453799E+04   -0.40220E-04   -0.78704E-04   650   0.846E-03
  79 F= -.12539987E+04 E0= -.12539351E+04  d E =-.353563E-03
 curvature:  -0.78 expect dE=-0.830E-03 dE for cont linesearch -0.334E-09
 trial: gam= 1.25030 g(F)=  0.107E-02 g(S)=  0.000E+00 ort =-0.986E-06 (trialstep = 0.162E+00)
 search vector abs. value=  0.461E-02
 bond charge predicted
       N       E                     dE             d eps       ncg     rms          rms(c)
[...]
 377 F= -.12540503E+04 E0= -.12539863E+04  d E =-.231552E-03
 curvature:  -4.51 expect dE=-0.101E-01 dE for cont linesearch -0.115E-04
 trial: gam= 2.10099 g(F)=  0.224E-02 g(S)=  0.000E+00 ort =-0.177E-03 (trialstep = 0.801E-01)
 search vector abs. value=  0.554E-01
 bond charge predicted
       N       E                     dE             d eps       ncg     rms          rms(c)
DAV:   1    -0.122359550734E+04    0.10454E-03   -0.19131E-02  1144   0.964E-02    0.921E-02
DAV:   2    -0.122359696023E+04   -0.14529E-02   -0.37594E-03  1287   0.423E-02    0.418E-01
DAV:   3    -0.122359572067E+04    0.12396E-02   -0.47417E-03  1248   0.421E-02    0.202E-01
DAV:   4    -0.122359553149E+04    0.18917E-03   -0.52344E-04   741   0.129E-02    0.812E-02
DAV:   5    -0.122359550973E+04    0.21763E-04   -0.38291E-04   650   0.602E-03
 378 F= -.12540504E+04 E0= -.12539865E+04  d E =-.776137E-04
 ZBRENT: can't locate minimum, use default step
 trial-energy change:   -0.000078  1 .order   -0.000138   -0.000150   -0.000126
 step:   0.3202(harm=  0.4921)  dis= 0.00523  next Energy= -1254.050745 (dE=-0.461E-03)
 bond charge predicted
       N       E                     dE             d eps       ncg     rms          rms(c)
DAV:   1    -0.122359504152E+04    0.48998E-03   -0.17616E-01  1170   0.290E-01    0.122E-01
DAV:   2    -0.122359638695E+04   -0.13454E-02   -0.57680E-03  1729   0.717E-02    0.379E-01
DAV:   3    -0.122359553445E+04    0.85250E-03   -0.35362E-03  1261   0.392E-02    0.229E-01
DAV:   4    -0.122359538560E+04    0.14885E-03   -0.29792E-04   845   0.138E-02    0.130E-01
DAV:   5    -0.122359535305E+04    0.32544E-04   -0.11686E-04   728   0.852E-03
 379 F= -.12540506E+04 E0= -.12539871E+04  d E =-.328618E-03
 curvature:  -6.01 expect dE=-0.953E-02 dE for cont linesearch -0.719E-04
 ZBRENT: increasing intervall
 opt :   0.8005  next Energy= -1254.050640 (dE=-0.357E-03)
 bond charge predicted
       N       E                     dE             d eps       ncg     rms          rms(c)
DAV:   1    -0.122359336454E+04    0.20211E-02   -0.70318E-01  1170   0.580E-01    0.257E-01
DAV:   2    -0.122359932697E+04   -0.59624E-02   -0.30707E-02  1781   0.146E-01    0.688E-01
DAV:   3    -0.122359543399E+04    0.38930E-02   -0.24705E-02  1599   0.914E-02    0.492E-01
DAV:   4    -0.122359515155E+04    0.28244E-03   -0.43669E-03  1157   0.357E-02    0.341E-01
DAV:   5    -0.122359470046E+04    0.45109E-03   -0.12621E-03  1027   0.166E-02    0.231E-01
DAV:   6    -0.122359452603E+04    0.17443E-03   -0.20973E-03  1040   0.223E-02    0.194E-01
DAV:   7    -0.122359447550E+04    0.50527E-04   -0.27398E-03   910   0.143E-02    0.183E-01
DAV:   8    -0.122359435420E+04    0.12130E-03   -0.19562E-03   741   0.124E-02    0.903E-02
DAV:   9    -0.122359434533E+04    0.88700E-05   -0.12531E-03   637   0.880E-03    0.101E-01
DAV:  10    -0.122359430052E+04    0.44810E-04   -0.77919E-04   637   0.662E-03
 380 F= -.12540504E+04 E0= -.12539863E+04  d E =-.986060E-04
 curvature:  -2.38 expect dE=-0.820E-02 dE for cont linesearch -0.711E-04
 ZBRENT: bracketing found
 ZBRENT: interpolating
 opt :   0.5063  next Energy= -1254.050688 (dE=-0.404E-03)
 bond charge predicted
       N       E                     dE             d eps       ncg     rms          rms(c)
DAV:   1    -0.122359459819E+04   -0.25287E-03   -0.26562E-01  1170   0.358E-01    0.131E-01
DAV:   2    -0.122359510217E+04   -0.50398E-03   -0.59404E-03  1729   0.741E-02    0.138E-01
DAV:   3    -0.122359616671E+04   -0.10645E-02   -0.31548E-03  1235   0.370E-02    0.394E-01
DAV:   4    -0.122359505322E+04    0.11135E-02   -0.20040E-03  1079   0.291E-02    0.866E-02
DAV:   5    -0.122359508995E+04   -0.36735E-04   -0.18142E-04   780   0.940E-03
 381 F= -.12540507E+04 E0= -.12539866E+04  d E =-.382984E-03
 curvature:  -2.53 expect dE=-0.563E-02 dE for cont linesearch -0.174E-04
 ZBRENT: interpolating
 opt :   0.4260  next Energy= -1254.050691 (dE=-0.408E-03)
 bond charge predicted
       N       E                     dE             d eps       ncg     rms          rms(c)
DAV:   1    -0.122359512856E+04   -0.75339E-04   -0.18514E-02  1144   0.957E-02    0.443E-02
DAV:   2    -0.122359524315E+04   -0.11459E-03   -0.48478E-04  1001   0.215E-02    0.141E-01
DAV:   3    -0.122359516580E+04    0.77346E-04   -0.30242E-04   780   0.141E-02
 382 F= -.12540506E+04 E0= -.12539878E+04  d E =-.321779E-03
 curvature:  -3.60 expect dE=-0.633E-02 dE for cont linesearch -0.251E-06
 trial: gam= 0.24336 g(F)=  0.176E-02 g(S)=  0.000E+00 ort = 0.621E-04 (trialstep = 0.149E+00)
 search vector abs. value=  0.507E-02
 bond charge predicted
       N       E                     dE             d eps       ncg     rms          rms(c)
DAV:   1    -0.122359526962E+04   -0.26473E-04   -0.73113E-03  1118   0.593E-02    0.512E-02
DAV:   2    -0.122359649783E+04   -0.12282E-02   -0.25419E-03  1170   0.326E-02    0.387E-01
DAV:   3    -0.122359531516E+04    0.11827E-02   -0.21299E-03  1118   0.304E-02    0.577E-02
DAV:   4    -0.122359530717E+04    0.79950E-05   -0.82838E-05   637   0.632E-03
 383 F= -.12540508E+04 E0= -.12539875E+04  d E =-.206819E-03
 trial-energy change:   -0.000207  1 .order   -0.000216   -0.000265   -0.000168
 step:   0.4082(harm=  0.4082)  dis= 0.00228  next Energy= -1254.050967 (dE=-0.362E-03)
 bond charge predicted
       N       E                     dE             d eps       ncg     rms          rms(c)
DAV:   1    -0.122359525595E+04    0.59213E-04   -0.21761E-02  1144   0.101E-01    0.454E-02
DAV:   2    -0.122359538737E+04   -0.13142E-03   -0.74392E-04   975   0.238E-02    0.138E-01
DAV:   3    -0.122359532296E+04    0.64407E-04   -0.35583E-04   806   0.140E-02
 384 F= -.12540509E+04 E0= -.12539884E+04  d E =-.336514E-03
 curvature:  -0.58 expect dE=-0.736E-03 dE for cont linesearch -0.431E-06
 trial: gam= 0.76766 g(F)=  0.126E-02 g(S)=  0.000E+00 ort =-0.612E-04 (trialstep = 0.201E+00)
 search vector abs. value=  0.415E-02
 bond charge predicted
       N       E                     dE             d eps       ncg     rms          rms(c)
DAV:   1    -0.122359537887E+04    0.85019E-05   -0.11300E-02  1144   0.769E-02    0.428E-02
DAV:   2    -0.122359543633E+04   -0.57462E-04   -0.49460E-04   845   0.163E-02
 385 F= -.12540511E+04 E0= -.12539885E+04  d E =-.190677E-03
 trial-energy change:   -0.000191  1 .order   -0.000204   -0.000244   -0.000163
 step:   0.6089(harm=  0.6089)  dis= 0.00249  next Energy= -1254.051311 (dE=-0.369E-03)
 bond charge predicted
       N       E                     dE             d eps       ncg     rms          rms(c)
DAV:   1    -0.122359535948E+04    0.19388E-04   -0.47265E-02  1170   0.156E-01    0.918E-02
DAV:   2    -0.122359666734E+04   -0.13079E-02   -0.46650E-03  1417   0.440E-02    0.413E-01
DAV:   3    -0.122359555058E+04    0.11168E-02   -0.40730E-03  1196   0.367E-02    0.167E-01
DAV:   4    -0.122359548559E+04    0.64983E-04   -0.44613E-04   767   0.113E-02
 386 F= -.12540513E+04 E0= -.12539884E+04  d E =-.397672E-03
 curvature:  -1.04 expect dE=-0.655E-03 dE for cont linesearch -0.193E-04
 ZBRENT: increasing intervall
 opt :   1.4247  next Energy= -1254.051129 (dE=-0.187E-03)
 bond charge predicted
       N       E                     dE             d eps       ncg     rms          rms(c)
DAV:   1    -0.122359449448E+04    0.10561E-02   -0.18744E-01  1170   0.310E-01    0.185E-01
DAV:   2    -0.122361148619E+04   -0.16992E-01   -0.25944E-02  1651   0.117E-01    0.257E+00
DAV:   3    -0.122359940852E+04    0.12078E-01   -0.17487E-02  1482   0.805E-02    0.413E-01
DAV:   4    -0.122359512273E+04    0.42858E-02   -0.27575E-03  1261   0.321E-02    0.232E-01
DAV:   5    -0.122359484829E+04    0.27444E-03   -0.17504E-03   871   0.150E-02    0.206E-01
DAV:   6    -0.122359470943E+04    0.13886E-03   -0.15222E-03   897   0.127E-02    0.125E-01
DAV:   7    -0.122359473489E+04   -0.25467E-04   -0.21538E-03   819   0.113E-02    0.171E-01
DAV:   8    -0.122359461960E+04    0.11530E-03   -0.13691E-03   689   0.856E-03    0.508E-02
DAV:   9    -0.122359462877E+04   -0.91725E-05   -0.83680E-04   637   0.688E-03
 387 F= -.12540508E+04 E0= -.12539874E+04  d E =0.140253E-03
 curvature:  11.36 expect dE= 0.359E-01 dE for cont linesearch  0.391E-02
 ZBRENT: bracketing found
 ZBRENT: interpolating
 opt :   0.7626  next Energy= -1254.051361 (dE=-0.419E-03)
 bond charge predicted
       N       E                     dE             d eps       ncg     rms          rms(c)
DAV:   1    -0.122359519043E+04   -0.57083E-03   -0.12425E-01  1170   0.251E-01    0.118E-01
DAV:   2    -0.122359807769E+04   -0.28873E-02   -0.11006E-02  1547   0.779E-02    0.585E-01
DAV:   3    -0.122359562714E+04    0.24505E-02   -0.79133E-03  1378   0.482E-02    0.162E-01
DAV:   4    -0.122359556149E+04    0.65651E-04   -0.10974E-03   871   0.125E-02    0.191E-01
DAV:   5    -0.122359547326E+04    0.88232E-04   -0.98966E-04   767   0.113E-02
 388 F= -.12540514E+04 E0= -.12539891E+04  d E =-.445054E-03
 curvature:  -0.06 expect dE=-0.613E-04 dE for cont linesearch -0.936E-06
 ZBRENT: interpolating
 opt :   0.6896  next Energy= -1254.051396 (dE=-0.454E-03)
 bond charge predicted
       N       E                     dE             d eps       ncg     rms          rms(c)
DAV:   1    -0.122359543527E+04    0.12623E-03   -0.22179E-03  1092   0.311E-02    0.110E-01
DAV:   2    -0.122359716906E+04   -0.17338E-02   -0.76657E-03  1183   0.370E-02    0.483E-01
DAV:   3    -0.122359583646E+04    0.13326E-02   -0.97488E-03  1248   0.460E-02    0.296E-01
DAV:   4    -0.122359551419E+04    0.32227E-03   -0.19388E-03   858   0.169E-02    0.137E-01
DAV:   5    -0.122359543186E+04    0.82324E-04   -0.11016E-03   702   0.648E-03    0.102E-01
DAV:   6    -0.122359539162E+04    0.40245E-04   -0.63498E-04   689   0.831E-03
 389 F= -.12540513E+04 E0= -.12539869E+04  d E =-.335047E-03
 curvature:  -0.60 expect dE=-0.435E-03 dE for cont linesearch -0.277E-05
 trial: gam= 0.45615 g(F)=  0.720E-03 g(S)=  0.000E+00 ort =-0.138E-03 (trialstep = 0.299E+00)
 search vector abs. value=  0.146E-02
 bond charge predicted
       N       E                     dE             d eps       ncg     rms          rms(c)
DAV:   1    -0.122359543933E+04   -0.74731E-05   -0.10711E-02  1105   0.664E-02    0.613E-02
DAV:   2    -0.122359573917E+04   -0.29984E-03   -0.26847E-03   936   0.198E-02    0.238E-01
DAV:   3    -0.122359570195E+04    0.37225E-04   -0.33168E-03   897   0.208E-02    0.227E-01
DAV:   4    -0.122359550648E+04    0.19547E-03   -0.10887E-03   754   0.130E-02    0.928E-02
DAV:   5    -0.122359545625E+04    0.50223E-04   -0.39219E-04   663   0.500E-03
 390 F= -.12540514E+04 E0= -.12539874E+04  d E =-.107840E-03
 trial-energy change:   -0.000108  1 .order   -0.000123   -0.000196   -0.000050
 step:   0.4011(harm=  0.4011)  dis= 0.00102  next Energy= -1254.051409 (dE=-0.132E-03)
 bond charge predicted
       N       E                     dE             d eps       ncg     rms          rms(c)
DAV:   1    -0.122359544404E+04    0.62439E-04   -0.12803E-03   897   0.228E-02    0.411E-02
DAV:   2    -0.122359551409E+04   -0.70050E-04   -0.69080E-04   689   0.658E-03
 391 F= -.12540515E+04 E0= -.12539875E+04  d E =-.180549E-03
 curvature:  -0.45 expect dE=-0.220E-03 dE for cont linesearch -0.105E-05
 trial: gam= 0.70338 g(F)=  0.495E-03 g(S)=  0.000E+00 ort =-0.587E-04 (trialstep = 0.319E+00)
 search vector abs. value=  0.113E-02
 bond charge predicted
       N       E                     dE             d eps       ncg     rms          rms(c)
DAV:   1    -0.122359546079E+04   -0.16750E-04   -0.93735E-03  1105   0.686E-02    0.445E-02
DAV:   2    -0.122359560596E+04   -0.14518E-03   -0.14687E-03   949   0.168E-02    0.161E-01
DAV:   3    -0.122359550907E+04    0.96889E-04   -0.15120E-03   767   0.116E-02    0.818E-02
DAV:   4    -0.122359550615E+04    0.29224E-05   -0.63285E-04   689   0.891E-03
 392 F= -.12540515E+04 E0= -.12539883E+04  d E =-.216855E-04
 trial-energy change:   -0.000022  1 .order   -0.000089   -0.000145   -0.000033
 step:   0.4133(harm=  0.4133)  dis= 0.00094  next Energy= -1254.051551 (dE=-0.937E-04)
 bond charge predicted
       N       E                     dE             d eps       ncg     rms          rms(c)
DAV:   1    -0.122359546094E+04    0.48137E-04   -0.11088E-03   871   0.205E-02    0.389E-02
DAV:   2    -0.122359557730E+04   -0.11637E-03   -0.98642E-04   715   0.101E-02    0.155E-01
DAV:   3    -0.122359553557E+04    0.41738E-04   -0.12850E-03   754   0.135E-02    0.116E-01
DAV:   4    -0.122359547154E+04    0.64025E-04   -0.42730E-04   715   0.896E-03
 393 F= -.12540515E+04 E0= -.12539868E+04  d E =0.416579E-05
 curvature:  -0.52 expect dE=-0.169E-03 dE for cont linesearch -0.926E-06
 trial: gam= 0.50377 g(F)=  0.327E-03 g(S)=  0.000E+00 ort =-0.451E-04 (trialstep = 0.338E+00)
 search vector abs. value=  0.569E-03
 bond charge predicted
       N       E                     dE             d eps       ncg     rms          rms(c)
DAV:   1    -0.122359549645E+04    0.39120E-04   -0.47832E-03  1105   0.455E-02    0.245E-02
DAV:   2    -0.122359561205E+04   -0.11561E-03   -0.41367E-04   884   0.148E-02    0.131E-01
DAV:   3    -0.122359551627E+04    0.95779E-04   -0.26145E-04   741   0.104E-02
 394 F= -.12540515E+04 E0= -.12539869E+04  d E =-.539335E-04
 trial-energy change:   -0.000054  1 .order   -0.000066   -0.000103   -0.000028
 step:   0.4660(harm=  0.4660)  dis= 0.00068  next Energy= -1254.051524 (dE=-0.709E-04)
 bond charge predicted
       N       E                     dE             d eps       ncg     rms          rms(c)
DAV:   1    -0.122359551155E+04    0.10050E-03   -0.67988E-04   858   0.176E-02    0.284E-02
DAV:   2    -0.122359557495E+04   -0.63398E-04   -0.21074E-04   702   0.764E-03
 395 F= -.12540516E+04 E0= -.12539858E+04  d E =-.116112E-03
 curvature:  -0.44 expect dE=-0.160E-03 dE for cont linesearch -0.525E-10
 trial: gam= 0.97886 g(F)=  0.367E-03 g(S)=  0.000E+00 ort =-0.262E-06 (trialstep = 0.227E+00)
 search vector abs. value=  0.912E-03
 bond charge predicted
       N       E                     dE             d eps       ncg     rms          rms(c)
DAV:   1    -0.122359556153E+04   -0.49975E-04   -0.40157E-03  1183   0.425E-02    0.784E-02
DAV:   2    -0.122360107758E+04   -0.55161E-02   -0.67971E-03  1378   0.501E-02    0.133E+00
DAV:   3    -0.122359659785E+04    0.44797E-02   -0.57688E-03  1287   0.483E-02    0.199E-01
DAV:   4    -0.122359569731E+04    0.90053E-03   -0.61532E-04   988   0.173E-02    0.136E-01
DAV:   5    -0.122359556069E+04    0.13662E-03   -0.10410E-04   689   0.823E-03    0.403E-02
DAV:   6    -0.122359556536E+04   -0.46716E-05   -0.57136E-05   624   0.458E-03
 396 F= -.12540516E+04 E0= -.12539871E+04  d E =-.952012E-05
 trial-energy change:   -0.000010  1 .order   -0.000061   -0.000083   -0.000039
 step:   0.4253(harm=  0.4253)  dis= 0.00080  next Energy= -1254.051647 (dE=-0.781E-04)
 bond charge predicted
       N       E                     dE             d eps       ncg     rms          rms(c)
DAV:   1    -0.122359550698E+04    0.53708E-04   -0.28258E-03  1027   0.355E-02    0.374E-02
DAV:   2    -0.122359601191E+04   -0.50492E-03   -0.10871E-03   975   0.221E-02    0.270E-01
DAV:   3    -0.122359552509E+04    0.48681E-03   -0.95494E-04   884   0.202E-02    0.607E-02
DAV:   4    -0.122359550992E+04    0.15176E-04   -0.54607E-05   637   0.463E-03
 397 F= -.12540515E+04 E0= -.12539874E+04  d E =0.291455E-04
 curvature:  -0.53 expect dE=-0.165E-03 dE for cont linesearch -0.309E-05
 ZBRENT: interpolating
 opt :   0.3660  next Energy= -1254.051542 (dE= 0.270E-04)
 bond charge predicted
       N       E                     dE             d eps       ncg     rms          rms(c)
DAV:   1    -0.122359552609E+04   -0.99275E-06   -0.36543E-04   806   0.112E-02    0.551E-02
DAV:   2    -0.122359567917E+04   -0.15308E-03   -0.77521E-04   728   0.826E-03    0.179E-01
DAV:   3    -0.122359579537E+04   -0.11620E-03   -0.15712E-03   832   0.172E-02    0.240E-01
DAV:   4    -0.122359556259E+04    0.23278E-03   -0.58874E-04   728   0.114E-02    0.699E-02
DAV:   5    -0.122359554550E+04    0.17089E-04   -0.13551E-04   650   0.411E-03
 398 F= -.12540516E+04 E0= -.12539871E+04  d E =-.141197E-05
 curvature:  -0.37 expect dE=-0.103E-03 dE for cont linesearch -0.998E-08
 trial: gam= 0.54271 g(F)=  0.277E-03 g(S)=  0.000E+00 ort = 0.496E-05 (trialstep = 0.255E+00)
 search vector abs. value=  0.551E-03
 bond charge predicted
       N       E                     dE             d eps       ncg     rms          rms(c)
DAV:   1    -0.122359552794E+04    0.34646E-04   -0.29159E-03  1040   0.382E-02    0.178E-02
DAV:   2    -0.122359561443E+04   -0.86482E-04   -0.23502E-04   897   0.124E-02
 399 F= -.12540517E+04 E0= -.12539893E+04  d E =-.899707E-04
 trial-energy change:   -0.000090  1 .order   -0.000043   -0.000071   -0.000014
 step:   0.3177(harm=  0.3177)  dis= 0.00058  next Energy= -1254.051615 (dE=-0.445E-04)
 bond charge predicted
       N       E                     dE             d eps       ncg     rms          rms(c)
DAV:   1    -0.122359553167E+04   -0.37245E-05   -0.32673E-04   884   0.139E-02    0.304E-02
DAV:   2    -0.122359574585E+04   -0.21418E-03   -0.32415E-04   793   0.133E-02    0.189E-01
DAV:   3    -0.122359555655E+04    0.18929E-03   -0.46482E-04   754   0.141E-02    0.706E-02
DAV:   4    -0.122359558173E+04   -0.25175E-04   -0.41211E-05   611   0.459E-03
 400 F= -.12540516E+04 E0= -.12539885E+04  d E =-.624910E-04
 curvature:  -0.31 expect dE=-0.102E-03 dE for cont linesearch -0.931E-06
 trial: gam= 1.08593 g(F)=  0.327E-03 g(S)=  0.000E+00 ort =-0.405E-04 (trialstep = 0.166E+00)
 search vector abs. value=  0.890E-03
 bond charge predicted
       N       E                     dE             d eps       ncg     rms          rms(c)
DAV:   1    -0.122359554556E+04    0.10991E-04   -0.18164E-03  1027   0.303E-02    0.197E-02
DAV:   2    -0.122359565860E+04   -0.11304E-03   -0.21673E-04   832   0.120E-02    0.144E-01
DAV:   3    -0.122359555574E+04    0.10287E-03   -0.20504E-04   728   0.103E-02    0.463E-02
DAV:   4    -0.122359554345E+04    0.12283E-04   -0.15602E-05   611   0.334E-03
 401 F= -.12540516E+04 E0= -.12539876E+04  d E =0.269230E-04
 trial-energy change:    0.000027  1 .order   -0.000033   -0.000047   -0.000018
 step:   0.2691(harm=  0.2691)  dis= 0.00054  next Energy= -1254.051671 (dE=-0.381E-04)
 bond charge predicted
       N       E                     dE             d eps       ncg     rms          rms(c)
DAV:   1    -0.122359554041E+04    0.15323E-04   -0.71763E-04   871   0.189E-02    0.277E-02
DAV:   2    -0.122359560336E+04   -0.62950E-04   -0.17843E-04   715   0.779E-03
 402 F= -.12540517E+04 E0= -.12539859E+04  d E =-.401105E-04
 curvature:  -0.42 expect dE=-0.131E-03 dE for cont linesearch -0.131E-06
 trial: gam= 0.74064 g(F)=  0.311E-03 g(S)=  0.000E+00 ort =-0.166E-04 (trialstep = 0.186E+00)
 search vector abs. value=  0.774E-03
 bond charge predicted
       N       E                     dE             d eps       ncg     rms          rms(c)
DAV:   1    -0.122359561967E+04   -0.79257E-04   -0.21664E-03  1144   0.323E-02    0.968E-02
DAV:   2    -0.122360368925E+04   -0.80696E-02   -0.98303E-03  1391   0.596E-02    0.166E+00
DAV:   3    -0.122359746905E+04    0.62202E-02   -0.84173E-03  1339   0.577E-02    0.262E-01
DAV:   4    -0.122359580169E+04    0.16674E-02   -0.96411E-04  1092   0.214E-02    0.139E-01
DAV:   5    -0.122359561735E+04    0.18434E-03   -0.14579E-04   689   0.991E-03    0.578E-02
DAV:   6    -0.122359561178E+04    0.55642E-05   -0.79065E-05   624   0.481E-03
 403 F= -.12540517E+04 E0= -.12539875E+04  d E =-.167060E-04
 trial-energy change:   -0.000017  1 .order   -0.000037   -0.000056   -0.000019
 step:   0.2813(harm=  0.2813)  dis= 0.00056  next Energy= -1254.051715 (dE=-0.420E-04)
 reached required accuracy - stopping structural energy minimisation
