basalPlane                              
           1
    15.900000    0.000000    0.000000
    -7.950000   13.769804    0.000000
     0.000000    0.000000   32.380000
   C    Cr   H    Mo   S 
  10   1  10  50 100
Direct configuration=     1
   0.05516601  0.08582055  0.05643199
   0.95688065  0.01186213  0.06228482
   0.05971737  0.14320964  0.02170544
   0.96273120  0.10467048  0.00573450
   0.89883100  0.02255220  0.03113295
   0.01238342  0.87064081  0.99409038
   0.95576609  0.92718346  0.94076735
   0.92569348  0.85751199  0.97379222
   0.05923539  0.98201031  0.94062159
   0.09436906  0.94793333  0.97327903
   0.00037326  0.99640323  0.00018026
   0.82054997  0.97775818  0.02770217
   0.85136230  0.80309891  0.98130109
   0.01535800  0.82829479  0.01983995
   0.90802444  0.93742755  0.91991489
   0.10360793  0.04315175  0.92042562
   0.93088318  0.95485208  0.08550171
   0.11695758  0.09410041  0.07419289
   0.12524573  0.20477512  0.00938567
   0.94126322  0.13403663  0.98011197
   0.17028715  0.97742642  0.98163070
   0.60000000  0.60000000  0.65735022
   0.20000000  0.80000000  0.21911674
   0.20000000  0.60000000  0.65735022
   0.60000000  0.80000000  0.21911674
   0.20000000  0.60000000  0.21911674
   0.60000000  0.80000000  0.65735022
   0.20000000  0.40000000  0.21911674
   0.80000000  0.00000000  0.21911674
   0.20000000  0.20000000  0.65735022
   0.80000000  0.00000000  0.65735022
   0.20000000  0.20000000  0.21911674
   0.20000000  0.80000000  0.65735022
   0.20000000  0.40000000  0.65735022
   0.60000000  0.60000000  0.21911674
   0.40000000  0.60000000  0.21911674
   0.40000000  0.00000000  0.65735022
   0.60000000  0.40000000  0.65735022
   0.40000000  0.20000000  0.21911674
   0.60000000  0.40000000  0.21911674
   0.40000000  0.20000000  0.65735022
   0.40000000  0.40000000  0.21911674
   0.60000000  0.20000000  0.65735022
   0.40000000  0.40000000  0.65735022
   0.60000000  0.20000000  0.21911674
   0.40000000  0.80000000  0.65735022
   0.40000000  0.60000000  0.65735022
   0.60000000  0.00000000  0.65735022
   0.40000000  0.80000000  0.21911674
   0.60000000  0.00000000  0.21911674
   0.40000000  0.00000000  0.21911674
   0.80000000  0.20000000  0.21911674
   0.20000000  0.00000000  0.65735022
   0.20000000  0.00000000  0.21911674
   0.00000000  0.00000000  0.21911674
   0.80000000  0.80000000  0.65735022
   0.00000000  0.00000000  0.65735022
   0.80000000  0.80000000  0.21911674
   0.00000000  0.20000000  0.21911674
   0.00000000  0.20000000  0.65735022
   0.80000000  0.60000000  0.65735022
   0.00000000  0.40000000  0.21911674
   0.00000000  0.40000000  0.65735022
   0.00000000  0.60000000  0.21911674
   0.80000000  0.40000000  0.65735022
   0.00000000  0.60000000  0.65735022
   0.80000000  0.60000000  0.21911674
   0.80000000  0.40000000  0.21911674
   0.00000000  0.80000000  0.65735022
   0.00000000  0.80000000  0.21911674
   0.80000000  0.20000000  0.65735022
   0.93333333  0.06666667  0.16985794
   0.73333333  0.26666667  0.60809141
   0.73333333  0.26666667  0.70660902
   0.93333333  0.66666667  0.70660902
   0.93333333  0.66666667  0.60809141
   0.73333333  0.26666667  0.16985794
   0.73333333  0.26666667  0.26837554
   0.93333333  0.46666667  0.26837554
   0.73333333  0.06666667  0.60809141
   0.73333333  0.06666667  0.70660902
   0.93333333  0.06666667  0.70660902
   0.93333333  0.86666667  0.16985794
   0.73333333  0.06666667  0.16985794
   0.93333333  0.06666667  0.60809141
   0.73333333  0.06666667  0.26837554
   0.93333333  0.26666667  0.16985794
   0.93333333  0.26666667  0.70660902
   0.93333333  0.86666667  0.26837554
   0.73333333  0.46666667  0.26837554
   0.73333333  0.46666667  0.16985794
   0.73333333  0.86666667  0.16985794
   0.73333333  0.86666667  0.70660902
   0.73333333  0.86666667  0.26837554
   0.93333333  0.46666667  0.16985794
   0.73333333  0.86666667  0.60809141
   0.73333333  0.66666667  0.60809141
   0.73333333  0.66666667  0.70660902
   0.93333333  0.46666667  0.70660902
   0.73333333  0.66666667  0.16985794
   0.93333333  0.46666667  0.60809141
   0.73333333  0.66666667  0.26837554
   0.93333333  0.26666667  0.60809141
   0.93333333  0.26666667  0.26837554
   0.73333333  0.46666667  0.60809141
   0.73333333  0.46666667  0.70660902
   0.93333333  0.66666667  0.26837554
   0.93333333  0.06666667  0.26837554
   0.93333333  0.66666667  0.16985794
   0.53333333  0.86666667  0.60809141
   0.53333333  0.06666667  0.70660902
   0.53333333  0.86666667  0.16985794
   0.33333333  0.26666667  0.16985794
   0.33333333  0.26666667  0.26837554
   0.33333333  0.06666667  0.60809141
   0.33333333  0.06666667  0.70660902
   0.33333333  0.06666667  0.16985794
   0.33333333  0.06666667  0.26837554
   0.13333333  0.86666667  0.60809141
   0.13333333  0.86666667  0.70660902
   0.13333333  0.86666667  0.16985794
   0.13333333  0.86666667  0.26837554
   0.13333333  0.66666667  0.60809141
   0.13333333  0.66666667  0.70660902
   0.33333333  0.26666667  0.70660902
   0.13333333  0.66666667  0.16985794
   0.13333333  0.46666667  0.60809141
   0.13333333  0.46666667  0.70660902
   0.13333333  0.46666667  0.16985794
   0.13333333  0.46666667  0.26837554
   0.13333333  0.26666667  0.60809141
   0.13333333  0.26666667  0.70660902
   0.13333333  0.26666667  0.16985794
   0.13333333  0.26666667  0.26837554
   0.13333333  0.06666667  0.60809141
   0.13333333  0.06666667  0.70660902
   0.13333333  0.06666667  0.16985794
   0.13333333  0.06666667  0.26837554
   0.13333333  0.66666667  0.26837554
   0.33333333  0.26666667  0.60809141
   0.33333333  0.46666667  0.26837554
   0.33333333  0.46666667  0.16985794
   0.53333333  0.86666667  0.26837554
   0.53333333  0.66666667  0.60809141
   0.53333333  0.66666667  0.70660902
   0.53333333  0.66666667  0.16985794
   0.53333333  0.66666667  0.26837554
   0.53333333  0.46666667  0.60809141
   0.53333333  0.46666667  0.70660902
   0.53333333  0.46666667  0.16985794
   0.53333333  0.46666667  0.26837554
   0.53333333  0.26666667  0.60809141
   0.53333333  0.26666667  0.70660902
   0.53333333  0.26666667  0.16985794
   0.53333333  0.26666667  0.26837554
   0.53333333  0.06666667  0.60809141
   0.93333333  0.86666667  0.70660902
   0.53333333  0.06666667  0.16985794
   0.53333333  0.06666667  0.26837554
   0.33333333  0.86666667  0.60809141
   0.33333333  0.86666667  0.70660902
   0.33333333  0.86666667  0.16985794
   0.33333333  0.86666667  0.26837554
   0.33333333  0.66666667  0.60809141
   0.33333333  0.66666667  0.70660902
   0.33333333  0.66666667  0.16985794
   0.33333333  0.66666667  0.26837554
   0.33333333  0.46666667  0.60809141
   0.33333333  0.46666667  0.70660902
   0.53333333  0.86666667  0.70660902
   0.93333333  0.86666667  0.60809141
Direct configuration=     2
   0.05537294  0.08661834  0.05691384
   0.95675457  0.01254294  0.06281056
   0.06001969  0.14433031  0.02210014
   0.96246265  0.10573865  0.00570855
   0.89789117  0.02256620  0.03152112
   0.01262096  0.86960123  0.99400147
   0.95568933  0.92684744  0.94020052
   0.92504180  0.85630886  0.97352472
   0.05949546  0.98119317  0.94015562
   0.09503552  0.94755608  0.97289806
   0.00004475  0.99622090  0.00024046
   0.82047307  0.97767855  0.02769497
   0.85125531  0.80309403  0.98132217
   0.01537680  0.82831230  0.01989856
   0.90797091  0.93746296  0.91988230
   0.10369794  0.04329866  0.92040782
   0.93089027  0.95464906  0.08557027
   0.11705859  0.09407939  0.07424983
   0.12538476  0.20482621  0.00934220
   0.94121127  0.13401896  0.98007974
   0.17035579  0.97746228  0.98165765
   0.60002279  0.60002188  0.65735123
   0.20000582  0.79999958  0.21911596
   0.20001294  0.60000685  0.65735101
   0.60000889  0.79999608  0.21912000
   0.20000664  0.60000143  0.21911649
   0.60000682  0.80000389  0.65735146
   0.20002182  0.40000367  0.21912171
   0.80002527  0.00000381  0.21912325
   0.20000660  0.20000167  0.65735278
   0.80000311  0.00000440  0.65735309
   0.19998361  0.20000240  0.21911037
   0.20000210  0.80000359  0.65735150
   0.20000254  0.39999957  0.65735141
   0.59999519  0.60000603  0.21911137
   0.40000021  0.59999744  0.21911585
   0.39998493  0.00000079  0.65735154
   0.60000673  0.39999907  0.65735108
   0.39999499  0.19999374  0.21911824
   0.60000174  0.39999593  0.21911351
   0.39999347  0.19999606  0.65735042
   0.40000973  0.40002123  0.21911172
   0.60000670  0.20000702  0.65735139
   0.39998499  0.39998394  0.65735127
   0.60000362  0.20001062  0.21911472
   0.39999963  0.79999310  0.65735123
   0.39999956  0.60000747  0.65735126
   0.60002243  0.00000087  0.65735155
   0.39999907  0.79999511  0.21911581
   0.60000312 -0.00000409  0.21911512
   0.40000807 -0.00000007  0.21911281
   0.80001249  0.20000147  0.21911643
   0.20000636  0.00000312  0.65735309
   0.19999813 -0.00000655  0.21912565
  -0.00000424  0.00004173  0.21908238
   0.80000449  0.79999970  0.65735302
   0.00000333  0.00000098  0.65734368
   0.79998035  0.79999430  0.21911411
   0.00000494  0.19997634  0.21911853
   0.00000063  0.20000206  0.65735303
   0.80001043  0.60001316  0.65735050
   0.00000181  0.40001186  0.21911411
   0.00000459  0.39998363  0.65735138
   0.00000584  0.59999758  0.21911218
   0.79999855  0.39999871  0.65735118
   0.00000469  0.60002181  0.65735153
   0.80001806  0.60002321  0.21911614
   0.79999885  0.40000036  0.21911488
   0.00000158  0.79999889  0.65735321
   0.00001858  0.79999653  0.21911875
   0.80000914  0.19999650  0.65735071
   0.93332397  0.06669053  0.17067443
   0.73333699  0.26666876  0.60896818
   0.73333683  0.26666965  0.70573093
   0.93333869  0.66666928  0.70573248
   0.93333786  0.66666909  0.60896786
   0.73334285  0.26666690  0.17068383
   0.73333945  0.26666785  0.26755055
   0.93333422  0.46666696  0.26755169
   0.73333731  0.06666822  0.60896801
   0.73333650  0.06666776  0.70573195
   0.93333655  0.06666866  0.70573078
   0.93332134  0.86668121  0.17065588
   0.73334836  0.06667192  0.17067436
   0.93333808  0.06666777  0.60896868
   0.73333520  0.06666635  0.26754972
   0.93334146  0.26666221  0.17067564
   0.93333816  0.26666985  0.70573197
   0.93333643  0.86667185  0.26755728
   0.73333999  0.46667165  0.26754995
   0.73333936  0.46666853  0.17068480
   0.73336349  0.86669157  0.17066158
   0.73333746  0.86666805  0.70573177
   0.73334712  0.86667184  0.26755202
   0.93333661  0.46666194  0.17068159
   0.73333910  0.86666961  0.60896862
   0.73333728  0.66666905  0.60896786
   0.73333748  0.66666885  0.70573242
   0.93333717  0.46666961  0.70573208
   0.73333368  0.66666320  0.17068149
   0.93333607  0.46666809  0.60896821
   0.73333787  0.66667047  0.26755124
   0.93333769  0.26666858  0.60896802
   0.93334181  0.26667082  0.26754897
   0.73333694  0.46666806  0.60896805
   0.73333743  0.46666843  0.70573126
   0.93334001  0.66667319  0.26755163
   0.93333458  0.06665955  0.26755775
   0.93333888  0.66666605  0.17067962
   0.53333849  0.86666927  0.60896864
   0.53333724  0.06666904  0.70573187
   0.53334051  0.86667135  0.17068150
   0.33333099  0.26666658  0.17067527
   0.33333435  0.26666753  0.26755321
   0.33333676  0.06666824  0.60896797
   0.33333633  0.06666701  0.70573222
   0.33333509  0.06666905  0.17067841
   0.33333430  0.06666748  0.26755153
   0.13333630  0.86666969  0.60896840
   0.13333663  0.86666775  0.70573206
   0.13333571  0.86666802  0.17067234
   0.13333121  0.86666846  0.26755077
   0.13333635  0.66666899  0.60896840
   0.13333495  0.66666825  0.70573206
   0.33333727  0.26666905  0.70573204
   0.13333358  0.66666532  0.17068321
   0.13333650  0.46666734  0.60896852
   0.13333544  0.46666841  0.70573175
   0.13333156  0.46666003  0.17068104
   0.13333652  0.46666804  0.26755051
   0.13333626  0.26666669  0.60896861
   0.13333730  0.26666872  0.70573159
   0.13332163  0.26665382  0.17065944
   0.13333696  0.26666554  0.26754995
   0.13333569  0.06666776  0.60896860
   0.13333861  0.06666820  0.70573096
   0.13333525  0.06667277  0.17065960
   0.13333891  0.06666823  0.26755515
   0.13333350  0.66666835  0.26755030
   0.33333687  0.26666862  0.60896810
   0.33333722  0.46666689  0.26755095
   0.33333083  0.46666353  0.17068026
   0.53333824  0.86666652  0.26755077
   0.53333841  0.66666919  0.60896866
   0.53333840  0.66666792  0.70573160
   0.53333515  0.66666830  0.17068134
   0.53333810  0.66667077  0.26755119
   0.53333788  0.46666788  0.60896844
   0.53333822  0.46666876  0.70573182
   0.53333787  0.46666847  0.17068498
   0.53333728  0.46666720  0.26755019
   0.53333778  0.26666881  0.60896829
   0.53333862  0.26666937  0.70573089
   0.53333831  0.26666935  0.17068244
   0.53333413  0.26666775  0.26755214
   0.53333804  0.06667004  0.60896827
   0.93333685  0.86666623  0.70573116
   0.53334238  0.06666908  0.17068240
   0.53333802  0.06667057  0.26755133
   0.33333688  0.86666931  0.60896841
   0.33333703  0.86666974  0.70573194
   0.33333908  0.86667251  0.17068387
   0.33333785  0.86667315  0.26754952
   0.33333746  0.66666870  0.60896718
   0.33333691  0.66666884  0.70573286
   0.33333840  0.66666497  0.17068512
   0.33334073  0.66666647  0.26755126
   0.33333689  0.46666747  0.60896866
   0.33333827  0.46666815  0.70573153
   0.53333774  0.86666992  0.70573157
   0.93333818  0.86667022  0.60896846
Direct configuration=     3
   0.05540650  0.08674773  0.05699198
   0.95673412  0.01265335  0.06289583
   0.06006872  0.14451206  0.02216415
   0.96241910  0.10591188  0.00570435
   0.89773875  0.02256848  0.03158407
   0.01265948  0.86943263  0.99398706
   0.95567688  0.92679295  0.94010860
   0.92493611  0.85611374  0.97348133
   0.05953764  0.98106065  0.94008005
   0.09514360  0.94749490  0.97283628
  -0.00000853  0.99619134  0.00025023
   0.82046060  0.97766564  0.02769380
   0.85123796  0.80309324  0.98132558
   0.01537985  0.82831514  0.01990806
   0.90796223  0.93746870  0.91987701
   0.10371254  0.04332249  0.92040493
   0.93089142  0.95461613  0.08558139
   0.11707498  0.09407599  0.07425907
   0.12540731  0.20483450  0.00933515
   0.94120285  0.13401610  0.98007451
   0.17036692  0.97746809  0.98166202
   0.60002648  0.60002543  0.65735140
   0.20000676  0.79999951  0.21911583
   0.20001504  0.60000796  0.65735114
   0.60001033  0.79999545  0.21912053
   0.20000772  0.60000166  0.21911645
   0.60000792  0.80000452  0.65735166
   0.20002536  0.40000426  0.21912252
   0.80002937  0.00000443  0.21912430
   0.20000767  0.20000194  0.65735320
   0.80000361  0.00000511  0.65735356
   0.19998095  0.20000279  0.21910934
   0.20000244  0.80000417  0.65735170
   0.20000295  0.39999950  0.65735160
   0.59999442  0.60000701  0.21911050
   0.40000024  0.59999703  0.21911571
   0.39998249  0.00000091  0.65735175
   0.60000782  0.39999892  0.65735122
   0.39999418  0.19999273  0.21911848
   0.60000202  0.39999527  0.21911298
   0.39999241  0.19999542  0.65735045
   0.40001131  0.40002467  0.21911091
   0.60000778  0.20000816  0.65735158
   0.39998256  0.39998133  0.65735144
   0.60000420  0.20001235  0.21911439
   0.39999957  0.79999198  0.65735139
   0.39999949  0.60000868  0.65735143
   0.60002607  0.00000101  0.65735176
   0.39999892  0.79999432  0.21911566
   0.60000363 -0.00000475  0.21911485
   0.40000938 -0.00000008  0.21911217
   0.80001452  0.20000171  0.21911638
   0.20000740  0.00000363  0.65735356
   0.19999783 -0.00000761  0.21912709
  -0.00000493  0.00004850  0.21907681
   0.80000522  0.79999966  0.65735347
   0.00000387  0.00000114  0.65734262
   0.79997717  0.79999337  0.21911369
   0.00000574  0.19997251  0.21911882
   0.00000073  0.20000240  0.65735349
   0.80001213  0.60001530  0.65735054
   0.00000211  0.40001378  0.21911369
   0.00000534  0.39998097  0.65735157
   0.00000679  0.59999719  0.21911144
   0.79999832  0.39999850  0.65735133
   0.00000545  0.60002534  0.65735174
   0.80002098  0.60002697  0.21911604
   0.79999867  0.40000042  0.21911458
   0.00000184  0.79999870  0.65735369
   0.00002160  0.79999596  0.21911908
   0.80001063  0.19999593  0.65735080
   0.93332245  0.06669440  0.17080685
   0.73333758  0.26666910  0.60911037
   0.73333740  0.26667014  0.70558852
   0.93333956  0.66666970  0.70559032
   0.93333859  0.66666949  0.60911000
   0.73334440  0.26666694  0.17081777
   0.73334044  0.26666804  0.26741676
   0.93333437  0.46666700  0.26741808
   0.73333796  0.06666848  0.60911018
   0.73333701  0.06666794  0.70558971
   0.93333708  0.06666898  0.70558835
   0.93331939  0.86668357  0.17078529
   0.73335079  0.06667277  0.17080676
   0.93333885  0.06666795  0.60911095
   0.73333551  0.06666630  0.26741578
   0.93334278  0.26666149  0.17080826
   0.93333895  0.26667037  0.70558974
   0.93333694  0.86667269  0.26742458
   0.73334107  0.46667245  0.26741606
   0.73334034  0.46666883  0.17081890
   0.73336838  0.86669561  0.17079192
   0.73333813  0.86666827  0.70558951
   0.73334935  0.86667268  0.26741847
   0.93333714  0.46666118  0.17081516
   0.73334004  0.86667009  0.60911088
   0.73333792  0.66666943  0.60911000
   0.73333816  0.66666921  0.70559025
   0.93333779  0.46667009  0.70558986
   0.73333373  0.66666264  0.17081505
   0.93333652  0.46666833  0.60911040
   0.73333860  0.66667109  0.26741756
   0.93333840  0.26666889  0.60911019
   0.93334318  0.26667149  0.26741492
   0.73333753  0.46666829  0.60911022
   0.73333809  0.46666871  0.70558891
   0.93334109  0.66667425  0.26741801
   0.93333478  0.06665840  0.26742512
   0.93333977  0.66666595  0.17081287
   0.53333933  0.86666969  0.60911090
   0.53333787  0.06666942  0.70558961
   0.53334168  0.86667211  0.17081506
   0.33333061  0.26666656  0.17080783
   0.33333452  0.26666767  0.26741985
   0.33333732  0.06666850  0.60911013
   0.33333681  0.06666707  0.70559002
   0.33333537  0.06666944  0.17081147
   0.33333446  0.06666761  0.26741789
   0.13333678  0.86667018  0.60911063
   0.13333716  0.86666793  0.70558983
   0.13333609  0.86666824  0.17080442
   0.13333086  0.86666875  0.26741701
   0.13333684  0.66666937  0.60911062
   0.13333521  0.66666850  0.70558983
   0.33333791  0.26666943  0.70558981
   0.13333363  0.66666510  0.17081705
   0.13333701  0.46666744  0.60911076
   0.13333579  0.46666869  0.70558948
   0.13333128  0.46665895  0.17081453
   0.13333703  0.46666826  0.26741671
   0.13333673  0.26666669  0.60911088
   0.13333794  0.26666905  0.70558929
   0.13331973  0.26665174  0.17078942
   0.13333755  0.26666536  0.26741606
   0.13333608  0.06666793  0.60911087
   0.13333946  0.06666845  0.70558856
   0.13333556  0.06667375  0.17078961
   0.13333982  0.06666848  0.26742210
   0.13333353  0.66666863  0.26741646
   0.33333744  0.26666893  0.60911028
   0.33333785  0.46666693  0.26741722
   0.33333042  0.46666302  0.17081362
   0.53333904  0.86666650  0.26741701
   0.53333924  0.66666960  0.60911093
   0.53333922  0.66666812  0.70558930
   0.53333545  0.66666857  0.17081487
   0.53333888  0.66667144  0.26741750
   0.53333862  0.46666808  0.60911067
   0.53333901  0.46666910  0.70558956
   0.53333861  0.46666877  0.17081910
   0.53333792  0.46666729  0.26741634
   0.53333850  0.26666916  0.60911050
   0.53333948  0.26666981  0.70558848
   0.53333912  0.26666979  0.17081616
   0.53333426  0.26666793  0.26741860
   0.53333881  0.06667058  0.60911048
   0.93333742  0.86666616  0.70558879
   0.53334384  0.06666947  0.17081610
   0.53333878  0.06667120  0.26741766
   0.33333745  0.86666974  0.60911064
   0.33333763  0.86667024  0.70558969
   0.33334001  0.86667346  0.17081782
   0.33333859  0.86667420  0.26741556
   0.33333813  0.66666903  0.60910921
   0.33333749  0.66666920  0.70559077
   0.33333922  0.66666469  0.17081927
   0.33334193  0.66666643  0.26741759
   0.33333746  0.46666760  0.60911093
   0.33333907  0.46666839  0.70558922
   0.53333846  0.86667045  0.70558927
   0.93333897  0.86667080  0.60911070
Direct configuration=     4
   0.05408672  0.08674127  0.05654206
   0.95660769  0.01322753  0.06242706
   0.05786872  0.14300619  0.02216694
   0.96311189  0.10375689  0.00726828
   0.90153394  0.02537566  0.03138264
   0.01213593  0.87117890  0.99282232
   0.95662740  0.92549266  0.94118434
   0.92850704  0.85873934  0.97314574
   0.05894742  0.98068113  0.94024075
   0.09250900  0.94580822  0.97297324
  -0.00014339  0.99611037  0.00024552
   0.81904652  0.97682200  0.02772244
   0.85003219  0.80219360  0.98141333
   0.01548310  0.82767174  0.02028406
   0.90739313  0.93768465  0.91950091
   0.10382175  0.04327868  0.92034039
   0.93092352  0.95452291  0.08574521
   0.11752873  0.09418850  0.07448426
   0.12585866  0.20526823  0.00932012
   0.94076151  0.13471667  0.97954372
   0.17117988  0.97776780  0.98168245
   0.60002504  0.60002239  0.65735117
   0.20000205  0.80000479  0.21910979
   0.20001256  0.60000738  0.65735106
   0.60002210  0.80000868  0.21910846
   0.20001159  0.60000376  0.21911442
   0.60000873  0.80000458  0.65735169
   0.20000239  0.39997889  0.21911177
   0.80004991  0.00002094  0.21911534
   0.20000723  0.20000071  0.65735339
   0.80000606  0.00000531  0.65735361
   0.19998305  0.20000977  0.21909524
   0.20000359  0.80000426  0.65735153
   0.20000448  0.40000111  0.65735166
   0.60000089  0.60000090  0.21910890
   0.40000395  0.59999935  0.21911344
   0.39998700  0.00000146  0.65735143
   0.60000952  0.40000042  0.65735083
   0.39999227  0.19999734  0.21911372
   0.60000663  0.40000377  0.21911346
   0.39999419  0.19999593  0.65735037
   0.40000354  0.40001254  0.21910688
   0.60000886  0.20000809  0.65735104
   0.39998779  0.39998552  0.65735129
   0.60000780  0.20001013  0.21911363
   0.40000159  0.79999583  0.65735129
   0.40000227  0.60000760  0.65735138
   0.60002363  0.00000221  0.65735140
   0.40000314  0.79999382  0.21911351
   0.60000802 -0.00000288  0.21911038
   0.40001121  0.00000412  0.21910832
   0.80002317  0.19999513  0.21911157
   0.20000675  0.00000318  0.65735356
   0.19999172 -0.00001310  0.21911277
  -0.00002133  0.00005114  0.21906473
   0.80000800  0.80000112  0.65735349
   0.00000522  0.00000094  0.65734502
   0.79998716  0.80000640  0.21909996
   0.00000355  0.19997401  0.21911155
   0.00000201  0.20000153  0.65735357
   0.80001320  0.60001525  0.65735032
   0.00000716  0.40000082  0.21911003
   0.00000612  0.39998565  0.65735122
   0.00000169  0.59999515  0.21910916
   0.80000036  0.40000000  0.65735082
   0.00000623  0.60002242  0.65735129
   0.80001322  0.60001983  0.21911384
   0.80000461  0.40000301  0.21911395
   0.00000324  0.80000056  0.65735352
   0.00002384  0.80001115  0.21910222
   0.80001121  0.19999713  0.65735053
   0.93330194  0.06672848  0.17110748
   0.73333972  0.26666867  0.60938736
   0.73333999  0.26667019  0.70531140
   0.93333819  0.66667338  0.70531612
   0.93333960  0.66667543  0.60938483
   0.73335057  0.26666484  0.17113196
   0.73334195  0.26666845  0.26710219
   0.93333118  0.46666766  0.26710441
   0.73334477  0.06666958  0.60938525
   0.73334394  0.06667165  0.70531492
   0.93334082  0.06666642  0.70531076
   0.93330258  0.86668047  0.17109311
   0.73336646  0.06667510  0.17111934
   0.93333753  0.06667077  0.60938657
   0.73333838  0.06666549  0.26710230
   0.93335077  0.26665523  0.17111916
   0.93333714  0.26666580  0.70531490
   0.93334497  0.86669869  0.26708950
   0.73334293  0.46667636  0.26710023
   0.73334488  0.46667394  0.17113381
   0.73338220  0.86671233  0.17110053
   0.73333967  0.86666845  0.70531325
   0.73335507  0.86667100  0.26710594
   0.93333094  0.46665401  0.17112706
   0.73334180  0.86667108  0.60938791
   0.73334529  0.66667547  0.60938504
   0.73334630  0.66667277  0.70531543
   0.93334125  0.46667257  0.70530958
   0.73332925  0.66665989  0.17113022
   0.93334134  0.46667082  0.60938999
   0.73333379  0.66667399  0.26710185
   0.93333889  0.26666377  0.60938527
   0.93335300  0.26667329  0.26710050
   0.73334005  0.46667057  0.60938724
   0.73334137  0.46667210  0.70531163
   0.93335201  0.66667743  0.26710394
   0.93334830  0.06665146  0.26711824
   0.93334728  0.66666678  0.17112771
   0.53334307  0.86667056  0.60938695
   0.53333783  0.06666763  0.70530920
   0.53334408  0.86666725  0.17113303
   0.33332738  0.26666907  0.17112478
   0.33332746  0.26667268  0.26709907
   0.33333312  0.06666901  0.60938521
   0.33333520  0.06666994  0.70531527
   0.33333102  0.06666614  0.17113025
   0.33333679  0.06666242  0.26710403
   0.13333789  0.86667068  0.60938744
   0.13333805  0.86666760  0.70531421
   0.13334070  0.86666994  0.17112103
   0.13333092  0.86666309  0.26710446
   0.13333826  0.66667258  0.60938672
   0.13333671  0.66667199  0.70531342
   0.33333680  0.26666403  0.70531470
   0.13334099  0.66666318  0.17113104
   0.13333831  0.46666592  0.60938685
   0.13333745  0.46666822  0.70531272
   0.13333560  0.46665327  0.17113155
   0.13333914  0.46666754  0.26710269
   0.13333772  0.26666703  0.60938802
   0.13333940  0.26666974  0.70531284
   0.13330718  0.26664546  0.17109042
   0.13333809  0.26665900  0.26710453
   0.13334201  0.06667045  0.60938648
   0.13333558  0.06666550  0.70531106
   0.13334916  0.06668402  0.17109207
   0.13331663  0.06666895  0.26709540
   0.13333578  0.66666844  0.26710318
   0.33333333  0.26666352  0.60938533
   0.33334547  0.46666970  0.26710698
   0.33332743  0.46666508  0.17112561
   0.53334010  0.86666256  0.26710252
   0.53334304  0.66667305  0.60938702
   0.53334306  0.66667144  0.70531265
   0.53333139  0.66667204  0.17112880
   0.53333847  0.66667105  0.26710526
   0.53333856  0.46667066  0.60939018
   0.53334015  0.46667132  0.70530893
   0.53334296  0.46666911  0.17113236
   0.53334053  0.46666956  0.26710052
   0.53333847  0.26666873  0.60938738
   0.53333904  0.26666949  0.70531128
   0.53333571  0.26666808  0.17113064
   0.53333383  0.26666902  0.26710455
   0.53333854  0.06666760  0.60939018
   0.93334155  0.86667104  0.70531173
   0.53335491  0.06667616  0.17113077
   0.53334277  0.06667468  0.26710236
   0.33333663  0.86667043  0.60938683
   0.33333595  0.86667023  0.70531318
   0.33334188  0.86666869  0.17113232
   0.33334046  0.86667438  0.26710228
   0.33333957  0.66667005  0.60938461
   0.33333835  0.66667020  0.70531475
   0.33333736  0.66666264  0.17113113
   0.33334157  0.66666615  0.26710547
   0.33333668  0.46666641  0.60938710
   0.33333826  0.46666761  0.70531244
   0.53334156  0.86667069  0.70531276
   0.93333813  0.86666659  0.60938610
Direct configuration=     5
   0.05514235  0.08674644  0.05690193
   0.95670882  0.01276827  0.06280200
   0.05962840  0.14421066  0.02216471
   0.96255776  0.10548057  0.00601736
   0.89849834  0.02313032  0.03154375
   0.01255469  0.86978214  0.99375394
   0.95586712  0.92653270  0.94032390
   0.92565082  0.85663925  0.97341417
   0.05941951  0.98098469  0.94011222
   0.09461629  0.94715732  0.97286369
  -0.00003552  0.99617513  0.00024928
   0.82017758  0.97749679  0.02769953
   0.85099663  0.80291318  0.98134315
   0.01540052  0.82818636  0.01998332
   0.90784833  0.93751192  0.91980174
   0.10373440  0.04331372  0.92039201
   0.93089784  0.95459747  0.08561418
   0.11716579  0.09409850  0.07430414
   0.12549765  0.20492131  0.00933214
   0.94111452  0.13415631  0.97996827
   0.17052963  0.97752808  0.98166611
   0.60002619  0.60002482  0.65735135
   0.20000582  0.80000057  0.21911462
   0.20001455  0.60000784  0.65735112
   0.60001268  0.79999809  0.21911811
   0.20000849  0.60000208  0.21911605
   0.60000808  0.80000453  0.65735167
   0.20002076  0.39999918  0.21912037
   0.80003348  0.00000774  0.21912251
   0.20000758  0.20000170  0.65735324
   0.80000410  0.00000515  0.65735357
   0.19998137  0.20000418  0.21910652
   0.20000267  0.80000419  0.65735167
   0.20000326  0.39999982  0.65735161
   0.59999571  0.60000579  0.21911018
   0.40000098  0.59999749  0.21911525
   0.39998339  0.00000102  0.65735169
   0.60000816  0.39999922  0.65735114
   0.39999380  0.19999365  0.21911753
   0.60000294  0.39999697  0.21911308
   0.39999277  0.19999552  0.65735043
   0.40000975  0.40002224  0.21911010
   0.60000800  0.20000814  0.65735147
   0.39998360  0.39998217  0.65735141
   0.60000493  0.20001191  0.21911424
   0.39999997  0.79999275  0.65735137
   0.40000005  0.60000846  0.65735142
   0.60002558  0.00000125  0.65735169
   0.39999977  0.79999422  0.21911523
   0.60000451 -0.00000438  0.21911396
   0.40000975  0.00000076  0.21911140
   0.80001625  0.20000039  0.21911541
   0.20000727  0.00000354  0.65735356
   0.19999661 -0.00000871  0.21912423
  -0.00000821  0.00004903  0.21907439
   0.80000577  0.79999995  0.65735347
   0.00000414  0.00000110  0.65734310
   0.79997917  0.79999598  0.21911094
   0.00000530  0.19997281  0.21911737
   0.00000099  0.20000222  0.65735350
   0.80001234  0.60001529  0.65735050
   0.00000312  0.40001119  0.21911296
   0.00000549  0.39998191  0.65735150
   0.00000577  0.59999678  0.21911098
   0.79999873  0.39999880  0.65735123
   0.00000561  0.60002476  0.65735165
   0.80001943  0.60002554  0.21911560
   0.79999986  0.40000094  0.21911445
   0.00000212  0.79999907  0.65735366
   0.00002205  0.79999900  0.21911570
   0.80001074  0.19999617  0.65735074
   0.93331834  0.06670122  0.17086702
   0.73333801  0.26666901  0.60916581
   0.73333792  0.26667015  0.70553305
   0.93333929  0.66667044  0.70553544
   0.93333880  0.66667068  0.60916501
   0.73334563  0.26666652  0.17088066
   0.73334074  0.26666812  0.26735380
   0.93333373  0.46666713  0.26735530
   0.73333932  0.06666870  0.60916523
   0.73333840  0.06666868  0.70553471
   0.93333783  0.06666847  0.70553279
   0.93331603  0.86668295  0.17084690
   0.73335393  0.06667323  0.17086933
   0.93333859  0.06666852  0.60916611
   0.73333608  0.06666614  0.26735304
   0.93334438  0.26666024  0.17087048
   0.93333858  0.26666946  0.70553473
   0.93333854  0.86667789  0.26735751
   0.73334144  0.46667324  0.26735284
   0.73334125  0.46666986  0.17088193
   0.73337115  0.86669896  0.17085369
   0.73333844  0.86666831  0.70553421
   0.73335050  0.86667234  0.26735592
   0.93333590  0.46665974  0.17087759
   0.73334039  0.86667029  0.60916633