 vasp.5.4.4.18Apr17-6-g9f103f2a35 (build Oct 28 2020 13:00:36) gamma-only       
  
 executed on             LinuxIFC date 2020.12.04  15:45:27
 running on   52 total cores
 distrk:  each k-point on   52 cores,    1 groups
 distr:  one band on NCORES_PER_BAND=   4 cores,   13 groups
