 171 171   0   0
  0.4145774E+02  0.1590000E-08  0.1590000E-08  0.3238000E-08  0.5000000E-15
  1.000000000000000E-004
  CAR 
 basalPlane                              
      2.25341464    -19.10265620  301      0.17358136      1.00000000
    -19.103  0.0000E+00  0.0000E+00
    -19.031  0.0000E+00  0.0000E+00
    -18.960  0.0000E+00  0.0000E+00
    -18.889  0.0000E+00  0.0000E+00
    -18.818  0.0000E+00  0.0000E+00
    -18.747  0.0000E+00  0.0000E+00
    -18.676  0.7798E-18  0.5551E-19
    -18.604  0.1816E-14  0.1294E-15
    -18.533  0.1602E-11  0.1141E-12
    -18.462  0.5244E-09  0.3744E-10
    -18.391  0.6417E-07  0.4606E-08
    -18.320  0.2962E-05  0.2155E-06
    -18.248  0.5214E-04  0.3927E-05
    -18.177  0.3545E-03  0.2916E-04
    -18.106  0.9415E-03  0.9618E-04
    -18.035  0.9841E-03  0.1662E-03
    -17.964  0.4068E-03  0.1952E-03
    -17.892  0.1029E-03  0.2025E-03
    -17.821  0.2944E-03  0.2235E-03
    -17.750  0.8730E-03  0.2856E-03
    -17.679  0.1032E-02  0.3591E-03
    -17.608  0.4806E-03  0.3933E-03
    -17.537  0.8761E-04  0.3995E-03
    -17.465  0.6185E-05  0.4000E-03
    -17.394  0.1670E-06  0.4000E-03
    -17.323  0.1705E-08  0.4000E-03
    -17.252  0.6518E-11  0.4000E-03
    -17.181  0.9263E-14  0.4000E-03
    -17.109  0.4991E-17  0.4000E-03
    -17.038  0.0000E+00  0.4000E-03
    -16.967  0.0000E+00  0.4000E-03
    -16.896  0.0000E+00  0.4000E-03
    -16.825  0.0000E+00  0.4000E-03
    -16.753  0.0000E+00  0.4000E-03
    -16.682  0.0000E+00  0.4000E-03
    -16.611  0.0000E+00  0.4000E-03
    -16.540  0.0000E+00  0.4000E-03
    -16.469  0.0000E+00  0.4000E-03
    -16.398  0.0000E+00  0.4000E-03
    -16.326  0.0000E+00  0.4000E-03
    -16.255  0.0000E+00  0.4000E-03
    -16.184  0.0000E+00  0.4000E-03
    -16.113  0.3119E-18  0.4000E-03
    -16.042  0.8373E-15  0.4000E-03
    -15.970  0.8996E-12  0.4000E-03
    -15.899  0.3584E-09  0.4000E-03
    -15.828  0.5331E-07  0.4000E-03
    -15.757  0.2985E-05  0.4002E-03
    -15.686  0.6358E-04  0.4047E-03
    -15.614  0.5218E-03  0.4419E-03
    -15.543  0.1670E-02  0.5608E-03
    -15.472  0.2101E-02  0.7103E-03
    -15.401  0.1041E-02  0.7845E-03
    -15.330  0.2023E-03  0.7989E-03
    -15.259  0.1865E-04  0.8002E-03
    -15.187  0.1119E-03  0.8082E-03
    -15.116  0.1389E-02  0.9071E-03
    -15.045  0.6725E-02  0.1386E-02
    -14.974  0.1277E-01  0.2295E-02
    -14.903  0.9561E-02  0.2975E-02
    -14.831  0.2816E-02  0.3176E-02
    -14.760  0.3235E-03  0.3199E-02
    -14.689  0.1451E-04  0.3200E-02
    -14.618  0.8361E-05  0.3201E-02
    -14.547  0.1304E-03  0.3210E-02
    -14.476  0.8106E-03  0.3268E-02
    -14.404  0.1989E-02  0.3409E-02
    -14.333  0.2360E-02  0.3577E-02
    -14.262  0.5109E-02  0.3941E-02
    -14.191  0.1656E-01  0.5120E-02
    -14.120  0.2543E-01  0.6930E-02
    -14.048  0.1755E-01  0.8179E-02
    -13.977  0.1111E-01  0.8970E-02
    -13.906  0.1343E-01  0.9927E-02
    -13.835  0.1127E-01  0.1073E-01
    -13.764  0.1118E-01  0.1152E-01
    -13.692  0.1869E-01  0.1285E-01
    -13.621  0.2605E-01  0.1471E-01
    -13.550  0.2947E-01  0.1681E-01
    -13.479  0.2481E-01  0.1857E-01
    -13.408  0.1891E-01  0.1992E-01
    -13.337  0.1271E-01  0.2082E-01
    -13.265  0.4561E-02  0.2115E-01
    -13.194  0.6835E-03  0.2120E-01
    -13.123  0.4010E-04  0.2120E-01
    -13.052  0.9008E-06  0.2120E-01
    -12.981  0.7646E-08  0.2120E-01
    -12.909  0.2429E-10  0.2120E-01
    -12.838  0.2869E-13  0.2120E-01
    -12.767  0.1248E-16  0.2120E-01
    -12.696  0.0000E+00  0.2120E-01
    -12.625  0.0000E+00  0.2120E-01
    -12.553  0.0000E+00  0.2120E-01
    -12.482  0.0000E+00  0.2120E-01
    -12.411  0.0000E+00  0.2120E-01
    -12.340  0.0000E+00  0.2120E-01
    -12.269  0.0000E+00  0.2120E-01
    -12.198  0.0000E+00  0.2120E-01
    -12.126  0.0000E+00  0.2120E-01
    -12.055  0.0000E+00  0.2120E-01
    -11.984  0.0000E+00  0.2120E-01
    -11.913  0.0000E+00  0.2120E-01
    -11.842  0.0000E+00  0.2120E-01
    -11.770  0.0000E+00  0.2120E-01
    -11.699  0.0000E+00  0.2120E-01
    -11.628  0.0000E+00  0.2120E-01
    -11.557  0.0000E+00  0.2120E-01
    -11.486  0.0000E+00  0.2120E-01
    -11.414  0.0000E+00  0.2120E-01
    -11.343  0.0000E+00  0.2120E-01
    -11.272  0.0000E+00  0.2120E-01
    -11.201  0.0000E+00  0.2120E-01
    -11.130  0.0000E+00  0.2120E-01
    -11.059  0.0000E+00  0.2120E-01
    -10.987  0.0000E+00  0.2120E-01
    -10.916  0.0000E+00  0.2120E-01
    -10.845  0.0000E+00  0.2120E-01
    -10.774  0.0000E+00  0.2120E-01
    -10.703  0.0000E+00  0.2120E-01
    -10.631  0.0000E+00  0.2120E-01
    -10.560  0.0000E+00  0.2120E-01
    -10.489  0.0000E+00  0.2120E-01
    -10.418  0.0000E+00  0.2120E-01
    -10.347  0.0000E+00  0.2120E-01
    -10.275  0.0000E+00  0.2120E-01
    -10.204  0.0000E+00  0.2120E-01
    -10.133  0.0000E+00  0.2120E-01
    -10.062  0.0000E+00  0.2120E-01
     -9.991  0.0000E+00  0.2120E-01
     -9.920  0.1089E-15  0.2120E-01
     -9.848  0.1417E-12  0.2120E-01
     -9.777  0.6886E-10  0.2120E-01
     -9.706  0.1262E-07  0.2120E-01
     -9.635  0.8839E-06  0.2120E-01
     -9.564  0.2410E-04  0.2120E-01
     -9.492  0.2616E-03  0.2122E-01
     -9.421  0.1166E-02  0.2130E-01
     -9.350  0.2317E-02  0.2147E-01
     -9.279  0.2712E-02  0.2166E-01
     -9.208  0.2783E-02  0.2186E-01
     -9.136  0.2347E-02  0.2203E-01
     -9.065  0.1558E-02  0.2214E-01
     -8.994  0.7641E-03  0.2219E-01
     -8.923  0.5238E-03  0.2223E-01
     -8.852  0.9666E-03  0.2230E-01
     -8.781  0.9750E-03  0.2237E-01
     -8.709  0.3926E-03  0.2240E-01
     -8.638  0.6184E-04  0.2240E-01
     -8.567  0.3765E-05  0.2240E-01
     -8.496  0.8749E-07  0.2240E-01
     -8.425  0.7675E-09  0.2240E-01
     -8.353  0.2518E-11  0.2240E-01
     -8.282  0.3069E-14  0.2240E-01
     -8.211  0.1248E-17  0.2240E-01
     -8.140  0.0000E+00  0.2240E-01
     -8.069  0.0000E+00  0.2240E-01
     -7.997  0.0000E+00  0.2240E-01
     -7.926  0.0000E+00  0.2240E-01
     -7.855  0.0000E+00  0.2240E-01
     -7.784  0.0000E+00  0.2240E-01
     -7.713  0.0000E+00  0.2240E-01
     -7.642  0.4679E-18  0.2240E-01
     -7.570  0.1307E-14  0.2240E-01
     -7.499  0.1326E-11  0.2240E-01
     -7.428  0.4999E-09  0.2240E-01
     -7.357  0.7100E-07  0.2240E-01
     -7.286  0.3895E-05  0.2240E-01
     -7.214  0.8710E-04  0.2241E-01
     -7.143  0.8768E-03  0.2247E-01
     -7.072  0.4437E-02  0.2278E-01
     -7.001  0.1145E-01  0.2360E-01
     -6.930  0.1380E-01  0.2458E-01
     -6.859  0.7303E-02  0.2510E-01
     -6.787  0.3813E-02  0.2537E-01
     -6.716  0.1074E-01  0.2614E-01
     -6.645  0.2254E-01  0.2774E-01
     -6.574  0.2769E-01  0.2971E-01
     -6.503  0.2811E-01  0.3171E-01
     -6.431  0.2518E-01  0.3351E-01
     -6.360  0.1397E-01  0.3450E-01
     -6.289  0.3798E-02  0.3477E-01
     -6.218  0.1183E-02  0.3486E-01
     -6.147  0.4493E-02  0.3518E-01
     -6.075  0.1169E-01  0.3601E-01
     -6.004  0.1286E-01  0.3692E-01
     -5.933  0.6220E-02  0.3737E-01
     -5.862  0.2687E-02  0.3756E-01
     -5.791  0.2657E-02  0.3775E-01
     -5.720  0.4946E-02  0.3810E-01
     -5.648  0.1218E-01  0.3897E-01
     -5.577  0.1591E-01  0.4010E-01
     -5.506  0.1498E-01  0.4116E-01
     -5.435  0.2097E-01  0.4266E-01
     -5.364  0.2326E-01  0.4431E-01
     -5.292  0.1613E-01  0.4546E-01
     -5.221  0.1466E-01  0.4650E-01
     -5.150  0.1616E-01  0.4765E-01
     -5.079  0.1239E-01  0.4854E-01
     -5.008  0.1298E-01  0.4946E-01
     -4.936  0.1598E-01  0.5060E-01
     -4.865  0.1485E-01  0.5165E-01
     -4.794  0.1530E-01  0.5274E-01
     -4.723  0.1534E-01  0.5384E-01
     -4.652  0.2128E-01  0.5535E-01
     -4.581  0.2609E-01  0.5721E-01
     -4.509  0.1919E-01  0.5857E-01
     -4.438  0.1530E-01  0.5966E-01
     -4.367  0.1187E-01  0.6051E-01
     -4.296  0.7744E-02  0.6106E-01
     -4.225  0.1132E-01  0.6187E-01
     -4.153  0.1231E-01  0.6274E-01
     -4.082  0.6111E-02  0.6318E-01
     -4.011  0.3618E-02  0.6343E-01
     -3.940  0.4408E-02  0.6375E-01
     -3.869  0.3107E-02  0.6397E-01
     -3.797  0.3728E-02  0.6424E-01
     -3.726  0.1198E-01  0.6509E-01
     -3.655  0.2318E-01  0.6674E-01
     -3.584  0.2805E-01  0.6873E-01
     -3.513  0.2687E-01  0.7065E-01
     -3.442  0.2861E-01  0.7268E-01
     -3.370  0.3029E-01  0.7484E-01
     -3.299  0.1733E-01  0.7607E-01
     -3.228  0.4171E-02  0.7637E-01
     -3.157  0.4015E-03  0.7640E-01
     -3.086  0.7027E-04  0.7640E-01
     -3.014  0.7405E-03  0.7646E-01
     -2.943  0.4464E-02  0.7677E-01
     -2.872  0.1317E-01  0.7771E-01
     -2.801  0.2120E-01  0.7922E-01
     -2.730  0.2203E-01  0.8079E-01
     -2.658  0.1622E-01  0.8194E-01
     -2.587  0.1164E-01  0.8277E-01
     -2.516  0.1517E-01  0.8385E-01
     -2.445  0.1870E-01  0.8518E-01
     -2.374  0.1891E-01  0.8653E-01
     -2.303  0.1784E-01  0.8780E-01
     -2.231  0.1618E-01  0.8895E-01
     -2.160  0.1261E-01  0.8985E-01
     -2.089  0.1361E-01  0.9082E-01
     -2.018  0.1389E-01  0.9181E-01
     -1.947  0.6934E-02  0.9230E-01
     -1.875  0.2822E-02  0.9250E-01
     -1.804  0.7165E-02  0.9301E-01
     -1.733  0.1401E-01  0.9401E-01
     -1.662  0.1165E-01  0.9484E-01
     -1.591  0.4282E-02  0.9514E-01
     -1.519  0.7307E-03  0.9520E-01
     -1.448  0.5832E-04  0.9520E-01
     -1.377  0.2065E-05  0.9520E-01
     -1.306  0.3021E-07  0.9520E-01
     -1.235  0.1729E-09  0.9520E-01
     -1.164  0.3759E-12  0.9520E-01
     -1.092  0.3041E-15  0.9520E-01
     -1.021  0.0000E+00  0.9520E-01
     -0.950  0.0000E+00  0.9520E-01
     -0.879  0.0000E+00  0.9520E-01
     -0.808  0.0000E+00  0.9520E-01
     -0.736  0.0000E+00  0.9520E-01
     -0.665  0.0000E+00  0.9520E-01
     -0.594  0.1716E-17  0.9520E-01
     -0.523  0.3834E-14  0.9520E-01
     -0.452  0.3051E-11  0.9520E-01
     -0.381  0.9020E-09  0.9520E-01
     -0.309  0.9975E-07  0.9520E-01
     -0.238  0.4165E-05  0.9520E-01
     -0.167  0.6642E-04  0.9521E-01
     -0.096  0.4100E-03  0.9523E-01
     -0.025  0.1003E-02  0.9531E-01
      0.047  0.1127E-02  0.9539E-01
      0.118  0.1313E-02  0.9548E-01
      0.189  0.2288E-02  0.9564E-01
      0.260  0.4116E-02  0.9594E-01
      0.331  0.9774E-02  0.9663E-01
      0.403  0.1639E-01  0.9780E-01
      0.474  0.2206E-01  0.9937E-01
      0.545  0.2990E-01  0.1015E+00
      0.616  0.2873E-01  0.1035E+00
      0.687  0.1820E-01  0.1048E+00
      0.758  0.7966E-02  0.1054E+00
      0.830  0.1011E-01  0.1061E+00
      0.901  0.2749E-01  0.1081E+00
      0.972  0.3854E-01  0.1108E+00
      1.043  0.3037E-01  0.1130E+00
      1.114  0.1968E-01  0.1144E+00
      1.186  0.1344E-01  0.1153E+00
      1.257  0.1200E-01  0.1162E+00
      1.328  0.8267E-02  0.1168E+00
      1.399  0.2636E-02  0.1170E+00
      1.470  0.3450E-03  0.1170E+00
      1.542  0.1795E-04  0.1170E+00
      1.613  0.3632E-06  0.1170E+00
      1.684  0.2812E-08  0.1170E+00
      1.755  0.8216E-11  0.1170E+00
      1.826  0.8969E-14  0.1170E+00
      1.897  0.3743E-17  0.1170E+00
      1.969  0.0000E+00  0.1170E+00
      2.040  0.0000E+00  0.1170E+00
      2.111  0.0000E+00  0.1170E+00
      2.182  0.0000E+00  0.1170E+00
      2.253  0.0000E+00  0.1170E+00
