       N       E                     dE             d eps       ncg     rms          rms(c)
DAV:   1     0.766127502840E+04    0.76613E+04   -0.36389E+05  1196   0.112E+03
DAV:   2    -0.260515392689E+03   -0.79218E+04   -0.76880E+04  1612   0.268E+02
DAV:   3    -0.126303474147E+04   -0.10025E+04   -0.98865E+03  1378   0.102E+02
DAV:   4    -0.132097501070E+04   -0.57940E+02   -0.57609E+02  1768   0.300E+01
DAV:   5    -0.132311265219E+04   -0.21376E+01   -0.21269E+01  1794   0.494E+00    0.169E+02
DAV:   6    -0.127629533675E+04    0.46817E+02   -0.94400E+02  1625   0.273E+01    0.923E+01
DAV:   7    -0.129622021758E+04   -0.19925E+02   -0.11796E+03  1794   0.475E+01    0.551E+01
DAV:   8    -0.123218880478E+04    0.64031E+02   -0.61108E+01  1456   0.760E+00    0.309E+01
DAV:   9    -0.123963048018E+04   -0.74417E+01   -0.19407E+02  1807   0.990E+00    0.321E+01
DAV:  10    -0.122191050185E+04    0.17720E+02   -0.93830E+01  1911   0.154E+01    0.182E+01
DAV:  11    -0.122479086083E+04   -0.28804E+01   -0.23854E+01  1768   0.249E+00    0.157E+01
DAV:  12    -0.122439951530E+04    0.39135E+00   -0.82166E-01  1612   0.489E-01    0.153E+01
DAV:  13    -0.122389895437E+04    0.50056E+00   -0.12997E+00  1599   0.733E-01    0.176E+01
DAV:  14    -0.122418522831E+04   -0.28627E+00   -0.19369E+01  1794   0.239E+00    0.187E+01
DAV:  15    -0.122631878203E+04   -0.21336E+01   -0.62423E+00  1833   0.190E+00    0.204E+01
DAV:  16    -0.122877659577E+04   -0.24578E+01   -0.31459E+00  1742   0.160E+00    0.214E+01
DAV:  17    -0.122710182217E+04    0.16748E+01   -0.20582E+00  1729   0.116E+00    0.203E+01
DAV:  18    -0.122680448626E+04    0.29734E+00   -0.21371E+00  1755   0.957E-01    0.193E+01
DAV:  19    -0.122717810269E+04   -0.37362E+00   -0.52997E+00  1612   0.577E-01    0.185E+01
DAV:  20    -0.122677354033E+04    0.40456E+00   -0.11049E-01  1586   0.340E-01    0.178E+01
DAV:  21    -0.122696534146E+04   -0.19180E+00   -0.28095E+00  1729   0.601E-01    0.181E+01
DAV:  22    -0.122690504382E+04    0.60298E-01   -0.54412E-01  1651   0.755E-01    0.175E+01
DAV:  23    -0.122709257250E+04   -0.18753E+00   -0.29120E-01  1677   0.347E-01    0.189E+01
DAV:  24    -0.122702598083E+04    0.66592E-01   -0.38782E-02  1703   0.203E-01    0.177E+01
DAV:  25    -0.122694125558E+04    0.84725E-01   -0.15960E-02  1612   0.965E-02    0.176E+01
DAV:  26    -0.122697138722E+04   -0.30132E-01   -0.68751E-03  1573   0.827E-02    0.177E+01
DAV:  27    -0.122674710823E+04    0.22428E+00   -0.35208E-02  1716   0.156E-01    0.176E+01
DAV:  28    -0.122658769215E+04    0.15942E+00   -0.56187E-02  1651   0.125E-01    0.171E+01
DAV:  29    -0.122638680210E+04    0.20089E+00   -0.42474E-02  1677   0.128E-01    0.171E+01
DAV:  30    -0.122629107127E+04    0.95731E-01   -0.99685E-03  1560   0.687E-02    0.171E+01
DAV:  31    -0.122626925542E+04    0.21816E-01   -0.11317E-02  1339   0.606E-02    0.172E+01
DAV:  32    -0.122619744385E+04    0.71812E-01   -0.17333E-02  1482   0.801E-02    0.167E+01
DAV:  33    -0.122613211590E+04    0.65328E-01   -0.19589E-02  1430   0.772E-02    0.168E+01
DAV:  34    -0.122606430415E+04    0.67812E-01   -0.23265E-02  1404   0.675E-02    0.164E+01
DAV:  35    -0.122600099361E+04    0.63311E-01   -0.22616E-02  1378   0.774E-02    0.164E+01
DAV:  36    -0.122590060295E+04    0.10039E+00   -0.22210E-02  1456   0.748E-02    0.161E+01
DAV:  37    -0.122580557215E+04    0.95031E-01   -0.30101E-02  1469   0.955E-02    0.161E+01
DAV:  38    -0.122574510658E+04    0.60466E-01   -0.38176E-02  1365   0.684E-02    0.157E+01
DAV:  39    -0.122565497962E+04    0.90127E-01   -0.32957E-02  1378   0.862E-02    0.157E+01
DAV:  40    -0.122557514700E+04    0.79833E-01   -0.64560E-02  1365   0.702E-02    0.152E+01
DAV:  41    -0.122548738428E+04    0.87763E-01   -0.62161E-02  1378   0.869E-02    0.153E+01
DAV:  42    -0.122537624438E+04    0.11114E+00   -0.15037E-01  1443   0.904E-02    0.147E+01
DAV:  43    -0.122524440924E+04    0.13184E+00   -0.15071E-01  1469   0.110E-01    0.147E+01
DAV:  44    -0.122512934981E+04    0.11506E+00   -0.38332E-01  1443   0.102E-01    0.141E+01
DAV:  45    -0.122495166012E+04    0.17769E+00   -0.48107E-01  1547   0.148E-01    0.140E+01
DAV:  46    -0.122480517449E+04    0.14649E+00   -0.10453E+00  1521   0.138E-01    0.131E+01
DAV:  47    -0.122460854129E+04    0.19663E+00   -0.13385E+00  1573   0.194E-01    0.131E+01
DAV:  48    -0.122448735350E+04    0.12119E+00   -0.24121E+00  1534   0.174E-01    0.120E+01
DAV:  49    -0.122431155860E+04    0.17579E+00   -0.21492E+00  1638   0.221E-01    0.122E+01
DAV:  50    -0.122421133797E+04    0.10022E+00   -0.34579E+00  1560   0.168E-01    0.109E+01
DAV:  51    -0.122416715737E+04    0.44181E-01   -0.23403E+00  1495   0.169E-01    0.114E+01
DAV:  52    -0.122404994328E+04    0.11721E+00   -0.27246E+00  1456   0.166E-01    0.101E+01
DAV:  53    -0.122401590202E+04    0.34041E-01   -0.22189E+00  1495   0.163E-01    0.107E+01
DAV:  54    -0.122391336114E+04    0.10254E+00   -0.22287E+00  1443   0.155E-01    0.947E+00
DAV:  55    -0.122390245678E+04    0.10904E-01   -0.29225E+00  1417   0.159E-01    0.101E+01
DAV:  56    -0.122441166313E+04   -0.50921E+00   -0.28074E+01  1690   0.203E+00    0.129E+01
DAV:  57    -0.122400314061E+04    0.40852E+00   -0.20967E-01  1430   0.309E-01    0.123E+01
DAV:  58    -0.122393129850E+04    0.71842E-01   -0.63234E-02  1482   0.964E-02    0.124E+01
DAV:  59    -0.122395413657E+04   -0.22838E-01   -0.47807E-02  1248   0.640E-02    0.125E+01
DAV:  60    -0.122388903130E+04    0.65105E-01   -0.41337E-02  1209   0.596E-02    0.118E+01
DAV:  61    -0.122391005732E+04   -0.21026E-01   -0.28535E-01  1586   0.140E-01    0.116E+01
DAV:  62    -0.122395008233E+04   -0.40025E-01   -0.16199E-01  1417   0.719E-02    0.120E+01
DAV:  63    -0.122391660844E+04    0.33474E-01   -0.96895E-02  1378   0.719E-02    0.122E+01
DAV:  64    -0.122391580568E+04    0.80277E-03   -0.78837E-02  1235   0.570E-02    0.122E+01
DAV:  65    -0.122381423785E+04    0.10157E+00   -0.12766E-01  1339   0.801E-02    0.107E+01
DAV:  66    -0.122376458963E+04    0.49648E-01   -0.33878E-01  1508   0.932E-02    0.905E+00
DAV:  67    -0.122377817295E+04   -0.13583E-01   -0.63156E-01  1287   0.756E-02    0.928E+00
DAV:  68    -0.122372780835E+04    0.50365E-01   -0.70151E-01  1547   0.139E-01    0.811E+00
DAV:  69    -0.122371861857E+04    0.91898E-02   -0.46076E-01  1352   0.806E-02    0.820E+00
DAV:  70    -0.122370832501E+04    0.10294E-01   -0.26891E-01  1209   0.589E-02    0.791E+00
DAV:  71    -0.122370438872E+04    0.39363E-02   -0.15714E-01  1443   0.964E-02    0.756E+00
DAV:  72    -0.122372862827E+04   -0.24240E-01   -0.74948E-02  1339   0.559E-02    0.779E+00
DAV:  73    -0.122370521969E+04    0.23409E-01   -0.35015E-02  1274   0.515E-02    0.791E+00
DAV:  74    -0.122381019072E+04   -0.10497E+00   -0.20260E-01  1534   0.144E-01    0.106E+01
DAV:  75    -0.122373172430E+04    0.78466E-01   -0.24005E-02  1391   0.778E-02    0.102E+01
DAV:  76    -0.122367980815E+04    0.51916E-01   -0.46469E-02  1352   0.665E-02    0.963E+00
DAV:  77    -0.122362688610E+04    0.52922E-01   -0.21204E-02  1196   0.598E-02    0.935E+00
DAV:  78    -0.122356594655E+04    0.60940E-01   -0.24056E-02  1235   0.512E-02    0.906E+00
DAV:  79    -0.122352238327E+04    0.43563E-01   -0.15556E-02  1235   0.355E-02    0.915E+00
DAV:  80    -0.122348130804E+04    0.41075E-01   -0.15828E-02  1170   0.395E-02    0.947E+00
DAV:  81    -0.122365941075E+04   -0.17810E+00   -0.64514E-02  1482   0.127E-01    0.120E+01
DAV:  82    -0.122372514328E+04   -0.65733E-01   -0.65254E-03  1456   0.813E-02    0.121E+01
DAV:  83    -0.122371174207E+04    0.13401E-01   -0.11049E-03  1170   0.291E-02    0.119E+01
DAV:  84    -0.122371208148E+04   -0.33941E-03   -0.92523E-05   949   0.975E-03    0.120E+01
DAV:  85    -0.122373596219E+04   -0.23881E-01   -0.21837E-04   988   0.147E-02    0.125E+01
DAV:  86    -0.122375157303E+04   -0.15611E-01   -0.63392E-03  1261   0.608E-02    0.138E+01
DAV:  87    -0.122374135008E+04    0.10223E-01   -0.10607E-03  1170   0.258E-02    0.130E+01
DAV:  88    -0.122380444622E+04   -0.63096E-01   -0.11894E-03  1079   0.289E-02    0.143E+01
DAV:  89    -0.122382265343E+04   -0.18207E-01   -0.46505E-04  1118   0.215E-02    0.141E+01
DAV:  90    -0.122388815093E+04   -0.65497E-01   -0.77157E-04   988   0.279E-02    0.151E+01
DAV:  91    -0.122353276894E+04    0.35538E+00   -0.14777E-01  1482   0.268E-01    0.157E+01
DAV:  92    -0.122351167526E+04    0.21094E-01   -0.43380E-03  1209   0.476E-02    0.153E+01
DAV:  93    -0.122355591944E+04   -0.44244E-01   -0.15284E-02  1391   0.545E-02    0.164E+01
DAV:  94    -0.122358003491E+04   -0.24115E-01   -0.10526E-03  1222   0.335E-02    0.165E+01
DAV:  95    -0.122369423206E+04   -0.11420E+00   -0.67258E-02  1495   0.164E-01    0.184E+01
DAV:  96    -0.122378297236E+04   -0.88740E-01   -0.53423E-01  1625   0.525E-01    0.124E+01
DAV:  97    -0.122331815108E+04    0.46482E+00   -0.51239E-01  1534   0.454E-01    0.765E+00
DAV:  98    -0.122331965732E+04   -0.15062E-02   -0.71316E-01  1625   0.379E-01    0.135E+01
DAV:  99    -0.122321176163E+04    0.10790E+00   -0.24252E-01  1508   0.165E-01    0.619E+00
DAV: 100    -0.122310684943E+04    0.10491E+00   -0.59509E-01  1508   0.143E-01    0.103E+01
DAV: 101    -0.122335075525E+04   -0.24391E+00   -0.29373E-01  1625   0.203E-01    0.135E+01
DAV: 102    -0.122318998457E+04    0.16077E+00   -0.77721E-02  1599   0.126E-01    0.818E+00
DAV: 103    -0.122313474167E+04    0.55243E-01   -0.21049E-02  1508   0.844E-02    0.964E+00
DAV: 104    -0.122305592194E+04    0.78820E-01   -0.37435E-02  1391   0.710E-02    0.634E+00
DAV: 105    -0.122302830803E+04    0.27614E-01   -0.33385E-02  1404   0.576E-02    0.754E+00
DAV: 106    -0.122300755816E+04    0.20750E-01   -0.19286E-02  1131   0.345E-02    0.603E+00
DAV: 107    -0.122297301700E+04    0.34541E-01   -0.23049E-02  1235   0.413E-02    0.590E+00
DAV: 108    -0.122293042003E+04    0.42597E-01   -0.31950E-03  1131   0.353E-02    0.453E+00
DAV: 109    -0.122286913433E+04    0.61286E-01   -0.11803E-02  1326   0.569E-02    0.356E+00
DAV: 110    -0.122281726698E+04    0.51867E-01   -0.15317E-02  1469   0.617E-02    0.282E+00
DAV: 111    -0.122277520515E+04    0.42062E-01   -0.97602E-03  1469   0.604E-02    0.230E+00
DAV: 112    -0.122277395442E+04    0.12507E-02   -0.12657E-03  1274   0.276E-02    0.220E+00
DAV: 113    -0.122277235676E+04    0.15977E-02   -0.33413E-04  1079   0.136E-02    0.214E+00
DAV: 114    -0.122277266150E+04   -0.30474E-03   -0.12696E-04   780   0.868E-03    0.210E+00
DAV: 115    -0.122277886558E+04   -0.62041E-02   -0.29147E-03  1209   0.362E-02    0.167E+00
DAV: 116    -0.122277735958E+04    0.15060E-02   -0.12042E-03  1144   0.215E-02    0.183E+00
DAV: 117    -0.122278614490E+04   -0.87853E-02   -0.25930E-03  1092   0.335E-02    0.133E+00
DAV: 118    -0.122278808216E+04   -0.19373E-02   -0.19172E-03  1274   0.295E-02    0.118E+00
DAV: 119    -0.122279120132E+04   -0.31192E-02   -0.76077E-04  1079   0.216E-02    0.948E-01
DAV: 120    -0.122279585211E+04   -0.46508E-02   -0.18381E-03  1209   0.331E-02    0.773E-01
DAV: 121    -0.122280019239E+04   -0.43403E-02   -0.16690E-03  1313   0.303E-02    0.834E-01
DAV: 122    -0.122279896482E+04    0.12276E-02   -0.11031E-03  1131   0.253E-02    0.831E-01
DAV: 123    -0.122279965700E+04   -0.69219E-03   -0.36499E-04  1027   0.128E-02    0.844E-01
DAV: 124    -0.122279937686E+04    0.28014E-03   -0.23827E-04   741   0.788E-03    0.843E-01
DAV: 125    -0.122279901007E+04    0.36680E-03   -0.44476E-04   702   0.644E-03    0.838E-01
DAV: 126    -0.122279368530E+04    0.53248E-02   -0.21655E-02  1482   0.110E-01    0.122E+00
DAV: 127    -0.122279310093E+04    0.58437E-03   -0.11472E-02  1443   0.789E-02    0.100E+00
DAV: 128    -0.122279117651E+04    0.19244E-02   -0.22068E-03  1274   0.357E-02    0.122E+00
DAV: 129    -0.122278555585E+04    0.56207E-02   -0.11054E-02  1248   0.419E-02    0.131E+00
DAV: 130    -0.122278932629E+04   -0.37704E-02   -0.33589E-03  1105   0.337E-02    0.104E+00
DAV: 131    -0.122278557930E+04    0.37470E-02   -0.86318E-03  1222   0.480E-02    0.137E+00
DAV: 132    -0.122278829742E+04   -0.27181E-02   -0.32055E-03  1144   0.360E-02    0.901E-01
DAV: 133    -0.122278836515E+04   -0.67732E-04   -0.52654E-03  1235   0.445E-02    0.815E-01
DAV: 134    -0.122278699097E+04    0.13742E-02   -0.17327E-03  1053   0.226E-02    0.504E-01
DAV: 135    -0.122278818067E+04   -0.11897E-02   -0.26936E-03  1053   0.243E-02    0.561E-01
DAV: 136    -0.122278777893E+04    0.40174E-03   -0.19384E-03  1157   0.255E-02    0.292E-01
DAV: 137    -0.122278826689E+04   -0.48796E-03   -0.77229E-04  1040   0.207E-02    0.392E-01
DAV: 138    -0.122278795355E+04    0.31334E-03   -0.98668E-04   910   0.156E-02    0.240E-01
DAV: 139    -0.122278825596E+04   -0.30242E-03   -0.39812E-04   819   0.118E-02    0.325E-01
DAV: 140    -0.122278811235E+04    0.14362E-03   -0.30849E-04   715   0.887E-03    0.260E-01
DAV: 141    -0.122278820622E+04   -0.93873E-04   -0.66317E-05   754   0.779E-03
   1 F= -.12532417E+04 E0= -.12531733E+04  d E =-.125324E+04
       N       E                     dE             d eps       ncg     rms          rms(c)
DAV:   1    -0.122278862668E+04   -0.51433E-03   -0.11700E-01  1170   0.238E-01    0.326E-01
DAV:   2    -0.122282026912E+04   -0.31642E-01   -0.12085E-01  1677   0.242E-01    0.137E+00
DAV:   3    -0.122279052608E+04    0.29743E-01   -0.78739E-02  1508   0.181E-01    0.560E-01
DAV:   4    -0.122278899603E+04    0.15301E-02   -0.30391E-03  1235   0.328E-02    0.376E-01
DAV:   5    -0.122278877701E+04    0.21901E-03   -0.23071E-03  1248   0.341E-02    0.291E-01
DAV:   6    -0.122278846326E+04    0.31376E-03   -0.60762E-04   975   0.200E-02    0.156E-01
DAV:   7    -0.122278842213E+04    0.41124E-04   -0.21080E-04   845   0.123E-02
   2 F= -.12532416E+04 E0= -.12531753E+04  d E =0.142417E-03
       N       E                     dE             d eps       ncg     rms          rms(c)
DAV:   1    -0.122278826100E+04    0.20225E-03   -0.15550E-02  1157   0.856E-02    0.726E-02
DAV:   2    -0.122279088713E+04   -0.26261E-02   -0.54557E-03  1092   0.428E-02    0.857E-01
DAV:   3    -0.122278870516E+04    0.21820E-02   -0.50098E-03  1027   0.377E-02    0.177E-01
DAV:   4    -0.122278849128E+04    0.21387E-03   -0.75249E-04   806   0.116E-02    0.180E-01
DAV:   5    -0.122278828665E+04    0.20463E-03   -0.41872E-04   728   0.778E-03    0.246E-02
DAV:   6    -0.122278833333E+04   -0.46680E-04   -0.17783E-04   676   0.540E-03
   3 F= -.12532416E+04 E0= -.12531760E+04  d E =0.101864E-03
       N       E                     dE             d eps       ncg     rms          rms(c)
DAV:   1    -0.122278823723E+04    0.49419E-04   -0.12440E-03  1014   0.236E-02    0.155E-02
DAV:   2    -0.122278830521E+04   -0.67980E-04   -0.24629E-04   767   0.772E-03
   4 F= -.12532417E+04 E0= -.12531776E+04  d E =0.942312E-04
       N       E                     dE             d eps       ncg     rms          rms(c)
DAV:   1    -0.122278821211E+04    0.25123E-04   -0.83900E-04   910   0.197E-02    0.251E-02
DAV:   2    -0.122278825310E+04   -0.40986E-04   -0.90073E-05   689   0.688E-03
   5 F= -.12532416E+04 E0= -.12531777E+04  d E =0.119392E-03
       N       E                     dE             d eps       ncg     rms          rms(c)
DAV:   1    -0.122278829739E+04   -0.85278E-04   -0.36150E-04   897   0.133E-02    0.109E-01
DAV:   2    -0.122279422037E+04   -0.59230E-02   -0.14143E-02  1248   0.737E-02    0.774E-01
DAV:   3    -0.122278852869E+04    0.56917E-02   -0.10814E-02  1209   0.662E-02    0.142E-01
DAV:   4    -0.122278837279E+04    0.15589E-03   -0.33855E-04   845   0.111E-02    0.144E-01
DAV:   5    -0.122278828986E+04    0.82938E-04   -0.10130E-04   663   0.727E-03
   6 F= -.12532417E+04 E0= -.12531763E+04  d E =0.951313E-04
       N       E                     dE             d eps       ncg     rms          rms(c)
DAV:   1    -0.122278839019E+04   -0.17396E-04   -0.27047E-02  1170   0.119E-01    0.596E-02
DAV:   2    -0.122278874231E+04   -0.35212E-03   -0.12128E-03  1092   0.278E-02    0.222E-01
DAV:   3    -0.122278854864E+04    0.19367E-03   -0.10075E-03   962   0.218E-02    0.168E-01
DAV:   4    -0.122278845531E+04    0.93332E-04   -0.28261E-04   819   0.119E-02
   7 F= -.12532416E+04 E0= -.12531776E+04  d E =0.401701E-05
       N       E                     dE             d eps       ncg     rms          rms(c)
DAV:   1    -0.122278838606E+04    0.16258E-03   -0.59598E-03  1131   0.551E-02    0.414E-02
DAV:   2    -0.122278852412E+04   -0.13806E-03   -0.88133E-04   949   0.164E-02    0.154E-01
DAV:   3    -0.122278854553E+04   -0.21411E-04   -0.95617E-04   884   0.165E-02
   8 F= -.12532418E+04 E0= -.12531791E+04  d E =-.163728E-03
       N       E                     dE             d eps       ncg     rms          rms(c)
DAV:   1    -0.122278839317E+04    0.13095E-03   -0.51498E-04   949   0.168E-02    0.347E-02
DAV:   2    -0.122278877581E+04   -0.38264E-03   -0.64771E-04   871   0.160E-02    0.261E-01
DAV:   3    -0.122278846105E+04    0.31476E-03   -0.81599E-04   884   0.178E-02    0.965E-02
DAV:   4    -0.122278841633E+04    0.44718E-04   -0.53006E-05   676   0.493E-03
   9 F= -.12532417E+04 E0= -.12531771E+04  d E =-.525128E-04
       N       E                     dE             d eps       ncg     rms          rms(c)
DAV:   1    -0.122278860753E+04   -0.14648E-03   -0.13190E-02  1144   0.859E-02    0.441E-02
DAV:   2    -0.122278892845E+04   -0.32092E-03   -0.11660E-03   975   0.232E-02    0.236E-01
DAV:   3    -0.122278867283E+04    0.25562E-03   -0.97779E-04   897   0.180E-02    0.103E-01
DAV:   4    -0.122278866829E+04    0.45393E-05   -0.16325E-04   689   0.729E-03
  10 F= -.12532418E+04 E0= -.12531777E+04  d E =-.870988E-04
       N       E                     dE             d eps       ncg     rms          rms(c)
DAV:   1    -0.122278867982E+04   -0.69827E-05   -0.10291E-03  1131   0.239E-02    0.363E-02
DAV:   2    -0.122278917628E+04   -0.49646E-03   -0.85471E-04   923   0.192E-02    0.331E-01
DAV:   3    -0.122278872800E+04    0.44828E-03   -0.81510E-04   936   0.194E-02    0.994E-02
DAV:   4    -0.122278867859E+04    0.49417E-04   -0.39010E-05   663   0.407E-03
  11 F= -.12532418E+04 E0= -.12531766E+04  d E =-.526715E-04
       N       E                     dE             d eps       ncg     rms          rms(c)
DAV:   1    -0.122278884017E+04   -0.11216E-03   -0.65028E-03  1144   0.566E-02    0.389E-02
DAV:   2    -0.122278888852E+04   -0.48352E-04   -0.22908E-04   871   0.126E-02
  12 F= -.12532418E+04 E0= -.12531772E+04  d E =-.904064E-04
       N       E                     dE             d eps       ncg     rms          rms(c)
DAV:   1    -0.122278893243E+04   -0.92266E-04   -0.73043E-04   962   0.194E-02    0.107E-01
DAV:   2    -0.122279444141E+04   -0.55090E-02   -0.14270E-02  1300   0.730E-02    0.732E-01
DAV:   3    -0.122278897603E+04    0.54654E-02   -0.10750E-02  1196   0.649E-02    0.127E-01
DAV:   4    -0.122278894684E+04    0.29195E-04   -0.66636E-04   793   0.938E-03
  13 F= -.12532419E+04 E0= -.12531784E+04  d E =-.117677E-03
       N       E                     dE             d eps       ncg     rms          rms(c)
DAV:   1    -0.122278898404E+04   -0.80087E-05   -0.28220E-03  1144   0.366E-02    0.632E-02
DAV:   2    -0.122278922630E+04   -0.24226E-03   -0.10218E-03   871   0.116E-02    0.211E-01
DAV:   3    -0.122278915346E+04    0.72841E-04   -0.14829E-03   884   0.174E-02    0.162E-01
DAV:   4    -0.122278899849E+04    0.15497E-03   -0.56763E-04   806   0.102E-02    0.616E-02
DAV:   5    -0.122278897025E+04    0.28236E-04   -0.23428E-04   676   0.313E-03
  14 F= -.12532418E+04 E0= -.12531768E+04  d E =0.392097E-04
