 vasp.5.4.4.18Apr17-6-g9f103f2a35 (build Oct 28 2020 13:00:36) gamma-only       
  
 executed on             LinuxIFC date 2020.12.03  21:33:07
 running on   52 total cores
 distrk:  each k-point on   52 cores,    1 groups
 distr:  one band on NCORES_PER_BAND=   4 cores,   13 groups


--------------------------------------------------------------------------------------------------------


 INCAR:
 POTCAR:    PAW_PBE C 08Apr2002                   
 POTCAR:    PAW_PBE Cr 06Sep2000                  
 POTCAR:    PAW_PBE H 15Jun2001                   
 POTCAR:    PAW_PBE Mo 08Apr2002                  
 POTCAR:    PAW_PBE S 06Sep2000                   
 POTCAR:    PAW_PBE C 08Apr2002                   
   VRHFIN =C: s2p2                                                              
   LEXCH  = PE                                                                  
   EATOM  =   147.1560 eV,   10.8157 Ry                                         
                                                                                
   TITEL  = PAW_PBE C 08Apr2002                                                 
   LULTRA =        F    use ultrasoft PP ?                                      
   IUNSCR =        1    unscreen: 0-lin 1-nonlin 2-no                           
   RPACOR =    1.200    partial core radius                                     
   POMASS =   12.011; ZVAL   =    4.000    mass and valenz                      
   RCORE  =    1.500    outmost cutoff radius                                   
   RWIGS  =    1.630; RWIGS  =    0.863    wigner-seitz radius (au A)           
   ENMAX  =  400.000; ENMIN  =  300.000 eV                                      
   ICORE  =        2    local potential                                         
   LCOR   =        T    correct aug charges                                     
   LPAW   =        T    paw PP                                                  
   EAUG   =  644.873                                                            
   DEXC   =    0.000                                                            
   RMAX   =    1.529    core radius for proj-oper                               
   RAUG   =    1.300    factor for augmentation sphere                          
   RDEP   =    1.501    radius for radial grids                                 
   RDEPT  =    1.300    core radius for aug-charge                              
                                                                                
   Atomic configuration                                                         
    4 entries                                                                   
     n  l   j            E        occ.                                          
     1  0  0.50      -273.3789   2.0000                                         
     2  0  0.50       -13.7508   2.0000                                         
     2  1  0.50        -5.2854   2.0000                                         
     3  2  1.50        -5.4423   0.0000                                         
   Description                                                                  
     l       E           TYP  RCUT    TYP  RCUT                                 
     0    -13.7508458     23  1.200                                             
     0     -8.2022199     23  1.200                                             
     1     -5.2854383     23  1.500                                             
     1     34.0145650     23  1.500                                             
     2     -5.4423304      7  1.500                                             
  local pseudopotential read in
  partial core-charges read in
  partial kinetic energy density read in
  atomic valenz-charges read in
  non local Contribution for L=           0  read in
    real space projection operators read in
  non local Contribution for L=           0  read in
    real space projection operators read in
  non local Contribution for L=           1  read in
    real space projection operators read in
  non local Contribution for L=           1  read in
    real space projection operators read in
    PAW grid and wavefunctions read in
 
   number of l-projection  operators is LMAX  =           4
   number of lm-projection operators is LMMAX =           8
 
 POTCAR:    PAW_PBE Cr 06Sep2000                  
   VRHFIN =Cr : d5 s1                                                           
   LEXCH  = PE                                                                  
   EATOM  =   276.8859 eV,   20.3505 Ry                                         
                                                                                
   TITEL  = PAW_PBE Cr 06Sep2000                                                
   LULTRA =        F    use ultrasoft PP ?                                      
   IUNSCR =        1    unscreen: 0-lin 1-nonlin 2-no                           
   RPACOR =    2.080    partial core radius                                     
   POMASS =   51.996; ZVAL   =    6.000    mass and valenz                      
   RCORE  =    2.500    outmost cutoff radius                                   
   RWIGS  =    2.500; RWIGS  =    1.323    wigner-seitz radius (au A)           
   ENMAX  =  227.080; ENMIN  =  170.310 eV                                      
   RCLOC  =    1.721    cutoff for local pot                                    
   LCOR   =        T    correct aug charges                                     
   LPAW   =        T    paw PP                                                  
   EAUG   =  402.108                                                            
   DEXC   =    0.000                                                            
   RMAX   =    2.552    core radius for proj-oper                               
   RAUG   =    1.300    factor for augmentation sphere                          
   RDEP   =    2.609    radius for radial grids                                 
   RDEPT  =    2.065    core radius for aug-charge                              
                                                                                
   Atomic configuration                                                         
    9 entries                                                                   
     n  l   j            E        occ.                                          
     1  0  0.50     -5880.4963   2.0000                                         
     2  0  0.50      -667.0865   2.0000                                         
     2  1  1.50      -560.6250   6.0000                                         
     3  0  0.50       -73.9860   2.0000                                         
     3  1  1.50       -45.4378   6.0000                                         
     3  2  2.50        -2.9137   5.0000                                         
     4  0  0.50        -4.0071   1.0000                                         
     4  1  0.50        -1.2789   0.0000                                         
     4  3  2.50        -1.3606   0.0000                                         
   Description                                                                  
     l       E           TYP  RCUT    TYP  RCUT                                 
     2     -2.9136677     23  2.500                                             
     2     -4.2742503     23  2.500                                             
     0     -4.0071322     23  2.500                                             
     0      9.4498801     23  2.500                                             
     1     -5.4423304     23  2.500                                             
     1     27.2116520     23  2.500                                             
  local pseudopotential read in
  partial core-charges read in
  partial kinetic energy density read in
  atomic valenz-charges read in
  non local Contribution for L=           2  read in
    real space projection operators read in
  non local Contribution for L=           2  read in
    real space projection operators read in
  non local Contribution for L=           0  read in
    real space projection operators read in
  non local Contribution for L=           0  read in
    real space projection operators read in
  non local Contribution for L=           1  read in
    real space projection operators read in
  non local Contribution for L=           1  read in
    real space projection operators read in
    PAW grid and wavefunctions read in
 
   number of l-projection  operators is LMAX  =           6
   number of lm-projection operators is LMMAX =          18
 
 POTCAR:    PAW_PBE H 15Jun2001                   
   VRHFIN =H: ultrasoft test                                                    
   LEXCH  = PE                                                                  
   EATOM  =    12.4884 eV,    0.9179 Ry                                         
                                                                                
   TITEL  = PAW_PBE H 15Jun2001                                                 
   LULTRA =        F    use ultrasoft PP ?                                      
   IUNSCR =        0    unscreen: 0-lin 1-nonlin 2-no                           
   RPACOR =    0.000    partial core radius                                     
   POMASS =    1.000; ZVAL   =    1.000    mass and valenz                      
   RCORE  =    1.100    outmost cutoff radius                                   
   RWIGS  =    0.700; RWIGS  =    0.370    wigner-seitz radius (au A)           
   ENMAX  =  250.000; ENMIN  =  200.000 eV                                      
   RCLOC  =    0.701    cutoff for local pot                                    
   LCOR   =        T    correct aug charges                                     
   LPAW   =        T    paw PP                                                  
   EAUG   =  400.000                                                            
   RMAX   =    1.123    core radius for proj-oper                               
   RAUG   =    1.200    factor for augmentation sphere                          
   RDEP   =    1.112    radius for radial grids                                 
   RDEPT  =    0.926    core radius for aug-charge                              
                                                                                
   Atomic configuration                                                         
    2 entries                                                                   
     n  l   j            E        occ.                                          
     1  0  0.50        -6.4927   1.0000                                         
     2  1  0.50        -3.4015   0.0000                                         
   Description                                                                  
     l       E           TYP  RCUT    TYP  RCUT                                 
     0     -6.4927494     23  1.100                                             
     0      6.8029130     23  1.100                                             
     1     -4.0817478     23  1.100                                             
  local pseudopotential read in
  atomic valenz-charges read in
  non local Contribution for L=           0  read in
    real space projection operators read in
  non local Contribution for L=           0  read in
    real space projection operators read in
  non local Contribution for L=           1  read in
    real space projection operators read in
    PAW grid and wavefunctions read in
 
   number of l-projection  operators is LMAX  =           3
   number of lm-projection operators is LMMAX =           5
 
 POTCAR:    PAW_PBE Mo 08Apr2002                  
   VRHFIN =Mo: 4p5s4d                                                           
   LEXCH  = PE                                                                  
   EATOM  =   217.5176 eV,   15.9871 Ry                                         
                                                                                
   TITEL  = PAW_PBE Mo 08Apr2002                                                
   LULTRA =        F    use ultrasoft PP ?                                      
   IUNSCR =        1    unscreen: 0-lin 1-nonlin 2-no                           
   RPACOR =    2.200    partial core radius                                     
   POMASS =   95.940; ZVAL   =    6.000    mass and valenz                      
   RCORE  =    2.750    outmost cutoff radius                                   
   RWIGS  =    2.750; RWIGS  =    1.455    wigner-seitz radius (au A)           
   ENMAX  =  224.584; ENMIN  =  168.438 eV                                      
   RCLOC  =    2.111    cutoff for local pot                                    
   LCOR   =        T    correct aug charges                                     
   LPAW   =        T    paw PP                                                  
   EAUG   =  345.278                                                            
   DEXC   =    0.000                                                            
   RMAX   =    2.821    core radius for proj-oper                               
   RAUG   =    1.300    factor for augmentation sphere                          
   RDEP   =    2.815    radius for radial grids                                 
   RDEPT  =    2.211    core radius for aug-charge                              
                                                                                
   Atomic configuration                                                         
   12 entries                                                                   
     n  l   j            E        occ.                                          
     1  0  0.50    -19819.0341   2.0000                                         
     2  0  0.50     -2799.0127   2.0000                                         
     2  1  1.50     -2502.0276   6.0000                                         
     3  0  0.50      -476.4448   2.0000                                         
     3  1  1.50      -379.1496   6.0000                                         
     3  2  2.50      -220.9367  10.0000                                         
     4  0  0.50       -64.3378   2.0000                                         
     4  1  1.50       -38.4773   6.0000                                         
     4  2  2.50        -3.7535   5.0000                                         
     5  0  0.50        -4.0862   1.0000                                         
     5  1  0.50        -2.7701   0.0000                                         
     4  3  2.50        -1.3606   0.0000                                         
   Description                                                                  
     l       E           TYP  RCUT    TYP  RCUT                                 
     2     -3.7534765     23  2.500                                             
     2     -5.1140591     23  2.500                                             
     0     -4.0861560     23  2.600                                             
     0     13.6058260     23  2.600                                             
     1      5.4423304     23  2.750                                             
     1     27.2116520     23  2.750                                             
  local pseudopotential read in
  partial core-charges read in
  partial kinetic energy density read in
  atomic valenz-charges read in
  non local Contribution for L=           2  read in
    real space projection operators read in
  non local Contribution for L=           2  read in
    real space projection operators read in
  non local Contribution for L=           0  read in
    real space projection operators read in
  non local Contribution for L=           0  read in
    real space projection operators read in
  non local Contribution for L=           1  read in
    real space projection operators read in
  non local Contribution for L=           1  read in
    real space projection operators read in
    PAW grid and wavefunctions read in
 
   number of l-projection  operators is LMAX  =           6
   number of lm-projection operators is LMMAX =          18
 
 POTCAR:    PAW_PBE S 06Sep2000                   
   VRHFIN =S : s2p4                                                             
   LEXCH  = PE                                                                  
   EATOM  =   276.8230 eV,   20.3459 Ry                                         
                                                                                
   TITEL  = PAW_PBE S 06Sep2000                                                 
   LULTRA =        F    use ultrasoft PP ?                                      
   IUNSCR =        1    unscreen: 0-lin 1-nonlin 2-no                           
   RPACOR =    1.500    partial core radius                                     
   POMASS =   32.066; ZVAL   =    6.000    mass and valenz                      
   RCORE  =    1.900    outmost cutoff radius                                   
   RWIGS  =    2.200; RWIGS  =    1.164    wigner-seitz radius (au A)           
   ENMAX  =  258.689; ENMIN  =  194.016 eV                                      
   ICORE  =        2    local potential                                         
   LCOR   =        T    correct aug charges                                     
   LPAW   =        T    paw PP                                                  
   EAUG   =  335.092                                                            
   DEXC   =    0.000                                                            
   RMAX   =    1.942    core radius for proj-oper                               
   RAUG   =    1.300    factor for augmentation sphere                          
   RDEP   =    1.954    radius for radial grids                                 
   RDEPT  =    1.744    core radius for aug-charge                              
                                                                                
   Atomic configuration                                                         
    6 entries                                                                   
     n  l   j            E        occ.                                          
     1  0  0.50     -2405.8406   2.0000                                         
     2  0  0.50      -211.7007   2.0000                                         
     2  1  1.50      -156.4958   6.0000                                         
     3  0  0.50       -17.2562   2.0000                                         
     3  1  0.50        -7.0085   4.0000                                         
     3  2  1.50        -6.8029   0.0000                                         
   Description                                                                  
     l       E           TYP  RCUT    TYP  RCUT                                 
     0    -17.2561641     23  1.900                                             
     0    -15.8743224     23  1.900                                             
     1     -7.0085400     23  1.900                                             
     1     -2.7779785     23  1.900                                             
     2     -6.8029130     23  1.900                                             
  local pseudopotential read in
  partial core-charges read in
  partial kinetic energy density read in
  atomic valenz-charges read in
  non local Contribution for L=           0  read in
    real space projection operators read in
  non local Contribution for L=           0  read in
    real space projection operators read in
  non local Contribution for L=           1  read in
    real space projection operators read in
  non local Contribution for L=           1  read in
    real space projection operators read in
    PAW grid and wavefunctions read in
 
   number of l-projection  operators is LMAX  =           4
   number of lm-projection operators is LMMAX =           8
 
 Optimization of the real space projectors (new method)

 maximal supplied QI-value         = 25.13
 optimisation between [QCUT,QGAM] = [ 10.05, 20.36] = [ 28.30,116.06] Ry 
 Optimized for a Real-space Cutoff    1.51 Angstroem

   l    n(q)    QCUT    max X(q) W(low)/X(q) W(high)/X(q)  e(spline) 
   0      9    10.053   115.676    0.19E-03    0.21E-03    0.38E-06
   0      9    10.053    87.132    0.19E-03    0.21E-03    0.38E-06
   1      9    10.053     4.429    0.87E-04    0.11E-03    0.39E-06
   1      9    10.053     2.733    0.59E-04    0.62E-04    0.43E-06
 Optimization of the real space projectors (new method)

 maximal supplied QI-value         = 15.12
 optimisation between [QCUT,QGAM] = [ 10.13, 20.41] = [ 28.73,116.64] Ry 
 Optimized for a Real-space Cutoff    1.55 Angstroem

   l    n(q)    QCUT    max X(q) W(low)/X(q) W(high)/X(q)  e(spline) 
   2      9    10.129    94.395    0.23E-03    0.29E-03    0.30E-06
   2      9    10.129    88.078    0.23E-03    0.29E-03    0.30E-06
   0      9    10.129    50.173    0.57E-04    0.58E-04    0.11E-06
   0      9    10.129    24.906    0.50E-04    0.51E-04    0.96E-07
   1      9    10.129    12.133    0.24E-03    0.21E-04    0.16E-06
   1      9    10.129     7.290    0.17E-03    0.12E-04    0.12E-06
 Optimization of the real space projectors (new method)

 maximal supplied QI-value         = 34.20
 optimisation between [QCUT,QGAM] = [  9.92, 20.18] = [ 27.55,114.04] Ry 
 Optimized for a Real-space Cutoff    1.34 Angstroem

   l    n(q)    QCUT    max X(q) W(low)/X(q) W(high)/X(q)  e(spline) 
   0      8     9.919    19.460    0.16E-03    0.20E-03    0.36E-06
   0      8     9.919    12.209    0.16E-03    0.20E-03    0.35E-06
   1      8     9.919     4.655    0.19E-03    0.46E-03    0.40E-06
 Optimization of the real space projectors (new method)

 maximal supplied QI-value         = 13.61
 optimisation between [QCUT,QGAM] = [ 10.20, 20.41] = [ 29.16,116.64] Ry 
 Optimized for a Real-space Cutoff    1.65 Angstroem

   l    n(q)    QCUT    max X(q) W(low)/X(q) W(high)/X(q)  e(spline) 
   2      9    10.205    80.908    0.21E-03    0.30E-03    0.60E-06
   2      9    10.205    79.000    0.21E-03    0.30E-03    0.60E-06
   0     10    10.205    52.066    0.39E-04    0.38E-04    0.19E-06
   0     10    10.205    24.514    0.33E-04    0.32E-04    0.16E-06
   1     10    10.205    16.033    0.64E-04    0.17E-03    0.19E-06
   1     10    10.205    11.179    0.49E-04    0.13E-03    0.15E-06
 Optimization of the real space projectors (new method)

 maximal supplied QI-value         = 19.84
 optimisation between [QCUT,QGAM] = [ 10.12, 20.44] = [ 28.68,116.96] Ry 
 Optimized for a Real-space Cutoff    1.42 Angstroem

   l    n(q)    QCUT    max X(q) W(low)/X(q) W(high)/X(q)  e(spline) 
   0      9    10.119   187.594    0.52E-04    0.93E-04    0.64E-07
   0      9    10.119   164.243    0.51E-04    0.92E-04    0.63E-07
   1      8    10.119    67.533    0.16E-03    0.17E-03    0.23E-06
   1      8    10.119    50.729    0.16E-03    0.16E-03    0.23E-06
  PAW_PBE C 08Apr2002                   :
 energy of atom  1       EATOM= -147.1560
 kinetic energy error for atom=    0.0288 (will be added to EATOM!!)
  PAW_PBE Cr 06Sep2000                  :
 energy of atom  2       EATOM= -276.8859
 kinetic energy error for atom=    0.0018 (will be added to EATOM!!)
  PAW_PBE H 15Jun2001                   :
 energy of atom  3       EATOM=  -12.4884
 kinetic energy error for atom=    0.0098 (will be added to EATOM!!)
  PAW_PBE Mo 08Apr2002                  :
 energy of atom  4       EATOM= -217.5176
 kinetic energy error for atom=    0.0025 (will be added to EATOM!!)
  PAW_PBE S 06Sep2000                   :
 energy of atom  5       EATOM= -276.8230
 kinetic energy error for atom=    0.0046 (will be added to EATOM!!)
 
 
 POSCAR:  C Cr  H Mo  S                          
  positions in cartesian coordinates
  No initial velocities read in
 exchange correlation table for  LEXCH =        8
   RHO(1)=    0.500       N(1)  =     2000
   RHO(2)=  100.500       N(2)  =     4000
 


--------------------------------------------------------------------------------------------------------


 ion  position               nearest neighbor table
   1  0.431  0.293  0.473-  18 1.09   2 1.42   3 1.43  11 2.20
   2  0.349  0.269  0.447-  17 1.09   1 1.42   5 1.43  11 2.18
   3  0.443  0.369  0.500-  19 1.09   1 1.43   4 1.44  11 2.15
   4  0.368  0.392  0.492-  20 1.09   3 1.44   5 1.44  11 2.09
   5  0.310  0.329  0.459-  12 1.09   2 1.43   4 1.44  11 2.11
   6  0.518  0.451  0.379-  14 1.09  10 1.44   8 1.44  11 2.11
   7  0.482  0.559  0.413-  15 1.09   9 1.43   8 1.44  11 2.15
   8  0.448  0.483  0.382-  13 1.09   7 1.44   6 1.44  11 2.10
   9  0.572  0.573  0.429-  16 1.09  10 1.42   7 1.43  11 2.20
  10  0.594  0.506  0.409-  21 1.09   9 1.42   6 1.44  11 2.18
  11  0.453  0.422  0.438-   4 2.09   8 2.10   5 2.11   6 2.11   3 2.15   7 2.15  10 2.18   2 2.18
                             1 2.20   9 2.20
  12  0.246  0.328  0.445-   5 1.09
  13  0.383  0.458  0.363-   8 1.09
  14  0.515  0.396  0.359-   6 1.09
  15  0.446  0.598  0.422-   7 1.09
  16  0.613  0.622  0.454-   9 1.09
  17  0.323  0.216  0.422-   2 1.09
  18  0.478  0.262  0.471-   1 1.09
  19  0.501  0.403  0.523-   3 1.09
  20  0.357  0.445  0.508-   4 1.09
  21  0.657  0.498  0.415-  10 1.09
  22  0.600  0.600  0.657-  97 2.43 148 2.43 144 2.43  98 2.43 149 2.43 145 2.43  56 3.18  27 3.18
                            61 3.18  44 3.18  38 3.18  47 3.18
  23  0.200  0.800  0.219- 126 2.43 162 2.43 121 2.43 139 2.43 163 2.43 122 2.43  26 3.18  49 3.18
                            51 3.18  64 3.18  54 3.18  70 3.18
  24  0.200  0.600  0.657- 164 2.43 127 2.43 123 2.43 128 2.43 165 2.43 124 2.43  46 3.18  33 3.18
                            47 3.18  63 3.18  34 3.18  66 3.18
  25  0.600  0.800  0.219-  92 2.43 146 2.43 112 2.43  94 2.43 147 2.43 143 2.43  35 3.18  58 3.18
                            29 3.18  36 3.18  50 3.18  49 3.18
  26  0.200  0.600  0.219- 166 2.43 129 2.43 126 2.43 130 2.43 167 2.43 139 2.43  49 3.18  36 3.18
                            23 3.18  62 3.18  28 3.18  64 3.18
  27  0.600  0.800  0.657-  96 2.43 144 2.43 110 2.43  93 2.43 145 2.43 170 2.43  22 3.18  56 3.18
                            31 3.18  47 3.18  48 3.18  46 3.18
  28  0.200  0.400  0.219- 133 2.43 142 2.43 129 2.43 141 2.43 134 2.43 130 2.43  32 3.18  42 3.18
                            36 3.18  59 3.18  26 3.18  62 3.18
  29  0.800  0.000  0.219-  72 2.43  84 2.43  92 2.43  94 2.43 108 2.43  86 2.43  50 3.18  25 3.18
                            59 3.18  58 3.18  52 3.18  55 3.18
  30  0.200  0.200  0.657- 140 2.43 135 2.43 131 2.43 136 2.43 125 2.43 132 2.43  44 3.18  41 3.18
                            34 3.18  57 3.18  53 3.18  60 3.18
  31  0.800  0.000  0.657-  80 2.43  85 2.43  96 2.43  93 2.43  82 2.43  81 2.43  48 3.18  27 3.18
                            60 3.18  56 3.18  71 3.18  57 3.18
  32  0.200  0.200  0.219- 113 2.43 137 2.43 133 2.43 114 2.43 138 2.43 134 2.43  42 3.18  39 3.18
                            28 3.18  55 3.18  54 3.18  59 3.18
  33  0.200  0.800  0.657- 123 2.43 160 2.43 119 2.43 124 2.43 161 2.43 120 2.43  24 3.18  46 3.18
                            37 3.18  66 3.18  53 3.18  69 3.18
  34  0.200  0.400  0.657- 131 2.43 168 2.43 127 2.43 132 2.43 169 2.43 128 2.43  30 3.18  44 3.18
                            47 3.18  60 3.18  24 3.18  63 3.18
  35  0.600  0.600  0.219- 100 2.43 150 2.43 146 2.43 102 2.43 151 2.43 147 2.43  58 3.18  25 3.18
                            67 3.18  42 3.18  40 3.18  36 3.18
  36  0.400  0.600  0.219- 166 2.43 146 2.43 142 2.43 167 2.43 141 2.43 147 2.43  26 3.18  49 3.18
                            28 3.18  25 3.18  42 3.18  35 3.18
  37  0.400  0.000  0.657- 115 2.43 156 2.43 160 2.43 111 2.43 161 2.43 116 2.43  53 3.18  33 3.18
                            43 3.18  46 3.18  41 3.18  48 3.18
  38  0.600  0.400  0.657- 105 2.43 152 2.43 148 2.43 106 2.43 153 2.43 149 2.43  43 3.18  65 3.18
                            61 3.18  41 3.18  22 3.18  44 3.18
  39  0.400  0.200  0.219- 113 2.43 154 2.43 117 2.43 114 2.43 118 2.43 155 2.43  32 3.18  42 3.18
                            54 3.18  40 3.18  51 3.18  45 3.18
  40  0.600  0.400  0.219-  91 2.43 154 2.43 150 2.43  90 2.43 155 2.43 151 2.43  45 3.18  68 3.18
                            67 3.18  39 3.18  35 3.18  42 3.18
  41  0.400  0.200  0.657- 140 2.43 152 2.43 115 2.43 125 2.43 116 2.43 153 2.43  30 3.18  44 3.18
                            53 3.18  38 3.18  37 3.18  43 3.18
  42  0.400  0.400  0.219- 113 2.43 142 2.43 150 2.43 114 2.43 151 2.43 141 2.43  32 3.18  28 3.18
                            39 3.18  35 3.18  36 3.18  40 3.18
  43  0.600  0.200  0.657-  73 2.43 156 2.43 152 2.43  74 2.43 111 2.43 153 2.43  65 3.18  38 3.18
                            71 3.18  37 3.18  48 3.18  41 3.18
  44  0.400  0.400  0.657- 140 2.43 148 2.43 168 2.43 149 2.43 125 2.43 169 2.43  30 3.18  34 3.18
                            41 3.18  22 3.18  47 3.18  38 3.18
  45  0.600  0.200  0.219-  77 2.43 158 2.43 154 2.43  78 2.43 159 2.43 155 2.43  68 3.18  52 3.18
                            40 3.18  51 3.18  50 3.18  39 3.18
  46  0.400  0.800  0.657- 110 2.43 160 2.43 164 2.43 165 2.43 170 2.43 161 2.43  24 3.18  33 3.18
                            47 3.18  48 3.18  37 3.18  27 3.18
  47  0.400  0.600  0.657- 164 2.43 144 2.43 168 2.43 165 2.43 145 2.43 169 2.43  24 3.18  46 3.18
                            34 3.18  27 3.18  44 3.18  22 3.18
  48  0.600  0.000  0.657-  80 2.43 110 2.43 156 2.43  81 2.43 170 2.43 111 2.43  31 3.18  71 3.18
                            46 3.18  27 3.18  43 3.18  37 3.18
  49  0.400  0.800  0.219- 112 2.43 162 2.43 166 2.43 143 2.43 167 2.43 163 2.43  26 3.18  23 3.18
                            36 3.18  50 3.18  51 3.18  25 3.18
  50  0.600  0.000  0.219-  84 2.43 112 2.43 158 2.43 143 2.43  86 2.43 159 2.43  29 3.18  52 3.18
                            49 3.18  25 3.18  45 3.18  51 3.18
  51  0.400  0.000  0.219- 117 2.43 158 2.43 162 2.43 159 2.43 163 2.43 118 2.43  54 3.18  23 3.18
                            45 3.18  49 3.18  39 3.18  50 3.18
  52  0.800  0.200  0.219-  77 2.43  87 2.43  84 2.43  78 2.43  86 2.43 104 2.43  45 3.18  68 3.18
                            50 3.18  62 3.18  29 3.18  59 3.18
  53  0.200  0.000  0.657- 115 2.43 119 2.43 135 2.43 120 2.43 116 2.43 136 2.43  37 3.18  41 3.18
                            69 3.18  33 3.18  30 3.18  57 3.18
  54  0.200  0.000  0.219- 117 2.43 121 2.43 137 2.43 122 2.43 118 2.43 138 2.43  51 3.18  39 3.18
                            70 3.18  32 3.18  23 3.18  55 3.18
  55  0.000  0.000  0.219-  83 2.43 137 2.43  72 2.43  89 2.43 138 2.43 108 2.43  32 3.18  58 3.18
                            59 3.18  70 3.18  54 3.18  29 3.18
  56  0.800  0.800  0.657-  96 2.43  97 2.43 171 2.43  98 2.43  93 2.43 157 2.43  22 3.18  27 3.18
                            61 3.18  57 3.18  31 3.18  69 3.18
  57  0.000  0.000  0.657- 135 2.43 171 2.43  85 2.43 157 2.43 136 2.43  82 2.43  30 3.18  56 3.18
                            60 3.18  69 3.18  53 3.18  31 3.18
  58  0.800  0.800  0.219-  92 2.43 100 2.43  83 2.43 102 2.43  94 2.43  89 2.43  35 3.18  25 3.18
                            67 3.18  55 3.18  29 3.18  70 3.18
  59  0.000  0.200  0.219- 133 2.43  72 2.43  87 2.43 108 2.43 134 2.43 104 2.43  62 3.18  28 3.18
                            29 3.18  55 3.18  32 3.18  52 3.18
  60  0.000  0.200  0.657- 131 2.43  85 2.43 103 2.43  82 2.43 132 2.43  88 2.43  63 3.18  34 3.18
                            31 3.18  57 3.18  30 3.18  71 3.18
  61  0.800  0.600  0.657-  97 2.43 105 2.43  76 2.43  98 2.43 106 2.43  75 2.43  22 3.18  56 3.18
                            38 3.18  69 3.18  65 3.18  66 3.18
  62  0.000  0.400  0.219-  87 2.43  95 2.43 129 2.43 104 2.43 130 2.43  79 2.43  59 3.18  52 3.18
                            26 3.18  64 3.18  28 3.18  68 3.18
  63  0.000  0.400  0.657- 101 2.43 103 2.43 127 2.43  88 2.43 128 2.43  99 2.43  60 3.18  71 3.18
                            24 3.18  66 3.18  34 3.18  65 3.18
  64  0.000  0.600  0.219- 109 2.43 126 2.43  95 2.43 107 2.43  79 2.43 139 2.43  70 3.18  23 3.18
                            68 3.18  62 3.18  26 3.18  67 3.18
  65  0.800  0.400  0.657-  73 2.43 105 2.43 101 2.43  74 2.43 106 2.43  99 2.43  43 3.18  38 3.18
                            71 3.18  66 3.18  61 3.18  63 3.18
  66  0.000  0.600  0.657-  76 2.43 123 2.43 101 2.43  75 2.43  99 2.43 124 2.43  69 3.18  33 3.18
                            65 3.18  63 3.18  61 3.18  24 3.18
  67  0.800  0.600  0.219- 100 2.43  91 2.43 109 2.43 102 2.43  90 2.43 107 2.43  35 3.18  58 3.18
                            40 3.18  70 3.18  68 3.18  64 3.18
  68  0.800  0.400  0.219-  77 2.43  91 2.43  95 2.43  78 2.43  90 2.43  79 2.43  45 3.18  40 3.18
                            52 3.18  64 3.18  67 3.18  62 3.18
  69  0.000  0.800  0.657-  76 2.43 119 2.43 171 2.43 120 2.43  75 2.43 157 2.43  66 3.18  61 3.18
                            53 3.18  57 3.18  56 3.18  33 3.18
  70  0.000  0.800  0.219-  83 2.43 109 2.43 121 2.43 107 2.43 122 2.43  89 2.43  64 3.18  67 3.18
                            54 3.18  55 3.18  23 3.18  58 3.18
  71  0.800  0.200  0.657-  73 2.43 103 2.43  80 2.43  74 2.43  88 2.43  81 2.43  43 3.18  65 3.18
                            48 3.18  63 3.18  31 3.18  60 3.18
  72  0.933  0.067  0.170-  29 2.43  59 2.43  55 2.43
  73  0.733  0.267  0.608-  71 2.43  43 2.43  65 2.43
  74  0.733  0.267  0.707-  71 2.43  65 2.43  43 2.43
  75  0.933  0.667  0.707-  66 2.43  69 2.43  61 2.43
  76  0.933  0.667  0.608-  66 2.43  69 2.43  61 2.43
  77  0.733  0.267  0.170-  52 2.43  45 2.43  68 2.43
  78  0.733  0.267  0.268-  52 2.43  45 2.43  68 2.43
  79  0.933  0.467  0.268-  64 2.43  62 2.43  68 2.43
  80  0.733  0.067  0.608-  31 2.43  48 2.43  71 2.43
  81  0.733  0.067  0.707-  48 2.43  71 2.43  31 2.43
  82  0.933  0.067  0.707-  31 2.43  60 2.43  57 2.43
  83  0.933  0.867  0.170-  55 2.43  70 2.43  58 2.43
  84  0.733  0.067  0.170-  29 2.43  50 2.43  52 2.43
  85  0.933  0.067  0.608-  31 2.43  60 2.43  57 2.43
  86  0.733  0.067  0.268-  50 2.43  52 2.43  29 2.43
  87  0.933  0.267  0.170-  52 2.43  62 2.43  59 2.43
  88  0.933  0.267  0.707-  63 2.43  71 2.43  60 2.43
  89  0.933  0.867  0.268-  55 2.43  70 2.43  58 2.43
  90  0.733  0.467  0.268-  40 2.43  67 2.43  68 2.43
  91  0.733  0.467  0.170-  40 2.43  67 2.43  68 2.43
  92  0.733  0.867  0.170-  25 2.43  29 2.43  58 2.43
  93  0.733  0.867  0.707-  27 2.43  31 2.43  56 2.43
  94  0.733  0.867  0.268-  25 2.43  29 2.43  58 2.43
  95  0.933  0.467  0.170-  62 2.43  64 2.43  68 2.43
  96  0.733  0.867  0.608-  27 2.43  31 2.43  56 2.43
  97  0.733  0.667  0.608-  61 2.43  22 2.43  56 2.43
  98  0.733  0.667  0.707-  61 2.43  56 2.43  22 2.43
  99  0.933  0.467  0.707-  66 2.43  63 2.43  65 2.43
 100  0.733  0.667  0.170-  67 2.43  35 2.43  58 2.43
 101  0.933  0.467  0.608-  63 2.43  66 2.43  65 2.43
 102  0.733  0.667  0.268-  67 2.43  58 2.43  35 2.43
 103  0.933  0.267  0.608-  71 2.43  63 2.43  60 2.43
 104  0.933  0.267  0.268-  52 2.43  62 2.43  59 2.43
 105  0.733  0.467  0.608-  38 2.43  61 2.43  65 2.43
 106  0.733  0.467  0.707-  38 2.43  61 2.43  65 2.43
 107  0.933  0.667  0.268-  64 2.43  70 2.43  67 2.43
 108  0.933  0.067  0.268-  29 2.43  59 2.43  55 2.43
 109  0.933  0.667  0.170-  64 2.43  70 2.43  67 2.43
 110  0.533  0.867  0.608-  46 2.43  48 2.43  27 2.43
 111  0.533  0.067  0.707-  37 2.43  43 2.43  48 2.43
 112  0.533  0.867  0.170-  49 2.43  50 2.43  25 2.43
 113  0.333  0.267  0.170-  39 2.43  32 2.43  42 2.43
 114  0.333  0.267  0.268-  39 2.43  32 2.43  42 2.43
 115  0.333  0.067  0.608-  37 2.43  41 2.43  53 2.43
 116  0.333  0.067  0.707-  41 2.43  53 2.43  37 2.43
 117  0.333  0.067  0.170-  39 2.43  51 2.43  54 2.43
 118  0.333  0.067  0.268-  39 2.43  54 2.43  51 2.43
 119  0.133  0.867  0.608-  53 2.43  69 2.43  33 2.43
 120  0.133  0.867  0.707-  53 2.43  69 2.43  33 2.43
 121  0.133  0.867  0.170-  54 2.43  70 2.43  23 2.43
 122  0.133  0.867  0.268-  54 2.43  70 2.43  23 2.43
 123  0.133  0.667  0.608-  66 2.43  33 2.43  24 2.43
 124  0.133  0.667  0.707-  33 2.43  66 2.43  24 2.43
 125  0.333  0.267  0.707-  41 2.43  30 2.43  44 2.43
 126  0.133  0.667  0.170-  64 2.43  23 2.43  26 2.43
 127  0.133  0.467  0.608-  24 2.43  63 2.43  34 2.43
 128  0.133  0.467  0.707-  24 2.43  63 2.43  34 2.43
 129  0.133  0.467  0.170-  26 2.43  62 2.43  28 2.43
 130  0.133  0.467  0.268-  26 2.43  62 2.43  28 2.43
 131  0.133  0.267  0.608-  60 2.43  34 2.43  30 2.43
 132  0.133  0.267  0.707-  34 2.43  60 2.43  30 2.43
 133  0.133  0.267  0.170-  59 2.43  28 2.43  32 2.43
 134  0.133  0.267  0.268-  28 2.43  59 2.43  32 2.43
 135  0.133  0.067  0.608-  30 2.43  57 2.43  53 2.43
 136  0.133  0.067  0.707-  30 2.43  57 2.43  53 2.43
 137  0.133  0.067  0.170-  32 2.43  55 2.43  54 2.43
 138  0.133  0.067  0.268-  32 2.43  55 2.43  54 2.43
 139  0.133  0.667  0.268-  23 2.43  64 2.43  26 2.43
 140  0.333  0.267  0.608-  41 2.43  30 2.43  44 2.43
 141  0.333  0.467  0.268-  28 2.43  36 2.43  42 2.43
 142  0.333  0.467  0.170-  28 2.43  36 2.43  42 2.43
 143  0.533  0.867  0.268-  49 2.43  50 2.43  25 2.43
 144  0.533  0.667  0.608-  47 2.43  27 2.43  22 2.43
 145  0.533  0.667  0.707-  27 2.43  47 2.43  22 2.43
 146  0.533  0.667  0.170-  36 2.43  25 2.43  35 2.43
 147  0.533  0.667  0.268-  25 2.43  36 2.43  35 2.43
 148  0.533  0.467  0.608-  22 2.43  44 2.43  38 2.43
 149  0.533  0.467  0.707-  22 2.43  44 2.43  38 2.43
 150  0.533  0.467  0.170-  35 2.43  42 2.43  40 2.43
 151  0.533  0.467  0.268-  35 2.43  42 2.43  40 2.43
 152  0.533  0.267  0.608-  41 2.43  38 2.43  43 2.43
 153  0.533  0.267  0.707-  38 2.43  41 2.43  43 2.43
 154  0.533  0.267  0.170-  39 2.43  40 2.43  45 2.43
 155  0.533  0.267  0.268-  39 2.43  40 2.43  45 2.43
 156  0.533  0.067  0.608-  37 2.43  43 2.43  48 2.43
 157  0.933  0.867  0.707-  57 2.43  69 2.43  56 2.43
 158  0.533  0.067  0.170-  45 2.43  51 2.43  50 2.43
 159  0.533  0.067  0.268-  45 2.43  51 2.43  50 2.43
 160  0.333  0.867  0.608-  33 2.43  37 2.43  46 2.43
 161  0.333  0.867  0.707-  33 2.43  37 2.43  46 2.43
 162  0.333  0.867  0.170-  23 2.43  49 2.43  51 2.43
 163  0.333  0.867  0.268-  23 2.43  51 2.43  49 2.43
 164  0.333  0.667  0.608-  47 2.43  24 2.43  46 2.43
 165  0.333  0.667  0.707-  47 2.43  46 2.43  24 2.43
 166  0.333  0.667  0.170-  36 2.43  26 2.43  49 2.43
 167  0.333  0.667  0.268-  36 2.43  26 2.43  49 2.43
 168  0.333  0.467  0.608-  34 2.43  44 2.43  47 2.43
 169  0.333  0.467  0.707-  34 2.43  47 2.43  44 2.43
 170  0.533  0.867  0.707-  46 2.43  48 2.43  27 2.43
 171  0.933  0.867  0.608-  57 2.43  69 2.43  56 2.43
 
  LATTYP: Found a hexagonal cell.
 ALAT       =    15.9000000000
 C/A-ratio  =     2.0364779874
  
  Lattice vectors:
  
 A1 = (  15.9000000000,   0.0000000000,   0.0000000000)
 A2 = (  -7.9500000000,  13.7698039202,   0.0000000000)
 A3 = (   0.0000000000,   0.0000000000,  32.3800000000)


Analysis of symmetry for initial positions (statically):
=====================================================================
 Subroutine PRICEL returns:
 Original cell was already a primitive cell.
 

 Routine SETGRP: Setting up the symmetry group for a 
 hexagonal supercell.


 Subroutine GETGRP returns: Found  1 space group operations
 (whereof  1 operations were pure point group operations)
 out of a pool of 24 trial point group operations.


The static configuration has the point symmetry C_1 .


Analysis of symmetry for dynamics (positions and initial velocities):
=====================================================================
 Subroutine PRICEL returns:
 Original cell was already a primitive cell.
 

 Routine SETGRP: Setting up the symmetry group for a 
 hexagonal supercell.


 Subroutine GETGRP returns: Found  1 space group operations
 (whereof  1 operations were pure point group operations)
 out of a pool of 24 trial point group operations.


The dynamic configuration has the point symmetry C_1 .


Analysis of constrained symmetry for selective dynamics:
=====================================================================
 Subroutine PRICEL returns:
 Original cell was already a primitive cell.
 

 Routine SETGRP: Setting up the symmetry group for a 
 hexagonal supercell.


 Subroutine GETGRP returns: Found  1 space group operations
 (whereof  1 operations were pure point group operations)
 out of a pool of 24 trial point group operations.


The constrained configuration has the point symmetry C_1 .


 Subroutine INISYM returns: Found  1 space group operations
 (whereof  1 operations are pure point group operations),
 and found     1 'primitive' translations

 
 
 KPOINTS: Gamma-point only                        
  k-points in reciprocal lattice
Space group operators:
 irot       det(A)        alpha          n_x          n_y          n_z        tau_x        tau_y        tau_z
    1     1.000000     0.000000     1.000000     0.000000     0.000000     0.000000     0.000000     0.000000


--------------------------------------------------------------------------------------------------------




 Dimension of arrays:
   k-points           NKPTS =      1   k-points in BZ     NKDIM =      1   number of bands    NBANDS=    585
   number of dos      NEDOS =    301   number of ions     NIONS =    171
   non local maximal  LDIM  =      6   non local SUM 2l+1 LMDIM =     18
   total plane-waves  NPLWV = ******
   max r-space proj   IRMAX =   6718   max aug-charges    IRDMAX=  23014
   dimension x,y,z NGX =   108 NGY =  108 NGZ =  216
   dimension x,y,z NGXF=   216 NGYF=  216 NGZF=  432
   support grid    NGXF=   216 NGYF=  216 NGZF=  432
   ions per type =              10   1  10  50 100
   NGX,Y,Z   is equivalent  to a cutoff of  11.29, 11.29, 11.09 a.u.
   NGXF,Y,Z  is equivalent  to a cutoff of  22.58, 22.58, 22.18 a.u.

 SYSTEM =  basalPlane                              
 POSCAR =   C Cr  H Mo  S                          

 Startparameter for this run:
   NWRITE =      2    write-flag & timer
   PREC   = accura    normal or accurate (medium, high low for compatibility)
   ISTART =      0    job   : 0-new  1-cont  2-samecut
   ICHARG =      2    charge: 1-file 2-atom 10-const
   ISPIN  =      1    spin polarized calculation?
   LNONCOLLINEAR =      F non collinear calculations
   LSORBIT =      F    spin-orbit coupling
   INIWAV =      1    electr: 0-lowe 1-rand  2-diag
   LASPH  =      F    aspherical Exc in radial PAW
   METAGGA=      F    non-selfconsistent MetaGGA calc.

 Electronic Relaxation 1
   ENCUT  =  400.0 eV  29.40 Ry    5.42 a.u.  25.93 25.93 52.80*2*pi/ulx,y,z
   ENINI  =  400.0     initial cutoff
   ENAUG  =  645.0 eV  augmentation charge cutoff
   NELM   =    200;   NELMIN=  2; NELMDL= -5     # of ELM steps 
   EDIFF  = 0.1E-03   stopping-criterion for ELM
   LREAL  =      T    real-space projection
   NLSPLINE    = F    spline interpolate recip. space projectors
   LCOMPAT=      F    compatible to vasp.4.4
   GGA_COMPAT  = T    GGA compatible to vasp.4.4-vasp.4.6
   LMAXPAW     = -100 max onsite density
   LMAXMIX     =    2 max onsite mixed and CHGCAR
   VOSKOWN=      0    Vosko Wilk Nusair interpolation
   ROPT   =   -0.00025  -0.00025  -0.00025  -0.00025
   ROPT   =   -0.00025
 Ionic relaxation
   EDIFFG = -.2E-01   stopping-criterion for IOM
   NSW    =  10000    number of steps for IOM
   NBLOCK =      1;   KBLOCK =  10000    inner block; outer block 
   IBRION =      2    ionic relax: 0-MD 1-quasi-New 2-CG
   NFREE  =      1    steps in history (QN), initial steepest desc. (CG)
   ISIF   =      2    stress and relaxation
   IWAVPR =     11    prediction:  0-non 1-charg 2-wave 3-comb
   ISYM   =      2    0-nonsym 1-usesym 2-fastsym
   LCORR  =      T    Harris-Foulkes like correction to forces

   POTIM  = 0.5000    time-step for ionic-motion
   TEIN   =    0.0    initial temperature
   TEBEG  =    0.0;   TEEND  =   0.0 temperature during run
   SMASS  =  -3.00    Nose mass-parameter (am)
   estimated Nose-frequenzy (Omega)   =  0.10E-29 period in steps =****** mass=  -0.578E-26a.u.
   SCALEE = 1.0000    scale energy and forces
   NPACO  =    256;   APACO  = 16.0  distance and # of slots for P.C.
   PSTRESS=    0.0 pullay stress

  Mass of Ions in am
   POMASS =  12.01 52.00  1.00 95.94 32.07
  Ionic Valenz
   ZVAL   =   4.00  6.00  1.00  6.00  6.00
  Atomic Wigner-Seitz radii
   RWIGS  =  -1.00 -1.00 -1.00 -1.00 -1.00
  virtual crystal weights 
   VCA    =   1.00  1.00  1.00  1.00  1.00
   NELECT =     956.0000    total number of electrons
   NUPDOWN=      -1.0000    fix difference up-down

 DOS related values:
   EMIN   =  10.00;   EMAX   =-10.00  energy-range for DOS
   EFERMI =   0.00
   ISMEAR =     0;   SIGMA  =   0.10  broadening in eV -4-tet -1-fermi 0-gaus

 Electronic relaxation 2 (details)
   IALGO  =     38    algorithm
   LDIAG  =      T    sub-space diagonalisation (order eigenvalues)
   LSUBROT=      F    optimize rotation matrix (better conditioning)
   TURBO    =      0    0=normal 1=particle mesh
   IRESTART =      0    0=no restart 2=restart with 2 vectors
   NREBOOT  =      0    no. of reboots
   NMIN     =      0    reboot dimension
   EREF     =   0.00    reference energy to select bands
   IMIX   =      4    mixing-type and parameters
     AMIX     =   0.40;   BMIX     =  1.00
     AMIX_MAG =   1.60;   BMIX_MAG =  1.00
     AMIN     =   0.10
     WC   =   100.;   INIMIX=   1;  MIXPRE=   1;  MAXMIX= -45

 Intra band minimization:
   WEIMIN = 0.0010     energy-eigenvalue tresh-hold
   EBREAK =  0.43E-07  absolut break condition
   DEPER  =   0.30     relativ break condition  

   TIME   =   0.40     timestep for ELM

  volume/ion in A,a.u.               =      41.46       279.77
  Fermi-wavevector in a.u.,A,eV,Ry     =   0.839512  1.586448  9.589119  0.704780
  Thomas-Fermi vector in A             =   1.953743
 
 Write flags
   LWAVE        =      F    write WAVECAR
   LDOWNSAMPLE  =      F    k-point downsampling of WAVECAR
   LCHARG       =      F    write CHGCAR
   LVTOT        =      F    write LOCPOT, total local potential
   LVHAR        =      F    write LOCPOT, Hartree potential only
   LELF         =      F    write electronic localiz. function (ELF)
   LORBIT       =      0    0 simple, 1 ext, 2 COOP (PROOUT), +10 PAW based schemes


 Dipole corrections
   LMONO  =      F    monopole corrections only (constant potential shift)
   LDIPOL =      F    correct potential (dipole corrections)
   IDIPOL =      0    1-x, 2-y, 3-z, 4-all directions 
   EPSILON=  1.0000000 bulk dielectric constant

 Exchange correlation treatment:
   GGA     =    --    GGA type
   LEXCH   =     8    internal setting for exchange type
   VOSKOWN=      0    Vosko Wilk Nusair interpolation
   LHFCALC =     F    Hartree Fock is set to
   LHFONE  =     F    Hartree Fock one center treatment
   AEXX    =    0.0000 exact exchange contribution

 Linear response parameters
   LEPSILON=     F    determine dielectric tensor
   LRPA    =     F    only Hartree local field effects (RPA)
   LNABLA  =     F    use nabla operator in PAW spheres
   LVEL    =     F    velocity operator in full k-point grid
   LINTERFAST=   F  fast interpolation
   KINTER  =     0    interpolate to denser k-point grid
   CSHIFT  =0.1000    complex shift for real part using Kramers Kronig
   OMEGAMAX=  -1.0    maximum frequency
   DEG_THRESHOLD= 0.2000000E-02 threshold for treating states as degnerate
   RTIME   =   -0.100 relaxation time in fs
  (WPLASMAI=    0.000 imaginary part of plasma frequency in eV, 0.658/RTIME)
   DFIELD  = 0.0000000 0.0000000 0.0000000 field for delta impulse in time
 
 Orbital magnetization related:
   ORBITALMAG=     F  switch on orbital magnetization
   LCHIMAG   =     F  perturbation theory with respect to B field
   DQ        =  0.001000  dq finite difference perturbation B field
   LLRAUG    =     F  two centre corrections for induced B field



--------------------------------------------------------------------------------------------------------


 conjugate gradient relaxation of ions
   using selective dynamics as specified on POSCAR
   WARNING: If single coordinates had been selected the selection of coordinates
            is made according to the corresponding   d i r e c t   coordinates!
            Don't support selection of single cartesian coordinates -- sorry ...
  !
 charge density and potential will be updated during run
 non-spin polarized calculation
 Variant of blocked Davidson
 Davidson routine will perform the subspace rotation
 perform sub-space diagonalisation
    after iterative eigenvector-optimisation
 modified Broyden-mixing scheme, WC =      100.0
 initial mixing is a Kerker type mixing with AMIX =  0.4000 and BMIX =      1.0000
 Hartree-type preconditioning will be used
 using additional bands          107
 real space projection scheme for non local part
 use partial core corrections
 calculate Harris-corrections to forces 
   (improved forces if not selfconsistent)
 use gradient corrections 
 use of overlap-Matrix (Vanderbilt PP)
 Gauss-broadening in eV      SIGMA  =   0.10


--------------------------------------------------------------------------------------------------------


  energy-cutoff  :      400.00
  volume of cell :     7089.27
      direct lattice vectors                 reciprocal lattice vectors
    15.900000000  0.000000000  0.000000000     0.062893082  0.036311338  0.000000000
    -7.950000000 13.769803920  0.000000000     0.000000000  0.072622675  0.000000000
     0.000000000  0.000000000 32.380000000     0.000000000  0.000000000  0.030883261

  length of vectors
    15.900000000 15.900000000 32.380000000     0.072622675  0.072622675  0.030883261


 
 k-points in units of 2pi/SCALE and weight: Gamma-point only                        
   0.00000000  0.00000000  0.00000000       1.000
 
 k-points in reciprocal lattice and weights: Gamma-point only                        
   0.00000000  0.00000000  0.00000000       1.000
 
 position of ions in fractional coordinates (direct lattice) 
   0.43053569  0.29287337  0.47292909
   0.34882312  0.26864138  0.44732493
   0.44347617  0.36877022  0.50030748
   0.36848037  0.39201509  0.49175009
   0.30969663  0.32942030  0.45858917
   0.51826173  0.45078941  0.37941792
   0.48240077  0.55886272  0.41255689
   0.44839927  0.48348254  0.38184723
   0.57189585  0.57263932  0.42864070
   0.59413965  0.50647986  0.40855927
   0.45348427  0.42225473  0.43847137
   0.24623035  0.32754268  0.44501301
   0.38341728  0.45785030  0.36307729
   0.51532689  0.39564344  0.35864300
   0.44563156  0.59763594  0.42232366
   0.61335463  0.62164861  0.45366413
   0.32275858  0.21554751  0.42245605
   0.47793805  0.26202838  0.47058174
   0.50053773  0.40328384  0.52334803
   0.35651875  0.44477307  0.50817508
   0.65662020  0.49798729  0.41509306
   0.60000000  0.60000000  0.65735022
   0.20000000  0.80000000  0.21911674
   0.20000000  0.60000000  0.65735022
   0.60000000  0.80000000  0.21911674
   0.20000000  0.60000000  0.21911674
   0.60000000  0.80000000  0.65735022
   0.20000000  0.40000000  0.21911674
   0.80000000  0.00000000  0.21911674
   0.20000000  0.20000000  0.65735022
   0.80000000  0.00000000  0.65735022
   0.20000000  0.20000000  0.21911674
   0.20000000  0.80000000  0.65735022
   0.20000000  0.40000000  0.65735022
   0.60000000  0.60000000  0.21911674
   0.40000000  0.60000000  0.21911674
   0.40000000  0.00000000  0.65735022
   0.60000000  0.40000000  0.65735022
   0.40000000  0.20000000  0.21911674
   0.60000000  0.40000000  0.21911674
   0.40000000  0.20000000  0.65735022
   0.40000000  0.40000000  0.21911674
   0.60000000  0.20000000  0.65735022
   0.40000000  0.40000000  0.65735022
   0.60000000  0.20000000  0.21911674
   0.40000000  0.80000000  0.65735022
   0.40000000  0.60000000  0.65735022
   0.60000000  0.00000000  0.65735022
   0.40000000  0.80000000  0.21911674
   0.60000000  0.00000000  0.21911674
   0.40000000  0.00000000  0.21911674
   0.80000000  0.20000000  0.21911674
   0.20000000  0.00000000  0.65735022
   0.20000000  0.00000000  0.21911674
   0.00000000  0.00000000  0.21911674
   0.80000000  0.80000000  0.65735022
   0.00000000  0.00000000  0.65735022
   0.80000000  0.80000000  0.21911674
   0.00000000  0.20000000  0.21911674
   0.00000000  0.20000000  0.65735022
   0.80000000  0.60000000  0.65735022
   0.00000000  0.40000000  0.21911674
   0.00000000  0.40000000  0.65735022
   0.00000000  0.60000000  0.21911674
   0.80000000  0.40000000  0.65735022
   0.00000000  0.60000000  0.65735022
   0.80000000  0.60000000  0.21911674
   0.80000000  0.40000000  0.21911674
   0.00000000  0.80000000  0.65735022
   0.00000000  0.80000000  0.21911674
   0.80000000  0.20000000  0.65735022
   0.93333333  0.06666667  0.16985794
   0.73333333  0.26666667  0.60809141
   0.73333333  0.26666667  0.70660902
   0.93333333  0.66666667  0.70660902
   0.93333333  0.66666667  0.60809141
   0.73333333  0.26666667  0.16985794
   0.73333333  0.26666667  0.26837554
   0.93333333  0.46666667  0.26837554
   0.73333333  0.06666667  0.60809141
   0.73333333  0.06666667  0.70660902
   0.93333333  0.06666667  0.70660902
   0.93333333  0.86666667  0.16985794
   0.73333333  0.06666667  0.16985794
   0.93333333  0.06666667  0.60809141
   0.73333333  0.06666667  0.26837554
   0.93333333  0.26666667  0.16985794
   0.93333333  0.26666667  0.70660902
   0.93333333  0.86666667  0.26837554
   0.73333333  0.46666667  0.26837554
   0.73333333  0.46666667  0.16985794
   0.73333333  0.86666667  0.16985794
   0.73333333  0.86666667  0.70660902
   0.73333333  0.86666667  0.26837554
   0.93333333  0.46666667  0.16985794
   0.73333333  0.86666667  0.60809141
   0.73333333  0.66666667  0.60809141
   0.73333333  0.66666667  0.70660902
   0.93333333  0.46666667  0.70660902
   0.73333333  0.66666667  0.16985794
   0.93333333  0.46666667  0.60809141
   0.73333333  0.66666667  0.26837554
   0.93333333  0.26666667  0.60809141
   0.93333333  0.26666667  0.26837554
   0.73333333  0.46666667  0.60809141
   0.73333333  0.46666667  0.70660902
   0.93333333  0.66666667  0.26837554
   0.93333333  0.06666667  0.26837554
   0.93333333  0.66666667  0.16985794
   0.53333333  0.86666667  0.60809141
   0.53333333  0.06666667  0.70660902
   0.53333333  0.86666667  0.16985794
   0.33333333  0.26666667  0.16985794
   0.33333333  0.26666667  0.26837554
   0.33333333  0.06666667  0.60809141
   0.33333333  0.06666667  0.70660902
   0.33333333  0.06666667  0.16985794
   0.33333333  0.06666667  0.26837554
   0.13333333  0.86666667  0.60809141
   0.13333333  0.86666667  0.70660902
   0.13333333  0.86666667  0.16985794
   0.13333333  0.86666667  0.26837554
   0.13333333  0.66666667  0.60809141
   0.13333333  0.66666667  0.70660902
   0.33333333  0.26666667  0.70660902
   0.13333333  0.66666667  0.16985794
   0.13333333  0.46666667  0.60809141
   0.13333333  0.46666667  0.70660902
   0.13333333  0.46666667  0.16985794
   0.13333333  0.46666667  0.26837554
   0.13333333  0.26666667  0.60809141
   0.13333333  0.26666667  0.70660902
   0.13333333  0.26666667  0.16985794
   0.13333333  0.26666667  0.26837554
   0.13333333  0.06666667  0.60809141
   0.13333333  0.06666667  0.70660902
   0.13333333  0.06666667  0.16985794
   0.13333333  0.06666667  0.26837554
   0.13333333  0.66666667  0.26837554
   0.33333333  0.26666667  0.60809141
   0.33333333  0.46666667  0.26837554
   0.33333333  0.46666667  0.16985794
   0.53333333  0.86666667  0.26837554
   0.53333333  0.66666667  0.60809141
   0.53333333  0.66666667  0.70660902
   0.53333333  0.66666667  0.16985794
   0.53333333  0.66666667  0.26837554
   0.53333333  0.46666667  0.60809141
   0.53333333  0.46666667  0.70660902
   0.53333333  0.46666667  0.16985794
   0.53333333  0.46666667  0.26837554
   0.53333333  0.26666667  0.60809141
   0.53333333  0.26666667  0.70660902
   0.53333333  0.26666667  0.16985794
   0.53333333  0.26666667  0.26837554
   0.53333333  0.06666667  0.60809141
   0.93333333  0.86666667  0.70660902
   0.53333333  0.06666667  0.16985794
   0.53333333  0.06666667  0.26837554
   0.33333333  0.86666667  0.60809141
   0.33333333  0.86666667  0.70660902
   0.33333333  0.86666667  0.16985794
   0.33333333  0.86666667  0.26837554
   0.33333333  0.66666667  0.60809141
   0.33333333  0.66666667  0.70660902
   0.33333333  0.66666667  0.16985794
   0.33333333  0.66666667  0.26837554
   0.33333333  0.46666667  0.60809141
   0.33333333  0.46666667  0.70660902
   0.53333333  0.86666667  0.70660902
   0.93333333  0.86666667  0.60809141
 
 position of ions in cartesian coordinates  (Angst):
   4.51717422  4.03280882 15.31344405
   3.41058856  3.69913919 14.48438121
   4.11954794  5.07789361 16.19995611
   2.74231787  5.39797096 15.92286795
   2.30528501  4.53605298 14.84911722
   4.65658572  6.20728175 12.28555221
   3.22721358  7.69543014 13.35859209
   3.28586226  6.65745971 12.36421315
   4.54066135  7.88513118 13.87938595
   5.42030556  6.97412832 13.22914903
   3.85347476  5.81436477 14.19770292
   1.31109818  4.51019851 14.40952116
   2.45642487  6.30450888 11.75644279
   5.04833228  5.44793254 11.61286031
   2.33433612  8.22932972 13.67484024
   4.81023214  8.55997941 14.68964463
   3.41825863  2.96804699 13.67912698
   5.51608939  3.60807939 15.23743687
   4.75244329  5.55313944 16.94600928
   2.13270229  6.12443793 16.45470897
   6.48126226  6.85718739 13.44071322
   4.77000000  8.26188235 21.28500000
  -3.18000000 11.01584314  7.09500000
  -1.59000000  8.26188235 21.28500000
   3.18000000 11.01584314  7.09500000
  -1.59000000  8.26188235  7.09500000
   3.18000000 11.01584314 21.28500000
   0.00000000  5.50792157  7.09500000
  12.72000000  0.00000000  7.09500000
   1.59000000  2.75396078 21.28500000
  12.72000000  0.00000000 21.28500000
   1.59000000  2.75396078  7.09500000
  -3.18000000 11.01584314 21.28500000
   0.00000000  5.50792157 21.28500000
   4.77000000  8.26188235  7.09500000
   1.59000000  8.26188235  7.09500000
   6.36000000  0.00000000 21.28500000
   6.36000000  5.50792157 21.28500000
   4.77000000  2.75396078  7.09500000
   6.36000000  5.50792157  7.09500000
   4.77000000  2.75396078 21.28500000
   3.18000000  5.50792157  7.09500000
   7.95000000  2.75396078 21.28500000
   3.18000000  5.50792157 21.28500000
   7.95000000  2.75396078  7.09500000
  -0.00000000 11.01584314 21.28500000
   1.59000000  8.26188235 21.28500000
   9.54000000  0.00000000 21.28500000
  -0.00000000 11.01584314  7.09500000
   9.54000000  0.00000000  7.09500000
   6.36000000  0.00000000  7.09500000
  11.13000000  2.75396078  7.09500000
   3.18000000  0.00000000 21.28500000
   3.18000000  0.00000000  7.09500000
   0.00000000  0.00000000  7.09500000
   6.36000000 11.01584314 21.28500000
   0.00000000  0.00000000 21.28500000
   6.36000000 11.01584314  7.09500000
  -1.59000000  2.75396078  7.09500000
  -1.59000000  2.75396078 21.28500000
   7.95000000  8.26188235 21.28500000
  -3.18000000  5.50792157  7.09500000
  -3.18000000  5.50792157 21.28500000
  -4.77000000  8.26188235  7.09500000
   9.54000000  5.50792157 21.28500000
  -4.77000000  8.26188235 21.28500000
   7.95000000  8.26188235  7.09500000
   9.54000000  5.50792157  7.09500000
  -6.36000000 11.01584314 21.28500000
  -6.36000000 11.01584314  7.09500000
  11.13000000  2.75396078 21.28500000
  14.31000000  0.91798693  5.50000000
   9.54000000  3.67194771 19.69000000
   9.54000000  3.67194771 22.88000000
   9.54000000  9.17986928 22.88000000
   9.54000000  9.17986928 19.69000000
   9.54000000  3.67194771  5.50000000
   9.54000000  3.67194771  8.69000000
  11.13000000  6.42590850  8.69000000
  11.13000000  0.91798693 19.69000000
  11.13000000  0.91798693 22.88000000
  14.31000000  0.91798693 22.88000000
   7.95000000 11.93383006  5.50000000
  11.13000000  0.91798693  5.50000000
  14.31000000  0.91798693 19.69000000
  11.13000000  0.91798693  8.69000000
  12.72000000  3.67194771  5.50000000
  12.72000000  3.67194771 22.88000000
   7.95000000 11.93383006  8.69000000
   7.95000000  6.42590850  8.69000000
   7.95000000  6.42590850  5.50000000
   4.77000000 11.93383006  5.50000000
   4.77000000 11.93383006 22.88000000
   4.77000000 11.93383006  8.69000000
  11.13000000  6.42590850  5.50000000
   4.77000000 11.93383006 19.69000000
   6.36000000  9.17986928 19.69000000
   6.36000000  9.17986928 22.88000000
  11.13000000  6.42590850 22.88000000
   6.36000000  9.17986928  5.50000000
  11.13000000  6.42590850 19.69000000
   6.36000000  9.17986928  8.69000000
  12.72000000  3.67194771 19.69000000
  12.72000000  3.67194771  8.69000000
   7.95000000  6.42590850 19.69000000
   7.95000000  6.42590850 22.88000000
   9.54000000  9.17986928  8.69000000
  14.31000000  0.91798693  8.69000000
   9.54000000  9.17986928  5.50000000
   1.59000000 11.93383006 19.69000000
   7.95000000  0.91798693 22.88000000
   1.59000000 11.93383006  5.50000000
   3.18000000  3.67194771  5.50000000
   3.18000000  3.67194771  8.69000000
   4.77000000  0.91798693 19.69000000
   4.77000000  0.91798693 22.88000000
   4.77000000  0.91798693  5.50000000
   4.77000000  0.91798693  8.69000000
  -4.77000000 11.93383006 19.69000000
  -4.77000000 11.93383006 22.88000000
  -4.77000000 11.93383006  5.50000000
  -4.77000000 11.93383006  8.69000000
  -3.18000000  9.17986928 19.69000000
  -3.18000000  9.17986928 22.88000000
   3.18000000  3.67194771 22.88000000
  -3.18000000  9.17986928  5.50000000
  -1.59000000  6.42590850 19.69000000
  -1.59000000  6.42590850 22.88000000
  -1.59000000  6.42590850  5.50000000
  -1.59000000  6.42590850  8.69000000
  -0.00000000  3.67194771 19.69000000
  -0.00000000  3.67194771 22.88000000
  -0.00000000  3.67194771  5.50000000
  -0.00000000  3.67194771  8.69000000
   1.59000000  0.91798693 19.69000000
   1.59000000  0.91798693 22.88000000
   1.59000000  0.91798693  5.50000000
   1.59000000  0.91798693  8.69000000
  -3.18000000  9.17986928  8.69000000
   3.18000000  3.67194771 19.69000000
   1.59000000  6.42590850  8.69000000
   1.59000000  6.42590850  5.50000000
   1.59000000 11.93383006  8.69000000
   3.18000000  9.17986928 19.69000000
   3.18000000  9.17986928 22.88000000
   3.18000000  9.17986928  5.50000000
   3.18000000  9.17986928  8.69000000
   4.77000000  6.42590850 19.69000000
   4.77000000  6.42590850 22.88000000
   4.77000000  6.42590850  5.50000000
   4.77000000  6.42590850  8.69000000
   6.36000000  3.67194771 19.69000000
   6.36000000  3.67194771 22.88000000
   6.36000000  3.67194771  5.50000000
   6.36000000  3.67194771  8.69000000
   7.95000000  0.91798693 19.69000000
   7.95000000 11.93383006 22.88000000
   7.95000000  0.91798693  5.50000000
   7.95000000  0.91798693  8.69000000
  -1.59000000 11.93383006 19.69000000
  -1.59000000 11.93383006 22.88000000
  -1.59000000 11.93383006  5.50000000
  -1.59000000 11.93383006  8.69000000
   0.00000000  9.17986928 19.69000000
   0.00000000  9.17986928 22.88000000
   0.00000000  9.17986928  5.50000000
   0.00000000  9.17986928  8.69000000
   1.59000000  6.42590850 19.69000000
   1.59000000  6.42590850 22.88000000
   1.59000000 11.93383006 22.88000000
   7.95000000 11.93383006 19.69000000
 


--------------------------------------------------------------------------------------------------------


 use parallel FFT for orbitals z direction half grid
 k-point  1 :   0.0000 0.0000 0.0000  plane waves:   64319

 maximum and minimum number of plane-waves per node :     16081    16079

 maximum number of plane-waves:     64319
 maximum index in each direction: 
   IXMAX=   25   IYMAX=   25   IZMAX=   52
   IXMIN=  -25   IYMIN=  -25   IZMIN=    0


 real space projection operators:
  total allocation   :      76629.94 KBytes
  max/ min on nodes  :      19172.25      19143.55


 parallel 3D FFT for wavefunctions:
    minimum data exchange during FFTs selected (reduces bandwidth)
 parallel 3D FFT for charge:
    minimum data exchange during FFTs selected (reduces bandwidth)


 total amount of memory used by VASP MPI-rank0   156589. kBytes
=======================================================================

   base      :      30000. kBytes
   nonlr-proj:      23536. kBytes
   fftplans  :      28265. kBytes
   grid      :      62703. kBytes
   one-center:        334. kBytes
   wavefun   :      11751. kBytes
 
     INWAV:  cpu time    0.0000: real time    0.0000
 Broyden mixing: mesh for mixing (old mesh)
   NGX = 51   NGY = 51   NGZ =105
  (NGX  =216   NGY  =216   NGZ  =432)
  gives a total of 273105 points

 initial charge density was supplied:
 charge density of overlapping atoms calculated
 number of electron     956.0000000 magnetization 
 keeping initial charge density in first step


--------------------------------------------------------------------------------------------------------


 Maximum index for non-local projection operator         1630
 Maximum index for augmentation-charges         1579 (set IRDMAX)


--------------------------------------------------------------------------------------------------------


 First call to EWALD:  gamma=   0.092
 Maximum number of real-space cells 4x 4x 2
 Maximum number of reciprocal cells 2x 2x 4

    FEWALD:  cpu time    0.0067: real time    0.0068


--------------------------------------- Iteration      1(   1)  ---------------------------------------


    POTLOK:  cpu time    0.3929: real time    0.6815
    SETDIJ:  cpu time    0.0171: real time    0.0172
     EDDAV:  cpu time   10.6750: real time   10.8134
       DOS:  cpu time    0.0006: real time    0.0007
    --------------------------------------------
      LOOP:  cpu time   11.0856: real time   11.5128

 eigenvalue-minimisations  :  1196
 total energy-change (2. order) : 0.7661275E+04  (-0.3638875E+05)
 number of electron     956.0000000 magnetization 
 augmentation part      956.0000000 magnetization 

 Free energy of the ion-electron system (eV)
  ---------------------------------------------------
  alpha Z        PSCENC =      1150.89500911
  Ewald energy   TEWEN  =     87338.78686019
  -Hartree energ DENC   =   -125312.21495407
  -exchange      EXHF   =         0.00000000
  -V(xc)+E(xc)   XCENC  =     -1684.43669538
  PAW double counting   =     36411.78182824   -32520.45026120
  entropy T*S    EENTRO =        -0.25355713
  eigenvalues    EBANDS =      1846.62684356
  atomic energy  EATOM  =     40430.53995508
  Solvation  Ediel_sol  =         0.00000000
  ---------------------------------------------------
  free energy    TOTEN  =      7661.27502840 eV

  energy without entropy =     7661.52858553  energy(sigma->0) =     7661.40180696


--------------------------------------------------------------------------------------------------------




--------------------------------------- Iteration      1(   2)  ---------------------------------------


     EDDAV:  cpu time   13.5358: real time   13.6457
       DOS:  cpu time    0.0005: real time    0.0005
    --------------------------------------------
      LOOP:  cpu time   13.5363: real time   13.6461

 eigenvalue-minimisations  :  1612
 total energy-change (2. order) :-0.7921790E+04  (-0.7688043E+04)
 number of electron     956.0000000 magnetization 
 augmentation part      956.0000000 magnetization 

 Free energy of the ion-electron system (eV)
  ---------------------------------------------------
  alpha Z        PSCENC =      1150.89500911
  Ewald energy   TEWEN  =     87338.78686019
  -Hartree energ DENC   =   -125312.21495407
  -exchange      EXHF   =         0.00000000
  -V(xc)+E(xc)   XCENC  =     -1684.43669538
  PAW double counting   =     36411.78182824   -32520.45026120
  entropy T*S    EENTRO =        -0.11409214
  eigenvalues    EBANDS =     -6075.30304251
  atomic energy  EATOM  =     40430.53995508
  Solvation  Ediel_sol  =         0.00000000
  ---------------------------------------------------
  free energy    TOTEN  =      -260.51539269 eV

  energy without entropy =     -260.40130054  energy(sigma->0) =     -260.45834662


--------------------------------------------------------------------------------------------------------




--------------------------------------- Iteration      1(   3)  ---------------------------------------


     EDDAV:  cpu time   12.3671: real time   13.0548
       DOS:  cpu time    0.0004: real time    0.0004
    --------------------------------------------
      LOOP:  cpu time   12.3675: real time   13.0552

 eigenvalue-minimisations  :  1378
 total energy-change (2. order) :-0.1002519E+04  (-0.9886503E+03)
 number of electron     956.0000000 magnetization 
 augmentation part      956.0000000 magnetization 

 Free energy of the ion-electron system (eV)
  ---------------------------------------------------
  alpha Z        PSCENC =      1150.89500911
  Ewald energy   TEWEN  =     87338.78686019
  -Hartree energ DENC   =   -125312.21495407
  -exchange      EXHF   =         0.00000000
  -V(xc)+E(xc)   XCENC  =     -1684.43669538
  PAW double counting   =     36411.78182824   -32520.45026120
  entropy T*S    EENTRO =        -0.00000013
  eigenvalues    EBANDS =     -7077.93648330
  atomic energy  EATOM  =     40430.53995508
  Solvation  Ediel_sol  =         0.00000000
  ---------------------------------------------------
  free energy    TOTEN  =     -1263.03474147 eV

  energy without entropy =    -1263.03474133  energy(sigma->0) =    -1263.03474140


--------------------------------------------------------------------------------------------------------




--------------------------------------- Iteration      1(   4)  ---------------------------------------


     EDDAV:  cpu time   14.5509: real time   14.9762
       DOS:  cpu time    0.0003: real time    0.0003
    --------------------------------------------
      LOOP:  cpu time   14.5512: real time   14.9765

 eigenvalue-minimisations  :  1768
 total energy-change (2. order) :-0.5794027E+02  (-0.5760858E+02)
 number of electron     956.0000000 magnetization 
 augmentation part      956.0000000 magnetization 

 Free energy of the ion-electron system (eV)
  ---------------------------------------------------
  alpha Z        PSCENC =      1150.89500911
  Ewald energy   TEWEN  =     87338.78686019
  -Hartree energ DENC   =   -125312.21495407
  -exchange      EXHF   =         0.00000000
  -V(xc)+E(xc)   XCENC  =     -1684.43669538
  PAW double counting   =     36411.78182824   -32520.45026120
  entropy T*S    EENTRO =        -0.00000000
  eigenvalues    EBANDS =     -7135.87675267
  atomic energy  EATOM  =     40430.53995508
  Solvation  Ediel_sol  =         0.00000000
  ---------------------------------------------------
  free energy    TOTEN  =     -1320.97501070 eV

  energy without entropy =    -1320.97501070  energy(sigma->0) =    -1320.97501070


--------------------------------------------------------------------------------------------------------




--------------------------------------- Iteration      1(   5)  ---------------------------------------


     EDDAV:  cpu time   14.7074: real time   15.1076
       DOS:  cpu time    0.0003: real time    0.0003
    CHARGE:  cpu time    1.0375: real time    1.0446
    MIXING:  cpu time    0.0093: real time    0.0138
    --------------------------------------------
      LOOP:  cpu time   15.7546: real time   16.1664

 eigenvalue-minimisations  :  1794
 total energy-change (2. order) :-0.2137641E+01  (-0.2126877E+01)
 number of electron     955.9999996 magnetization 
 augmentation part      -44.8906401 magnetization 

 Broyden mixing:
  rms(total) = 0.16943E+02    rms(broyden)= 0.16943E+02
  rms(prec ) = 0.17047E+02
  weight for this iteration     100.00

 Free energy of the ion-electron system (eV)
  ---------------------------------------------------
  alpha Z        PSCENC =      1150.89500911
  Ewald energy   TEWEN  =     87338.78686019
  -Hartree energ DENC   =   -125312.21495407
  -exchange      EXHF   =         0.00000000
  -V(xc)+E(xc)   XCENC  =     -1684.43669538
  PAW double counting   =     36411.78182824   -32520.45026120
  entropy T*S    EENTRO =        -0.00000000
  eigenvalues    EBANDS =     -7138.01439416
  atomic energy  EATOM  =     40430.53995508
  Solvation  Ediel_sol  =         0.00000000
  ---------------------------------------------------
  free energy    TOTEN  =     -1323.11265219 eV

  energy without entropy =    -1323.11265219  energy(sigma->0) =    -1323.11265219


--------------------------------------------------------------------------------------------------------




--------------------------------------- Iteration      1(   6)  ---------------------------------------


    POTLOK:  cpu time    0.4487: real time    1.0602
    SETDIJ:  cpu time    0.0203: real time    0.0203
     EDDAV:  cpu time   13.6687: real time   13.8196
       DOS:  cpu time    0.0005: real time    0.0005
    CHARGE:  cpu time    1.0491: real time    1.0559
    MIXING:  cpu time    0.0099: real time    0.0365
    --------------------------------------------
      LOOP:  cpu time   15.1972: real time   15.9930

 eigenvalue-minimisations  :  1625
 total energy-change (2. order) : 0.4681732E+02  (-0.9439984E+02)
 number of electron     955.9999988 magnetization 
 augmentation part      -10.4031676 magnetization 

 Broyden mixing:
  rms(total) = 0.92337E+01    rms(broyden)= 0.92335E+01
  rms(prec ) = 0.94109E+01
  weight for this iteration     100.00

 eigenvalues of (default mixing * dielectric matrix)
  average eigenvalue GAMMA=   0.9544
  0.9544

 Free energy of the ion-electron system (eV)
  ---------------------------------------------------
  alpha Z        PSCENC =      1150.89500911
  Ewald energy   TEWEN  =     87338.78686019
  -Hartree energ DENC   =   -125325.50371674
  -exchange      EXHF   =         0.00000000
  -V(xc)+E(xc)   XCENC  =     -1635.01878988
  PAW double counting   =     51785.70754359   -47934.18779062
  entropy T*S    EENTRO =        -0.12862138
  eigenvalues    EBANDS =     -7087.38578610
  atomic energy  EATOM  =     40430.53995508
  Solvation  Ediel_sol  =         0.00000000
  ---------------------------------------------------
  free energy    TOTEN  =     -1276.29533675 eV

  energy without entropy =    -1276.16671537  energy(sigma->0) =    -1276.23102606


--------------------------------------------------------------------------------------------------------




--------------------------------------- Iteration      1(   7)  ---------------------------------------


    POTLOK:  cpu time    0.3841: real time    0.3869
    SETDIJ:  cpu time    0.0213: real time    0.0214
     EDDAV:  cpu time   14.8504: real time   14.9649
       DOS:  cpu time    0.0005: real time    0.0005
    CHARGE:  cpu time    1.1430: real time    1.1507
    MIXING:  cpu time    0.0099: real time    0.0100
    --------------------------------------------
      LOOP:  cpu time   16.4093: real time   16.5345

 eigenvalue-minimisations  :  1794
 total energy-change (2. order) :-0.1992488E+02  (-0.1179556E+03)
 number of electron     955.9999997 magnetization 
 augmentation part      -30.1268142 magnetization 

 Broyden mixing:
  rms(total) = 0.55085E+01    rms(broyden)= 0.55084E+01
  rms(prec ) = 0.56919E+01
  weight for this iteration     100.00

 eigenvalues of (default mixing * dielectric matrix)
  average eigenvalue GAMMA=   1.1159
  1.6950  0.5368

 Free energy of the ion-electron system (eV)
  ---------------------------------------------------
  alpha Z        PSCENC =      1150.89500911
  Ewald energy   TEWEN  =     87338.78686019
  -Hartree energ DENC   =   -125722.55845722
  -exchange      EXHF   =         0.00000000
  -V(xc)+E(xc)   XCENC  =     -1644.57752567
  PAW double counting   =     64561.27592900   -60741.94811837
  entropy T*S    EENTRO =        -0.42981423
  eigenvalues    EBANDS =     -6668.20405547
  atomic energy  EATOM  =     40430.53995508
  Solvation  Ediel_sol  =         0.00000000
  ---------------------------------------------------
  free energy    TOTEN  =     -1296.22021758 eV

  energy without entropy =    -1295.79040336  energy(sigma->0) =    -1296.00531047


--------------------------------------------------------------------------------------------------------




--------------------------------------- Iteration      1(   8)  ---------------------------------------


    POTLOK:  cpu time    0.3771: real time    3.0777
    SETDIJ:  cpu time    0.0206: real time    0.0206
     EDDAV:  cpu time   12.4115: real time   12.5109
       DOS:  cpu time    0.0005: real time    0.0005
    CHARGE:  cpu time    1.1418: real time    1.1491
    MIXING:  cpu time    0.0101: real time    0.0101
    --------------------------------------------
      LOOP:  cpu time   13.9614: real time   16.7690

 eigenvalue-minimisations  :  1456
 total energy-change (2. order) : 0.6403141E+02  (-0.6110831E+01)
 number of electron     955.9999997 magnetization 
 augmentation part      -30.0111662 magnetization 

 Broyden mixing:
  rms(total) = 0.30862E+01    rms(broyden)= 0.30862E+01
  rms(prec ) = 0.32125E+01
  weight for this iteration     100.00

 eigenvalues of (default mixing * dielectric matrix)
  average eigenvalue GAMMA=   1.1435
  2.0833  0.6735  0.6735

 Free energy of the ion-electron system (eV)
  ---------------------------------------------------
  alpha Z        PSCENC =      1150.89500911
  Ewald energy   TEWEN  =     87338.78686019
  -Hartree energ DENC   =   -125759.59072142
  -exchange      EXHF   =         0.00000000
  -V(xc)+E(xc)   XCENC  =     -1633.89988415
  PAW double counting   =     76838.13418839   -73027.86190700
  entropy T*S    EENTRO =        -0.21533820
  eigenvalues    EBANDS =     -6568.97696678
  atomic energy  EATOM  =     40430.53995508
  Solvation  Ediel_sol  =         0.00000000
  ---------------------------------------------------
  free energy    TOTEN  =     -1232.18880478 eV

  energy without entropy =    -1231.97346658  energy(sigma->0) =    -1232.08113568


--------------------------------------------------------------------------------------------------------




--------------------------------------- Iteration      1(   9)  ---------------------------------------


    POTLOK:  cpu time    0.3750: real time    1.0200
    SETDIJ:  cpu time    0.0206: real time    0.0206
     EDDAV:  cpu time   14.8272: real time   14.9444
       DOS:  cpu time    0.0005: real time    0.0005
    CHARGE:  cpu time    1.0365: real time    1.0430
    MIXING:  cpu time    0.0105: real time    0.0105
    --------------------------------------------
      LOOP:  cpu time   16.2703: real time   17.0392

 eigenvalue-minimisations  :  1807
 total energy-change (2. order) :-0.7441675E+01  (-0.1940706E+02)
 number of electron     955.9999990 magnetization 
 augmentation part      -21.2290534 magnetization 

 Broyden mixing:
  rms(total) = 0.32089E+01    rms(broyden)= 0.32087E+01
  rms(prec ) = 0.34684E+01
  weight for this iteration     100.00

 eigenvalues of (default mixing * dielectric matrix)
  average eigenvalue GAMMA=   0.9576
  2.1721  0.6445  0.5396  0.4744

 Free energy of the ion-electron system (eV)
  ---------------------------------------------------
  alpha Z        PSCENC =      1150.89500911
  Ewald energy   TEWEN  =     87338.78686019
  -Hartree energ DENC   =   -125808.92403992
  -exchange      EXHF   =         0.00000000
  -V(xc)+E(xc)   XCENC  =     -1623.89900031
  PAW double counting   =     81967.83742293   -78159.43486662
  entropy T*S    EENTRO =        -0.21154904
  eigenvalues    EBANDS =     -6535.22027159
  atomic energy  EATOM  =     40430.53995508
  Solvation  Ediel_sol  =         0.00000000
  ---------------------------------------------------
  free energy    TOTEN  =     -1239.63048018 eV

[...]
   -.695E+01 0.702E+01 0.704E+03   0.696E+01 -.702E+01 -.709E+03   -.380E-02 0.681E-03 0.510E+01   0.189E-03 -.230E-03 -.210E-04
   -.323E+02 0.331E+02 -.240E+03   0.323E+02 -.331E+02 0.244E+03   -.537E-02 0.113E-01 -.501E+01   0.788E-03 -.630E-03 -.213E-02
   -.164E+02 0.150E+02 0.281E+03   0.164E+02 -.150E+02 -.286E+03   0.224E-02 -.964E-03 0.508E+01   0.445E-03 -.646E-03 0.104E-02
   -.830E+00 -.398E+00 -.692E+03   0.831E+00 0.399E+00 0.696E+03   -.884E-04 -.465E-04 -.510E+01   -.348E-04 -.182E-03 -.197E-03
   -.322E+01 0.332E+01 0.693E+03   0.322E+01 -.332E+01 -.697E+03   0.591E-04 0.842E-03 0.510E+01   0.495E-04 -.605E-04 0.250E-03
   -.117E+02 0.121E+02 -.284E+03   0.117E+02 -.121E+02 0.288E+03   -.836E-03 -.980E-03 -.507E+01   0.215E-03 -.219E-03 -.130E-02
   0.158E+01 0.540E+01 0.288E+03   -.158E+01 -.540E+01 -.293E+03   0.143E-02 -.171E-02 0.508E+01   0.306E-03 -.471E-03 0.969E-03
   0.477E+00 0.164E+01 -.691E+03   -.478E+00 -.164E+01 0.696E+03   0.810E-03 0.208E-03 -.510E+01   0.171E-03 -.254E-03 -.334E-03
   0.151E+01 0.341E+00 0.691E+03   -.151E+01 -.342E+00 -.696E+03   -.135E-03 0.156E-02 0.510E+01   -.275E-04 -.117E-04 0.281E-03
   0.456E+01 0.131E+01 -.289E+03   -.456E+01 -.131E+01 0.293E+03   -.869E-03 0.214E-02 -.508E+01   -.317E-04 -.491E-04 -.121E-02
   0.236E+02 -.218E+02 0.271E+03   -.236E+02 0.218E+02 -.276E+03   0.624E-03 0.141E-02 0.506E+01   -.622E-03 0.503E-03 0.120E-02
   0.607E+01 -.559E+01 -.696E+03   -.607E+01 0.559E+01 0.701E+03   0.909E-03 -.817E-03 -.510E+01   -.381E-03 0.352E-03 -.225E-03
   0.727E+01 -.523E+01 0.698E+03   -.727E+01 0.523E+01 -.702E+03   0.102E-02 0.642E-03 0.510E+01   -.173E-03 0.124E-03 0.178E-03
   0.294E+02 -.212E+02 -.267E+03   -.294E+02 0.212E+02 0.272E+03   0.153E-02 0.139E-02 -.507E+01   -.476E-03 0.388E-03 -.149E-02
   0.407E+02 -.207E+02 0.210E+03   -.408E+02 0.207E+02 -.215E+03   0.502E-02 -.718E-02 0.503E+01   -.153E-02 0.148E-02 0.182E-02
   0.775E+01 -.378E+01 -.709E+03   -.775E+01 0.378E+01 0.714E+03   0.303E-02 -.321E-02 -.510E+01   -.795E-03 0.112E-02 0.159E-04
   0.930E+00 -.418E+01 -.692E+03   -.929E+00 0.419E+01 0.697E+03   -.865E-03 0.414E-03 -.510E+01   -.121E-03 -.840E-04 -.197E-03
   -.321E+01 -.202E+01 0.286E+03   0.322E+01 0.202E+01 -.291E+03   -.289E-03 -.280E-02 0.508E+01   -.100E-03 -.342E-03 0.926E-03
 -----------------------------------------------------------------------------------------------
   -.284E+01 0.713E-01 -.811E+00   0.316E-12 0.830E-12 -.495E-11   0.284E+01 -.863E-01 0.824E+00   -.204E-02 0.137E-01 -.162E-01
 
 
 POSITION                                       TOTAL-FORCE (eV/Angst)
 -----------------------------------------------------------------------------------
      4.51550      4.02991     15.31344        -0.002633      0.001926      0.041148
      3.40977      3.69640     14.48438         0.008501     -0.005041      0.005779
      4.11856      5.07470     16.19996         0.010854     -0.001098      0.006349
      2.74213      5.39485     15.92287        -0.009059     -0.000779      0.016910
      2.30548      4.53372     14.84912        -0.009263     -0.010191      0.012924
      4.65710      6.20904     12.28555         0.005556     -0.005825      0.020748
      3.22910      7.69732     13.35859        -0.000533      0.007445     -0.014050
      3.28688      6.65918     12.36421        -0.008448      0.003352     -0.007868
      4.54198      7.88731     13.87939         0.004103      0.001616     -0.015090
      5.42013      6.97620     13.22915         0.002916      0.001254     -0.040446
      3.85282      5.81488     14.19770         0.003252     -0.009836     -0.006093
      1.31172      4.50949     14.40952        -0.006875     -0.004546     -0.015171
      2.45727      6.30477     11.75644         0.002225      0.004511     -0.011811
      5.04644      5.44803     11.61286        -0.002385      0.003637      0.005233
      2.33544      8.22981     13.67484        -0.002731      0.007616      0.008937
      4.81213      8.56139     14.68964         0.003454      0.002000     -0.002238
      3.41863      2.96568     13.67913        -0.003145     -0.005241     -0.013559
      5.51546      3.60837     15.23744         0.006331     -0.007783      0.001607
      4.74964      5.55320     16.94601        -0.006459     -0.006279      0.000173
      2.13402      6.12287     16.45471        -0.004771     -0.002986      0.014333
      6.48020      6.85694     13.44071         0.010943     -0.001129     -0.000216
      4.77031      8.26262     21.28500        -0.001253     -0.002031      0.008603
     -3.18000     11.01584      7.09500        -0.000980      0.001511      0.002940
     -1.58997      8.26182     21.28500        -0.000009     -0.000696     -0.002492
      3.18000     11.01584      7.09500        -0.001040      0.000819      0.000383
     -1.59000      8.26188      7.09500         0.001025      0.001061      0.002288
      3.17999     11.01614     21.28500         0.000192     -0.000366     -0.002658
      0.00000      5.50792      7.09500        -0.000323     -0.004705     -0.002249
     12.72000      0.00000      7.09500        -0.001306     -0.000567      0.001546
      1.59043      2.75439     21.28500        -0.002425     -0.001969      0.008111
     12.72009      0.00017     21.28500         0.000810     -0.000142     -0.000974
      1.59000      2.75396      7.09500        -0.003536      0.000178      0.002583
     -3.18010     11.01586     21.28500        -0.000056      0.000765     -0.001645
      0.00019      5.50751     21.28500         0.000411      0.000860     -0.005830
      4.77000      8.26188      7.09500        -0.003323     -0.010747      0.004817
      1.59000      8.26188      7.09500         0.006935      0.001653      0.009000
      6.35950      0.00027     21.28500         0.001494      0.000338     -0.001160
      6.35994      5.50788     21.28500        -0.001119      0.001937     -0.009718
      4.77000      2.75396      7.09500        -0.001313     -0.001475      0.005826
      6.36000      5.50792      7.09500        -0.012770      0.007040     -0.003140
      4.76919      2.75439     21.28500         0.003071     -0.001713     -0.000104
      3.18000      5.50792      7.09500         0.012251      0.010189      0.004390
      7.94987      2.75427     21.28500        -0.001282     -0.000893     -0.000186
      3.17995      5.50696     21.28500         0.001939      0.006275     -0.027005
      7.95000      2.75396      7.09500         0.004813     -0.000686      0.001188
      0.00004     11.01585     21.28500        -0.000581      0.000291     -0.002858
      1.59016      8.26163     21.28500         0.000072     -0.000056      0.000366
      9.54046      0.00005     21.28500        -0.002656      0.001030     -0.002132
     -0.00000     11.01584      7.09500         0.000339      0.001336      0.002989
      9.54000      0.00000      7.09500        -0.001332     -0.000856      0.000113
      6.36000      0.00000      7.09500         0.001133      0.000157      0.001208
     11.13000      2.75396      7.09500         0.001694     -0.001710      0.004380
      3.17988      0.00023     21.28500        -0.000409      0.000048     -0.000448
      3.18000      0.00000      7.09500         0.001297      0.000165      0.003585
      0.00000      0.00000      7.09500         0.000187     -0.000251     -0.005616
      6.36012     11.01605     21.28500         0.000138      0.001198     -0.001298
      0.00009      0.00016     21.28500         0.000660      0.000795     -0.005286
      6.36000     11.01584      7.09500         0.000237      0.000342      0.001730
     -1.59000      2.75396      7.09500        -0.001600     -0.000110      0.002844
     -1.58992      2.75400     21.28500         0.000980     -0.000360      0.001462
      7.94987      8.26209     21.28500         0.000748     -0.000887     -0.003128
     -3.18000      5.50792      7.09500        -0.001735      0.000321     -0.000265
     -3.17993      5.50752     21.28500         0.000115      0.001629     -0.002775
     -4.77000      8.26188      7.09500         0.001559     -0.000026     -0.000143
      9.54006      5.50769     21.28500        -0.000151      0.000871     -0.003437
     -4.77019      8.26210     21.28500         0.000723     -0.001278     -0.002323
      7.95000      8.26188      7.09500        -0.005242      0.003070      0.005042
      9.54000      5.50792      7.09500         0.000497     -0.004045     -0.000878
     -6.36006     11.01583     21.28500         0.000431      0.001039     -0.000209
     -6.36000     11.01584      7.09500         0.001261      0.000634      0.002535
     11.13026      2.75386     21.28500        -0.000710      0.000323     -0.002932
     14.31000      0.91799      5.50000         0.000167      0.000224      0.586769
      9.54005      3.67173     19.69000        -0.000656      0.000171      0.585638
      9.54005      3.67183     22.88000        -0.000377     -0.000199     -0.587482
      9.53989      9.17991     22.88000        -0.000128      0.000162     -0.585569
      9.53996      9.18001     19.69000        -0.000224      0.000035      0.586091
      9.54000      3.67195      5.50000        -0.000842     -0.000593      0.587894
      9.54000      3.67195      8.69000         0.000943     -0.000219     -0.587034
     11.13000      6.42591      8.69000        -0.001635     -0.000052     -0.586466
     11.13024      0.91808     19.69000         0.000183     -0.000060      0.585098
     11.13019      0.91806     22.88000         0.000304     -0.000048     -0.584598
     14.31000      0.91807     22.88000         0.000924      0.000229     -0.586629
      7.95000     11.93383      5.50000        -0.000162      0.000009      0.586850
     11.13000      0.91799      5.50000        -0.000166      0.000018      0.586536
     14.31024      0.91822     19.69000         0.000347     -0.000206      0.585658
     11.13000      0.91799      8.69000         0.000686     -0.000651     -0.586560
     12.72000      3.67195      5.50000         0.000401      0.000075      0.587111
     12.72007      3.67186     22.88000         0.000556     -0.000275     -0.584515
      7.95000     11.93383      8.69000        -0.001387     -0.002288     -0.586086
      7.95000      6.42591      8.69000        -0.003443      0.003710     -0.575977
      7.95000      6.42591      5.50000        -0.000351     -0.000248      0.586897
      4.77000     11.93383      5.50000         0.000278     -0.000226      0.587372
      4.77002     11.93389     22.88000         0.000319      0.000813     -0.586868
      4.77000     11.93383      8.69000         0.000452     -0.002875     -0.585039
     11.13000      6.42591      5.50000        -0.000358     -0.000223      0.586678
      4.77007     11.93404     19.69000         0.000244      0.000437      0.586628
      6.36020      9.18024     19.69000         0.000248      0.000879      0.580663
      6.35995      9.18006     22.88000         0.000887      0.000936     -0.584836
     11.12998      6.42585     22.88000         0.000246     -0.000024     -0.588011
      6.36000      9.17987      5.50000        -0.001164     -0.000168      0.586468
     11.13004      6.42590     19.69000         0.000171     -0.000306      0.588873
      6.36000      9.17987      8.69000        -0.003009     -0.002099     -0.575943
     12.72029      3.67176     19.69000         0.000107      0.000081      0.583812
     12.72000      3.67195      8.69000        -0.000174     -0.000676     -0.587048
      7.95015      6.42596     19.69000        -0.000365     -0.000404      0.583813
      7.94990      6.42582     22.88000         0.000280      0.000229     -0.588065
      9.54000      9.17987      8.69000        -0.001614     -0.000011     -0.586268
     14.31000      0.91799      8.69000        -0.001344     -0.000513     -0.586675
      9.54000      9.17987      5.50000         0.000229     -0.000015      0.586874
      1.59004     11.93398     19.69000        -0.000254      0.000319      0.586221
      7.95007      0.91812     22.88000        -0.000734      0.000412     -0.590257
      1.59000     11.93383      5.50000         0.000121     -0.000122      0.586612
      3.18000      3.67195      5.50000         0.000440      0.001697      0.586302
      3.18000      3.67195      8.69000         0.003658      0.004407     -0.569185
      4.76939      0.91867     19.69000         0.000263     -0.000971      0.580305
      4.76976      0.91817     22.88000        -0.000729      0.000645     -0.585267
      4.77000      0.91799      5.50000         0.000118      0.000243      0.587212
      4.77000      0.91799      8.69000        -0.000315     -0.001206     -0.586472
     -4.77009     11.93408     19.69000        -0.000137      0.000168      0.587162
     -4.77007     11.93387     22.88000        -0.000102      0.000441     -0.586884
     -4.77000     11.93383      5.50000        -0.000495     -0.000037      0.586978
     -4.77000     11.93383      8.69000        -0.001161     -0.000239     -0.587436
     -3.18013      9.17995     19.69000         0.000193     -0.000293      0.587100
     -3.18007      9.17990     22.88000         0.000060     -0.000216     -0.586610
      3.17999      3.67211     22.88000        -0.000503     -0.000030     -0.573912
     -3.18000      9.17987      5.50000        -0.000326      0.000185      0.586527
     -1.58987      6.42562     19.69000         0.000166     -0.000237      0.586645
     -1.58987      6.42563     22.88000         0.000030     -0.000085     -0.587908
     -1.59000      6.42591      5.50000         0.000123     -0.000469      0.586970
     -1.59000      6.42591      8.69000        -0.000053      0.000561     -0.585210
      0.00063      3.67164     19.69000        -0.000950      0.000554      0.576643
      0.00002      3.67196     22.88000         0.000709     -0.000379     -0.585328
     -0.00000      3.67195      5.50000         0.000261     -0.000413      0.588071
     -0.00000      3.67195      8.69000         0.000344     -0.001227     -0.584534
      1.59026      0.91867     19.69000        -0.000739     -0.001056      0.582219
      1.59000      0.91820     22.88000         0.000060      0.000469     -0.586695
      1.59000      0.91799      5.50000        -0.000149      0.000540      0.586949
      1.59000      0.91799      8.69000         0.000053     -0.000327     -0.586041
     -3.18000      9.17987      8.69000        -0.000478      0.000525     -0.586942
      3.18002      3.67159     19.69000        -0.000374      0.001919      0.552926
      1.59000      6.42591      8.69000         0.001878      0.000960     -0.572998
      1.59000      6.42591      5.50000         0.001090     -0.000415      0.585799
      1.59000     11.93383      8.69000         0.002152     -0.001927     -0.585025
      3.18005      9.18000     19.69000        -0.000231      0.000734      0.580381
      3.18018      9.18000     22.88000        -0.000653      0.000357     -0.588070
      3.18000      9.17987      5.50000         0.000576     -0.000310      0.585266
      3.18000      9.17987      8.69000         0.003370     -0.002859     -0.568789
      4.77010      6.42713     19.69000        -0.000125     -0.002234      0.613852
      4.76987      6.42570     22.88000         0.000599      0.002189     -0.587548
      4.77000      6.42591      5.50000        -0.000273     -0.001654      0.581039
      4.77000      6.42591      8.69000         0.000643      0.007794     -0.605554
      6.35869      3.67184     19.69000         0.002166      0.001678      0.568778
      6.35983      3.67222     22.88000        -0.001021      0.000108     -0.586298
      6.36000      3.67195      5.50000        -0.000260      0.000897      0.587149
      6.36000      3.67195      8.69000        -0.006463      0.005359     -0.571548
      7.94987      0.91811     19.69000        -0.000270      0.000568      0.588168
      7.95003     11.93385     22.88000         0.000353      0.001281     -0.586468
      7.95000      0.91799      5.50000         0.000201      0.001065      0.586553
      7.95000      0.91799      8.69000         0.001096     -0.000132     -0.586684
     -1.59023     11.93409     19.69000         0.000081      0.000438      0.587994
     -1.59008     11.93391     22.88000        -0.000191      0.000808     -0.587980
     -1.59000     11.93383      5.50000         0.000282      0.000129      0.586826
     -1.59000     11.93383      8.69000         0.000107     -0.000145     -0.587479
      0.00000      9.17970     19.69000         0.000581     -0.000065      0.585368
      0.00009      9.17977     22.88000         0.000413     -0.000482     -0.587025
      0.00000      9.17987      5.50000         0.000531     -0.000112      0.587325
      0.00000      9.17987      8.69000         0.002046      0.000131     -0.583689
      1.59040      6.42521     19.69000        -0.000204      0.000602      0.570876
      1.59019      6.42557     22.88000         0.000449     -0.000548     -0.586271
      1.59008     11.93388     22.88000        -0.000336      0.000568     -0.586507
      7.95019     11.93407     19.69000         0.000046      0.000886      0.585701
 -----------------------------------------------------------------------------------
    total drift:                               -0.002113     -0.001297     -0.003205


--------------------------------------------------------------------------------------------------------



  FREE ENERGIE OF THE ION-ELECTRON SYSTEM (eV)
  ---------------------------------------------------
  free  energy   TOTEN  =     -1253.24183404 eV

  energy  without entropy=    -1253.11167262  energy(sigma->0) =    -1253.17675333
 
 d Force = 0.3129792E-04[ 0.116E-04, 0.510E-04]  d Energy =-0.3920972E-04 0.705E-04
 d Force =-0.2371150E-01[-0.237E-01,-0.237E-01]  d Ewald  =-0.2371138E-01-0.116E-06


--------------------------------------------------------------------------------------------------------


    POTLOK:  cpu time    0.4304: real time    0.4328


--------------------------------------------------------------------------------------------------------


 Conjugate gradient step on ions:
 trial-energy change:    0.000039  1 .order   -0.000031   -0.000051   -0.000012
  (g-gl).g = 0.811E-04      g.g   = 0.148E-03  gl.gl    = 0.213E-03
 g(Force)  = 0.148E-03   g(Stress)= 0.000E+00 ortho     =-0.581E-05
 gamma     =   0.37991
 trial     =   0.34961
 opt step  =   0.45280  (harmonic =   0.45280) maximal distance =0.00034330
 next E    = -1253.241906   (d E  =  -0.00003)


--------------------------------------------------------------------------------------------------------


  
 reached required accuracy - stopping structural energy minimisation
     LOOP+:  cpu time   67.1473: real time   69.3848
    4ORBIT:  cpu time    0.0000: real time    0.0000

 total amount of memory used by VASP MPI-rank0   156589. kBytes
=======================================================================

   base      :      30000. kBytes
   nonlr-proj:      23536. kBytes
   fftplans  :      28265. kBytes
   grid      :      62703. kBytes
   one-center:        334. kBytes
   wavefun   :      11751. kBytes
 
  
  
 General timing and accounting informations for this job:
 ========================================================
  
                  Total CPU time used (sec):     2735.749
                            User time (sec):     2723.329
                          System time (sec):       12.419
                         Elapsed time (sec):     2900.305
  
                   Maximum memory used (kb):      320584.
                   Average memory used (kb):           0.
  
                          Minor page faults:      1692030
                          Major page faults:           74
                 Voluntary context switches:         1479
