<?xml version="1.0" encoding="ISO-8859-1"?>
<modeling>
 <generator>
  <i name="program" type="string">vasp </i>
  <i name="version" type="string">5.4.4.18Apr17-6-g9f103f2a35  </i>
  <i name="subversion" type="string">(build Oct 28 2020 13:00:36) gamma-only         parallel </i>
  <i name="platform" type="string">LinuxIFC </i>
  <i name="date" type="string">2020 12 03 </i>
  <i name="time" type="string">21:33:07 </i>
 </generator>
 <incar>
  <i type="string" name="SYSTEM"> basalPlane</i>
  <i type="int" name="ISTART">     0</i>
  <i type="string" name="PREC">accurate  !=accurate, max(enmax) no wra</i>
  <i type="string" name="ALGO"> Normal    !=Normal, blocked Davidson it</i>
  <i type="int" name="NSIM">     4</i>
  <i type="int" name="ISPIN">     1</i>
  <i type="int" name="ICHARG">     2</i>
  <i type="int" name="INIWAV">     1</i>
  <i type="int" name="NELM">   200</i>
  <i type="int" name="NELMDL">    -5</i>
  <i type="int" name="NELMIN">     2</i>
  <i type="int" name="IBRION">     2</i>
  <i name="EDIFF">      0.00010000</i>
  <i name="EDIFFG">     -0.02000000</i>
  <i type="int" name="NSW"> 10000</i>
  <i type="int" name="ISIF">     2</i>
  <i type="int" name="ISYM">     2</i>
  <i name="ENCUT">    400.00000000</i>
  <i name="ENAUG">    645.00000000</i>
  <i type="string" name="LREAL"> Auto     !=Auto projection operators ev</i>
  <i type="logical" name="LPLANE"> T  </i>
  <i type="int" name="ISMEAR">     0</i>
  <i name="SIGMA">      0.10000000</i>
  <i type="int" name="NWRITE">     2</i>
  <i type="logical" name="LWAVE"> F  </i>
  <i type="logical" name="LCHARG"> F  </i>
  <i type="int" name="LORBIT">     0</i>
  <i type="logical" name="LELF"> F  </i>
  <i type="logical" name="LSCALU"> F  </i>
  <v type="int" name="KPOINT_BSE">    -1     0     0     0</v>
  <i type="int" name="NELM">   200</i>
 </incar>
 <structure name="primitive_cell" >
  <crystal>
   <varray name="basis" >
    <v>      15.90000000       0.00000000       0.00000000 </v>
    <v>      -7.95000000      13.76980392       0.00000000 </v>
    <v>       0.00000000       0.00000000      32.38000000 </v>
   </varray>
   <i name="volume">   7089.27338987 </i>
   <varray name="rec_basis" >
    <v>       0.06289308       0.03631134       0.00000000 </v>
    <v>       0.00000000       0.07262268       0.00000000 </v>
    <v>       0.00000000       0.00000000       0.03088326 </v>
   </varray>
  </crystal>
  <varray name="positions" >
   <v>       0.43053569       0.29287337       0.47292909 </v>
   <v>       0.47793805       0.26202838       0.47058174 </v>
   <v>       0.34882312       0.26864138       0.44732493 </v>
   <v>       0.44347617       0.36877022      -0.49969252 </v>
   <v>       0.45348427       0.42225473       0.43847137 </v>
   <v>       0.32275858       0.21554751       0.42245605 </v>
   <v>      -0.49946227       0.40328384      -0.47665197 </v>
   <v>       0.30969663       0.32942030       0.45858917 </v>
   <v>       0.36848037       0.39201509       0.49175009 </v>
   <v>       0.24623035       0.32754268       0.44501301 </v>
   <v>       0.35651875       0.44477307      -0.49182492 </v>
   <v>      -0.40586035      -0.49352014       0.40855927 </v>
   <v>      -0.48173827       0.45078941       0.37941792 </v>
   <v>      -0.34337980       0.49798729       0.41509306 </v>
   <v>      -0.48467311       0.39564344       0.35864300 </v>
   <v>      -0.42810415      -0.42736068       0.42864070 </v>
   <v>       0.44839927       0.48348254       0.38184723 </v>
   <v>       0.48240077      -0.44113728       0.41255689 </v>
   <v>      -0.38664537      -0.37835139       0.45366413 </v>
   <v>       0.33333333       0.26666667      -0.39190859 </v>
   <v>       0.38341728       0.45785030       0.36307729 </v>
   <v>      -0.46666667       0.26666667      -0.39190859 </v>
   <v>      -0.46666667       0.46666667      -0.39190859 </v>
   <v>       0.44563156      -0.40236406       0.42232366 </v>
   <v>       0.33333333       0.06666667      -0.39190859 </v>
   <v>       0.33333333       0.46666667      -0.39190859 </v>
   <v>      -0.26666667       0.46666667      -0.39190859 </v>
   <v>       0.40000000       0.20000000      -0.34264978 </v>
   <v>       0.13333333       0.06666667      -0.39190859 </v>
   <v>       0.40000000       0.40000000      -0.34264978 </v>
   <v>       0.13333333       0.26666667      -0.39190859 </v>
   <v>      -0.46666667       0.06666667      -0.39190859 </v>
   <v>      -0.40000000       0.40000000      -0.34264978 </v>
   <v>      -0.26666667       0.26666667      -0.39190859 </v>
   <v>       0.33333333       0.26666667       0.26837554 </v>
   <v>       0.20000000       0.20000000      -0.34264978 </v>
   <v>      -0.46666667       0.26666667       0.26837554 </v>
   <v>      -0.46666667      -0.33333333      -0.39190859 </v>
   <v>      -0.26666667      -0.33333333      -0.39190859 </v>
   <v>      -0.40000000       0.20000000      -0.34264978 </v>
   <v>      -0.46666667       0.46666667       0.26837554 </v>
   <v>      -0.40000000      -0.40000000      -0.34264978 </v>
   <v>       0.33333333       0.06666667       0.26837554 </v>
   <v>       0.20000000       0.00000000      -0.34264978 </v>
   <v>       0.40000000       0.00000000      -0.34264978 </v>
   <v>       0.13333333      -0.13333333      -0.39190859 </v>
   <v>       0.33333333      -0.13333333      -0.39190859 </v>
   <v>       0.33333333       0.46666667       0.26837554 </v>
   <v>       0.20000000       0.40000000      -0.34264978 </v>
   <v>       0.33333333       0.26666667      -0.29339098 </v>
   <v>      -0.46666667       0.26666667      -0.29339098 </v>
   <v>      -0.26666667       0.46666667       0.26837554 </v>
   <v>       0.40000000      -0.40000000      -0.34264978 </v>
   <v>       0.13333333       0.06666667       0.26837554 </v>
   <v>       0.13333333       0.46666667      -0.39190859 </v>
   <v>      -0.46666667       0.46666667      -0.29339098 </v>
   <v>      -0.20000000       0.40000000      -0.34264978 </v>
   <v>       0.13333333       0.26666667       0.26837554 </v>
   <v>      -0.20000000      -0.40000000      -0.34264978 </v>
   <v>      -0.46666667       0.06666667       0.26837554 </v>
   <v>       0.33333333      -0.33333333      -0.39190859 </v>
   <v>      -0.06666667       0.06666667      -0.39190859 </v>
   <v>       0.33333333       0.06666667      -0.29339098 </v>
   <v>      -0.06666667       0.46666667      -0.39190859 </v>
   <v>      -0.26666667       0.26666667       0.26837554 </v>
   <v>       0.40000000       0.20000000       0.21911674 </v>
   <v>      -0.06666667      -0.33333333      -0.39190859 </v>
   <v>       0.40000000       0.40000000       0.21911674 </v>
   <v>       0.33333333       0.46666667      -0.29339098 </v>
   <v>      -0.46666667      -0.33333333       0.26837554 </v>
   <v>       0.00000000       0.00000000      -0.34264978 </v>
   <v>      -0.26666667       0.06666667      -0.39190859 </v>
   <v>      -0.40000000       0.40000000       0.21911674 </v>
   <v>      -0.26666667      -0.33333333       0.26837554 </v>
   <v>      -0.06666667      -0.13333333      -0.39190859 </v>
   <v>       0.00000000       0.20000000      -0.34264978 </v>
   <v>      -0.26666667       0.46666667      -0.29339098 </v>
   <v>       0.13333333       0.06666667      -0.29339098 </v>
   <v>      -0.40000000       0.00000000      -0.34264978 </v>
   <v>       0.20000000       0.20000000       0.21911674 </v>
   <v>       0.13333333       0.26666667      -0.29339098 </v>
   <v>      -0.06666667       0.26666667      -0.39190859 </v>
   <v>      -0.46666667       0.06666667      -0.29339098 </v>
   <v>      -0.46666667      -0.13333333      -0.39190859 </v>
   <v>       0.13333333      -0.13333333       0.26837554 </v>
   <v>      -0.40000000       0.20000000       0.21911674 </v>
   <v>      -0.20000000       0.20000000      -0.34264978 </v>
   <v>      -0.26666667      -0.13333333      -0.39190859 </v>
   <v>       0.33333333      -0.13333333       0.26837554 </v>
   <v>       0.20000000      -0.20000000      -0.34264978 </v>
   <v>      -0.26666667       0.26666667      -0.29339098 </v>
   <v>      -0.40000000      -0.40000000       0.21911674 </v>
   <v>      -0.46666667      -0.33333333      -0.29339098 </v>
   <v>       0.20000000       0.00000000       0.21911674 </v>
   <v>      -0.40000000      -0.20000000      -0.34264978 </v>
   <v>       0.13333333       0.46666667       0.26837554 </v>
   <v>      -0.26666667      -0.33333333      -0.29339098 </v>
   <v>       0.40000000       0.00000000       0.21911674 </v>
   <v>      -0.20000000      -0.20000000      -0.34264978 </v>
   <v>       0.20000000       0.40000000       0.21911674 </v>
   <v>       0.00000000      -0.20000000      -0.34264978 </v>
   <v>       0.33333333      -0.33333333       0.26837554 </v>
   <v>       0.20000000      -0.40000000      -0.34264978 </v>
   <v>      -0.06666667       0.06666667       0.26837554 </v>
   <v>      -0.06666667       0.46666667       0.26837554 </v>
   <v>       0.13333333      -0.13333333      -0.29339098 </v>
   <v>       0.40000000      -0.20000000      -0.34264978 </v>
   <v>       0.13333333      -0.33333333      -0.39190859 </v>
   <v>       0.40000000      -0.40000000       0.21911674 </v>
   <v>      -0.20000000       0.40000000       0.21911674 </v>
   <v>       0.33333333      -0.13333333      -0.29339098 </v>
   <v>      -0.06666667      -0.33333333       0.26837554 </v>
   <v>       0.00000000       0.40000000      -0.34264978 </v>
   <v>      -0.20000000      -0.40000000       0.21911674 </v>
   <v>       0.00000000      -0.40000000      -0.34264978 </v>
   <v>      -0.26666667       0.06666667       0.26837554 </v>
   <v>       0.33333333       0.26666667       0.16985794 </v>
   <v>      -0.06666667      -0.13333333       0.26837554 </v>
   <v>      -0.46666667       0.26666667       0.16985794 </v>
   <v>       0.13333333       0.46666667      -0.29339098 </v>
   <v>      -0.46666667       0.46666667       0.16985794 </v>
   <v>      -0.06666667       0.26666667       0.26837554 </v>
   <v>      -0.46666667      -0.13333333       0.26837554 </v>
   <v>       0.33333333      -0.33333333      -0.29339098 </v>
   <v>       0.00000000       0.00000000       0.21911674 </v>
   <v>      -0.06666667       0.06666667      -0.29339098 </v>
   <v>       0.33333333       0.06666667       0.16985794 </v>
   <v>      -0.26666667      -0.13333333       0.26837554 </v>
   <v>       0.00000000       0.20000000       0.21911674 </v>
   <v>      -0.06666667       0.46666667      -0.29339098 </v>
   <v>      -0.06666667      -0.33333333      -0.29339098 </v>
   <v>      -0.40000000       0.00000000       0.21911674 </v>
   <v>       0.33333333       0.46666667       0.16985794 </v>
   <v>      -0.26666667       0.06666667      -0.29339098 </v>
   <v>      -0.20000000       0.00000000      -0.34264978 </v>
   <v>      -0.06666667      -0.13333333      -0.29339098 </v>
   <v>      -0.20000000       0.20000000       0.21911674 </v>
   <v>       0.20000000      -0.20000000       0.21911674 </v>
   <v>      -0.26666667       0.46666667       0.16985794 </v>
   <v>       0.13333333       0.06666667       0.16985794 </v>
   <v>      -0.06666667       0.26666667      -0.29339098 </v>
   <v>       0.13333333       0.26666667       0.16985794 </v>
   <v>      -0.46666667      -0.13333333      -0.29339098 </v>
   <v>      -0.46666667       0.06666667       0.16985794 </v>
   <v>      -0.40000000      -0.20000000       0.21911674 </v>
   <v>       0.13333333      -0.33333333       0.26837554 </v>
   <v>      -0.20000000      -0.20000000       0.21911674 </v>
   <v>      -0.26666667      -0.13333333      -0.29339098 </v>
   <v>      -0.26666667       0.26666667       0.16985794 </v>
   <v>       0.00000000      -0.20000000       0.21911674 </v>
   <v>       0.20000000      -0.40000000       0.21911674 </v>
   <v>      -0.46666667      -0.33333333       0.16985794 </v>
   <v>       0.40000000      -0.20000000       0.21911674 </v>
   <v>      -0.26666667      -0.33333333       0.16985794 </v>
   <v>       0.00000000       0.40000000       0.21911674 </v>
   <v>       0.00000000      -0.40000000       0.21911674 </v>
   <v>       0.13333333      -0.33333333      -0.29339098 </v>
   <v>       0.13333333      -0.13333333       0.16985794 </v>
   <v>       0.33333333      -0.13333333       0.16985794 </v>
   <v>       0.13333333       0.46666667       0.16985794 </v>
   <v>      -0.20000000       0.00000000       0.21911674 </v>
   <v>       0.33333333      -0.33333333       0.16985794 </v>
   <v>      -0.06666667       0.06666667       0.16985794 </v>
   <v>      -0.06666667       0.46666667       0.16985794 </v>
   <v>      -0.06666667      -0.33333333       0.16985794 </v>
   <v>      -0.26666667       0.06666667       0.16985794 </v>
   <v>      -0.06666667      -0.13333333       0.16985794 </v>
   <v>      -0.06666667       0.26666667       0.16985794 </v>
   <v>      -0.46666667      -0.13333333       0.16985794 </v>
   <v>      -0.26666667      -0.13333333       0.16985794 </v>
   <v>       0.13333333      -0.33333333       0.16985794 </v>
  </varray>
 </structure>
 <varray name="primitive_index" >
  <v type="int" >        1 </v>
  <v type="int" >       18 </v>
  <v type="int" >        2 </v>
  <v type="int" >        3 </v>
  <v type="int" >       11 </v>
  <v type="int" >       17 </v>
  <v type="int" >       19 </v>
  <v type="int" >        5 </v>
  <v type="int" >        4 </v>
  <v type="int" >       12 </v>
  <v type="int" >       20 </v>
  <v type="int" >       10 </v>
  <v type="int" >        6 </v>
  <v type="int" >       21 </v>
  <v type="int" >       14 </v>
  <v type="int" >        9 </v>
  <v type="int" >        8 </v>
  <v type="int" >        7 </v>
  <v type="int" >       16 </v>
  <v type="int" >      140 </v>
  <v type="int" >       13 </v>
  <v type="int" >      152 </v>
  <v type="int" >      148 </v>
  <v type="int" >       15 </v>
  <v type="int" >      115 </v>
  <v type="int" >      168 </v>
  <v type="int" >      105 </v>
  <v type="int" >       41 </v>
  <v type="int" >      135 </v>
  <v type="int" >       44 </v>
  <v type="int" >      131 </v>
  <v type="int" >      156 </v>
  <v type="int" >       38 </v>
  <v type="int" >       73 </v>
  <v type="int" >      114 </v>
  <v type="int" >       30 </v>
  <v type="int" >      155 </v>
  <v type="int" >      144 </v>
  <v type="int" >       97 </v>
  <v type="int" >       43 </v>
  <v type="int" >      151 </v>
  <v type="int" >       22 </v>
  <v type="int" >      118 </v>
  <v type="int" >       53 </v>
  <v type="int" >       37 </v>
  <v type="int" >      119 </v>
  <v type="int" >      160 </v>
  <v type="int" >      141 </v>
  <v type="int" >       34 </v>
  <v type="int" >      125 </v>
  <v type="int" >      153 </v>
  <v type="int" >       90 </v>
  <v type="int" >       47 </v>
  <v type="int" >      138 </v>
  <v type="int" >      127 </v>
  <v type="int" >      149 </v>
  <v type="int" >       65 </v>
  <v type="int" >      134 </v>
  <v type="int" >       61 </v>
  <v type="int" >      159 </v>
  <v type="int" >      164 </v>
  <v type="int" >       85 </v>
  <v type="int" >      116 </v>
  <v type="int" >      101 </v>
  <v type="int" >       78 </v>
  <v type="int" >       39 </v>
  <v type="int" >       76 </v>
  <v type="int" >       42 </v>
  <v type="int" >      169 </v>
  <v type="int" >      147 </v>
  <v type="int" >       57 </v>
  <v type="int" >       80 </v>
  <v type="int" >       40 </v>
  <v type="int" >      102 </v>
  <v type="int" >      171 </v>
  <v type="int" >       60 </v>
  <v type="int" >      106 </v>
  <v type="int" >      136 </v>
  <v type="int" >       48 </v>
  <v type="int" >       32 </v>
  <v type="int" >      132 </v>
  <v type="int" >      103 </v>
  <v type="int" >      111 </v>
  <v type="int" >      110 </v>
  <v type="int" >      122 </v>
  <v type="int" >       45 </v>
  <v type="int" >       71 </v>
  <v type="int" >       96 </v>
  <v type="int" >      163 </v>
  <v type="int" >       33 </v>
  <v type="int" >       74 </v>
  <v type="int" >       35 </v>
  <v type="int" >      145 </v>
  <v type="int" >       54 </v>
  <v type="int" >       27 </v>
  <v type="int" >      130 </v>
  <v type="int" >       98 </v>
  <v type="int" >       51 </v>
  <v type="int" >       56 </v>
  <v type="int" >       28 </v>
  <v type="int" >       69 </v>
  <v type="int" >      167 </v>
  <v type="int" >       24 </v>
  <v type="int" >      108 </v>
  <v type="int" >       79 </v>
  <v type="int" >      120 </v>
  <v type="int" >       46 </v>
  <v type="int" >      123 </v>
  <v type="int" >       36 </v>
  <v type="int" >       68 </v>
  <v type="int" >      161 </v>
  <v type="int" >      107 </v>
  <v type="int" >       63 </v>
  <v type="int" >       67 </v>
  <v type="int" >       66 </v>
  <v type="int" >       86 </v>
  <v type="int" >      113 </v>
  <v type="int" >       89 </v>
  <v type="int" >      154 </v>
  <v type="int" >      128 </v>
  <v type="int" >      150 </v>
  <v type="int" >      104 </v>
  <v type="int" >      143 </v>
  <v type="int" >      165 </v>
  <v type="int" >       55 </v>
  <v type="int" >       82 </v>
  <v type="int" >      117 </v>
  <v type="int" >       94 </v>
  <v type="int" >       59 </v>
  <v type="int" >       99 </v>
  <v type="int" >       75 </v>
  <v type="int" >       50 </v>
  <v type="int" >      142 </v>
  <v type="int" >       81 </v>
  <v type="int" >       31 </v>
  <v type="int" >      157 </v>
  <v type="int" >       52 </v>
  <v type="int" >       23 </v>
  <v type="int" >       91 </v>
  <v type="int" >      137 </v>
  <v type="int" >       88 </v>
  <v type="int" >      133 </v>
  <v type="int" >      170 </v>
  <v type="int" >      158 </v>
  <v type="int" >       25 </v>
  <v type="int" >      139 </v>
  <v type="int" >       58 </v>
  <v type="int" >       93 </v>
  <v type="int" >       77 </v>
  <v type="int" >       70 </v>
  <v type="int" >       26 </v>
  <v type="int" >      146 </v>
  <v type="int" >       49 </v>
  <v type="int" >      100 </v>
  <v type="int" >       62 </v>
  <v type="int" >       64 </v>
  <v type="int" >      124 </v>
  <v type="int" >      121 </v>
  <v type="int" >      162 </v>
  <v type="int" >      129 </v>
  <v type="int" >       29 </v>
  <v type="int" >      166 </v>
  <v type="int" >       72 </v>
  <v type="int" >       95 </v>
  <v type="int" >      109 </v>
  <v type="int" >       84 </v>
  <v type="int" >       83 </v>
  <v type="int" >       87 </v>
  <v type="int" >      112 </v>
  <v type="int" >       92 </v>
  <v type="int" >      126 </v>
 </varray>
 <kpoints>
  <varray name="kpointlist" >
   <v>       0.00000000       0.00000000       0.00000000 </v>
  </varray>
  <varray name="weights" >
   <v>       1.00000000 </v>
  </varray>
 </kpoints>
 <parameters>
  <separator name="general" >
   <i type="string" name="SYSTEM">basalPlane</i>
   <i type="logical" name="LCOMPAT"> F  </i>
  </separator>
  <separator name="electronic" >
   <i type="string" name="PREC">accura</i>
   <i name="ENMAX">    400.00000000</i>
   <i name="ENAUG">    645.00000000</i>
   <i name="EDIFF">      0.00010000</i>
   <i type="int" name="IALGO">    38</i>
   <i type="int" name="IWAVPR">    11</i>
   <i type="int" name="NBANDS">   585</i>
   <i name="NELECT">    956.00000000</i>
   <i type="int" name="TURBO">     0</i>
   <i type="int" name="IRESTART">     0</i>
   <i type="int" name="NREBOOT">     0</i>
   <i type="int" name="NMIN">     0</i>
   <i name="EREF">      0.00000000</i>
   <separator name="electronic smearing" >
    <i type="int" name="ISMEAR">     0</i>
    <i name="SIGMA">      0.10000000</i>
    <i name="KSPACING">      0.50000000</i>
    <i type="logical" name="KGAMMA"> T  </i>
   </separator>
   <separator name="electronic projectors" >
    <i type="logical" name="LREAL"> T  </i>
    <v name="ROPT">     -0.00025000     -0.00025000     -0.00025000     -0.00025000     -0.00025000</v>
    <i type="int" name="LMAXPAW">  -100</i>
    <i type="int" name="LMAXMIX">     2</i>
    <i type="logical" name="NLSPLINE"> F  </i>
   </separator>
   <separator name="electronic startup" >
    <i type="int" name="ISTART">     0</i>
    <i type="int" name="ICHARG">     2</i>
    <i type="int" name="INIWAV">     1</i>
   </separator>
   <separator name="electronic spin" >
    <i type="int" name="ISPIN">     1</i>
    <i type="logical" name="LNONCOLLINEAR"> F  </i>
    <v name="MAGMOM">      1.00000000      1.00000000      1.00000000      1.00000000      1.00000000      1.00000000      1.00000000      1.00000000      1.00000000      1.00000000      1.00000000      1.00000000      1.00000000      1.00000000      1.00000000      1.00000000      1.00000000      1.00000000      1.00000000      1.00000000
      1.00000000      1.00000000      1.00000000      1.00000000      1.00000000      1.00000000      1.00000000      1.00000000      1.00000000      1.00000000      1.00000000      1.00000000      1.00000000      1.00000000      1.00000000      1.00000000      1.00000000      1.00000000      1.00000000      1.00000000
      1.00000000      1.00000000      1.00000000      1.00000000      1.00000000      1.00000000      1.00000000      1.00000000      1.00000000      1.00000000      1.00000000      1.00000000      1.00000000      1.00000000      1.00000000      1.00000000      1.00000000      1.00000000      1.00000000      1.00000000
      1.00000000      1.00000000      1.00000000      1.00000000      1.00000000      1.00000000      1.00000000      1.00000000      1.00000000      1.00000000      1.00000000      1.00000000      1.00000000      1.00000000      1.00000000      1.00000000      1.00000000      1.00000000      1.00000000      1.00000000
      1.00000000      1.00000000      1.00000000      1.00000000      1.00000000      1.00000000      1.00000000      1.00000000      1.00000000      1.00000000      1.00000000      1.00000000      1.00000000      1.00000000      1.00000000      1.00000000      1.00000000      1.00000000      1.00000000      1.00000000
      1.00000000      1.00000000      1.00000000      1.00000000      1.00000000      1.00000000      1.00000000      1.00000000      1.00000000      1.00000000      1.00000000      1.00000000      1.00000000      1.00000000      1.00000000      1.00000000      1.00000000      1.00000000      1.00000000      1.00000000
      1.00000000      1.00000000      1.00000000      1.00000000      1.00000000      1.00000000      1.00000000      1.00000000      1.00000000      1.00000000      1.00000000      1.00000000      1.00000000      1.00000000      1.00000000      1.00000000      1.00000000      1.00000000      1.00000000      1.00000000
      1.00000000      1.00000000      1.00000000      1.00000000      1.00000000      1.00000000      1.00000000      1.00000000      1.00000000      1.00000000      1.00000000      1.00000000      1.00000000      1.00000000      1.00000000      1.00000000      1.00000000      1.00000000      1.00000000      1.00000000
      1.00000000      1.00000000      1.00000000      1.00000000      1.00000000      1.00000000      1.00000000      1.00000000      1.00000000      1.00000000      1.00000000</v>
    <i name="NUPDOWN">     -1.00000000</i>
    <i type="logical" name="LSORBIT"> F  </i>
    <v name="SAXIS">      0.00000000      0.00000000      1.00000000</v>
    <i type="logical" name="LSPIRAL"> F  </i>
    <v name="QSPIRAL">      0.00000000      0.00000000      0.00000000</v>
    <i type="logical" name="LZEROZ"> F  </i>
   </separator>
   <separator name="electronic exchange-correlation" >
    <i type="logical" name="LASPH"> F  </i>
    <i type="logical" name="LMETAGGA"> F  </i>
   </separator>
   <separator name="electronic convergence" >
    <i type="int" name="NELM">   200</i>
    <i type="int" name="NELMDL">    -5</i>
    <i type="int" name="NELMIN">     2</i>
    <i name="ENINI">    400.00000000</i>
    <separator name="electronic convergence detail" >
     <i type="logical" name="LDIAG"> T  </i>
     <i type="logical" name="LSUBROT"> F  </i>
     <i name="WEIMIN">      0.00100000</i>
     <i name="EBREAK">      0.00000004</i>
     <i name="DEPER">      0.30000000</i>
     <i type="int" name="NRMM">     4</i>
     <i name="TIME">      0.40000000</i>
    </separator>
   </separator>
   <separator name="electronic mixer" >
    <i name="AMIX">      0.40000000</i>
    <i name="BMIX">      1.00000000</i>
    <i name="AMIN">      0.10000000</i>
    <i name="AMIX_MAG">      1.60000000</i>
    <i name="BMIX_MAG">      1.00000000</i>
    <separator name="electronic mixer details" >
     <i type="int" name="IMIX">     4</i>
     <i type="logical" name="MIXFIRST"> F  </i>
     <i type="int" name="MAXMIX">   -45</i>
     <i name="WC">    100.00000000</i>
     <i type="int" name="INIMIX">     1</i>
     <i type="int" name="MIXPRE">     1</i>
     <i type="int" name="MREMOVE">     5</i>
    </separator>
   </separator>
   <separator name="electronic dipolcorrection" >
    <i type="logical" name="LDIPOL"> F  </i>
    <i type="logical" name="LMONO"> F  </i>
    <i type="int" name="IDIPOL">     0</i>
    <i name="EPSILON">      1.00000000</i>
    <v name="DIPOL">   -100.00000000   -100.00000000   -100.00000000</v>
    <i name="EFIELD">      0.00000000</i>
   </separator>
  </separator>
  <separator name="grids" >
   <i type="int" name="NGX">   108</i>
   <i type="int" name="NGY">   108</i>
   <i type="int" name="NGZ">   216</i>
   <i type="int" name="NGXF">   216</i>
   <i type="int" name="NGYF">   216</i>
   <i type="int" name="NGZF">   432</i>
   <i type="logical" name="ADDGRID"> F  </i>
  </separator>
  <separator name="ionic" >
   <i type="int" name="NSW"> 10000</i>
   <i type="int" name="IBRION">     2</i>
   <i type="int" name="MDALGO">     0</i>
   <i type="int" name="ISIF">     2</i>
   <i name="PSTRESS">      0.00000000</i>
   <i name="EDIFFG">     -0.02000000</i>
   <i type="int" name="NFREE">     1</i>
   <i name="POTIM">      0.50000000</i>
   <i name="SMASS">     -3.00000000</i>
   <i name="SCALEE">      1.00000000</i>
  </separator>
  <separator name="ionic md" >
   <i name="TEBEG">      0.00010000</i>
   <i name="TEEND">      0.00010000</i>
   <i type="int" name="NBLOCK">     1</i>
   <i type="int" name="KBLOCK"> 10000</i>
   <i type="int" name="NPACO">   256</i>
   <i name="APACO">     16.00000000</i>
  </separator>
  <separator name="symmetry" >
   <i type="int" name="ISYM">     2</i>
   <i name="SYMPREC">      0.00001000</i>
  </separator>
  <separator name="dos" >
   <i type="int" name="LORBIT">     0</i>
   <v name="RWIGS">     -1.00000000     -1.00000000     -1.00000000     -1.00000000     -1.00000000</v>
   <i type="int" name="NEDOS">   301</i>
   <i name="EMIN">     10.00000000</i>
   <i name="EMAX">    -10.00000000</i>
   <i name="EFERMI">      0.00000000</i>
  </separator>
  <separator name="writing" >
   <i type="int" name="NWRITE">     2</i>
   <i type="logical" name="LWAVE"> F  </i>
   <i type="logical" name="LDOWNSAMPLE"> F  </i>
   <i type="logical" name="LCHARG"> F  </i>
   <i type="logical" name="LPARD"> F  </i>
   <i type="logical" name="LVTOT"> F  </i>
   <i type="logical" name="LVHAR"> F  </i>
   <i type="logical" name="LELF"> F  </i>
   <i type="logical" name="LOPTICS"> F  </i>
   <v name="STM">      0.00000000      0.00000000      0.00000000      0.00000000      0.00000000      0.00000000      0.00000000</v>
  </separator>
  <separator name="performance" >
   <i type="int" name="NPAR">    13</i>
   <i type="int" name="NSIM">     4</i>
   <i type="int" name="NBLK">    -1</i>
   <i type="logical" name="LPLANE"> T  </i>
   <i type="logical" name="LSCALAPACK"> T  </i>
   <i type="logical" name="LSCAAWARE"> F  </i>
   <i type="logical" name="LSCALU"> F  </i>
   <i type="logical" name="LASYNC"> F  </i>
   <i type="logical" name="LORBITALREAL"> F  </i>
  </separator>
  <separator name="miscellaneous" >
   <i type="int" name="IDIOT">     3</i>
   <i type="int" name="ISPECIAL">     0</i>
   <i type="logical" name="LMUSIC"> F  </i>
   <v name="POMASS">     12.01100000     51.99600000      1.00000000     95.94000000     32.06600000</v>
   <v name="DARWINR">      0.00000000      0.00000000      0.00000000      0.00000000      0.00000000</v>
   <v name="DARWINV">      1.00000000      1.00000000      1.00000000      1.00000000      1.00000000</v>
   <i type="logical" name="LCORR"> T  </i>
  </separator>
  <i type="logical" name="GGA_COMPAT"> T  </i>
  <i type="logical" name="LBERRY"> F  </i>
  <i type="int" name="ICORELEVEL">     0</i>
  <i type="logical" name="LDAU"> F  </i>
  <i type="int" name="I_CONSTRAINED_M">     0</i>
  <separator name="electronic exchange-correlation" >
   <i type="string" name="GGA">--</i>
   <i type="int" name="VOSKOWN">     0</i>
   <i type="logical" name="LHFCALC"> F  </i>
   <i type="string" name="PRECFOCK"></i>
   <i type="logical" name="LSYMGRAD"> F  </i>
   <i type="logical" name="LHFONE"> F  </i>
   <i type="logical" name="LRHFCALC"> F  </i>
   <i type="logical" name="LTHOMAS"> F  </i>
   <i type="logical" name="LMODELHF"> F  </i>
   <i name="ENCUT4O">     -1.00000000</i>
   <i type="int" name="EXXOEP">     0</i>
   <i type="int" name="FOURORBIT">     0</i>
   <i name="AEXX">      0.00000000</i>
   <i name="HFALPHA">      0.00000000</i>
   <i name="MCALPHA">      0.00000000</i>
   <i name="ALDAX">      1.00000000</i>
   <i name="AGGAX">      1.00000000</i>
   <i name="ALDAC">      1.00000000</i>
   <i name="AGGAC">      1.00000000</i>
   <i type="int" name="NKREDX">     1</i>
   <i type="int" name="NKREDY">     1</i>
   <i type="int" name="NKREDZ">     1</i>
   <i type="logical" name="SHIFTRED"> F  </i>
   <i type="logical" name="ODDONLY"> F  </i>
   <i type="logical" name="EVENONLY"> F  </i>
   <i type="int" name="LMAXFOCK">     0</i>
   <i type="int" name="NMAXFOCKAE">     0</i>
   <i type="logical" name="LFOCKAEDFT"> F  </i>
   <i name="HFSCREEN">      0.00000000</i>
   <i name="HFSCREENC">      0.00000000</i>
   <i type="int" name="NBANDSGWLOW">     0</i>
  </separator>
  <separator name="vdW DFT" >
   <i type="logical" name="LUSE_VDW"> F  </i>
   <i name="Zab_VDW">     -0.84910000</i>
   <i name="PARAM1">      0.12340000</i>
   <i name="PARAM2">      1.00000000</i>
   <i name="PARAM3">      0.00000000</i>
  </separator>
  <separator name="model GW" >
   <i type="int" name="MODEL_GW">     0</i>
   <i name="MODEL_EPS0">     24.87464347</i>
   <i name="MODEL_ALPHA">      1.00000000</i>
  </separator>
  <separator name="linear response parameters" >
   <i type="logical" name="LEPSILON"> F  </i>
   <i type="logical" name="LRPA"> F  </i>
   <i type="logical" name="LNABLA"> F  </i>
   <i type="logical" name="LVEL"> F  </i>
   <i type="int" name="KINTER">     0</i>
   <i name="CSHIFT">      0.10000000</i>
   <i name="OMEGAMAX">     -1.00000000</i>
   <i name="DEG_THRESHOLD">      0.00200000</i>
   <i name="RTIME">     -0.10000000</i>
   <i name="WPLASMAI">      0.00000000</i>
   <v name="DFIELD">      0.00000000      0.00000000      0.00000000</v>
   <v name="WPLASMA">      0.00000000      0.00000000      0.00000000      0.00000000      0.00000000      0.00000000      0.00000000      0.00000000      0.00000000</v>
  </separator>
  <separator name="orbital magnetization" >
   <i type="logical" name="NUCIND"> F  </i>
   <v name="MAGPOS">      0.00000000      0.00000000      0.00000000</v>
   <i type="logical" name="LNICSALL"> T  </i>
   <i type="logical" name="ORBITALMAG"> F  </i>
   <i type="logical" name="LMAGBLOCH"> F  </i>
   <i type="logical" name="LCHIMAG"> F  </i>
   <i type="logical" name="LGAUGE"> T  </i>
   <i type="int" name="MAGATOM">     0</i>
   <v name="MAGDIPOL">      0.00000000      0.00000000      0.00000000</v>
   <v name="AVECCONST">      0.00000000      0.00000000      0.00000000</v>
  </separator>
  <separator name="response functions" >
   <i type="logical" name="LADDER"> F  </i>
   <i type="logical" name="LRPAFORCE"> F  </i>
   <i type="logical" name="LFXC"> F  </i>
   <i type="logical" name="LHARTREE"> T  </i>
   <i type="int" name="IBSE">     0</i>
   <v type="int" name="KPOINT">    -1     0     0     0</v>
   <i type="logical" name="LTCTE"> F  </i>
   <i type="logical" name="LTETE"> F  </i>
   <i type="logical" name="LTRIPLET"> F  </i>
   <i type="logical" name="LFXCEPS"> F  </i>
   <i type="logical" name="LFXHEG"> F  </i>
   <i type="int" name="NATURALO">     2</i>
   <i type="logical" name="L2ORDER"> F  </i>
   <i type="logical" name="LMP2LT"> F  </i>
   <i type="logical" name="LUSEW"> F  </i>
   <i name="ENCUTGW">     -2.00000000</i>
   <i name="ENCUTGWSOFT">     -2.00000000</i>
   <i name="ENCUTLF">     -1.00000000</i>
   <i type="int" name="LMAXMP2">    -1</i>
   <i name="SCISSOR">      0.00000000</i>
   <i type="int" name="NOMEGA">     0</i>
   <i type="int" name="NOMEGAR">     0</i>
   <i type="int" name="NBANDSGW">    -1</i>
   <i type="int" name="NBANDSO">    -1</i>
   <i type="int" name="NBANDSV">    -1</i>
   <i type="int" name="NELM">   200</i>
   <i type="int" name="NELMHF">     1</i>
   <i type="int" name="DIM">     3</i>
   <i type="int" name="ANTIRES">     0</i>
   <i name="OMEGAMAX">    -30.00000000</i>
   <i name="OMEGAMIN">    -30.00000000</i>
   <i name="OMEGATL">   -200.00000000</i>
   <i type="int" name="OMEGAGRID">   140</i>
   <i name="CSHIFT">     -0.10000000</i>
   <i type="logical" name="SELFENERGY"> F  </i>
   <i type="logical" name="LSPECTRAL"> F  </i>
   <i type="logical" name="LSPECTRALGW"> F  </i>
   <i type="logical" name="LSINGLES"> F  </i>
   <i type="logical" name="LFERMIGW"> F  </i>
   <i type="logical" name="ODDONLYGW"> F  </i>
   <i type="logical" name="EVENONLYGW"> F  </i>
   <i type="int" name="NKREDLFX">     1</i>
   <i type="int" name="NKREDLFY">     1</i>
   <i type="int" name="NKREDLFZ">     1</i>
   <i type="int" name="MAXMEM">  2800</i>
   <i type="int" name="TELESCOPE">     0</i>
   <i type="int" name="TAUPAR">     1</i>
   <i type="int" name="OMEGAPAR">    -1</i>
   <i name="LAMBDA">      1.00000000</i>
  </separator>
  <separator name="External order field" >
   <i name="OFIELD_KAPPA">      0.00000000</i>
   <v name="OFIELD_K">      0.00000000      0.00000000      0.00000000</v>
   <i name="OFIELD_Q6_NEAR">      0.00000000</i>
   <i name="OFIELD_Q6_FAR">      0.00000000</i>
   <i name="OFIELD_A">      0.00000000</i>
  </separator>
 </parameters>
 <atominfo>
  <atoms>     171 </atoms>
  <types>       5 </types>
  <array name="atoms" >
   <dimension dim="1">ion</dimension>
   <field type="string">element</field>
   <field type="int">atomtype</field>
   <set>
    <rc><c>C </c><c>   1</c></rc>
    <rc><c>C </c><c>   1</c></rc>
    <rc><c>C </c><c>   1</c></rc>
    <rc><c>C </c><c>   1</c></rc>
    <rc><c>C </c><c>   1</c></rc>
    <rc><c>C </c><c>   1</c></rc>
    <rc><c>C </c><c>   1</c></rc>
    <rc><c>C </c><c>   1</c></rc>
    <rc><c>C </c><c>   1</c></rc>
    <rc><c>C </c><c>   1</c></rc>
    <rc><c>Cr</c><c>   2</c></rc>
    <rc><c>H </c><c>   3</c></rc>
    <rc><c>H </c><c>   3</c></rc>
    <rc><c>H </c><c>   3</c></rc>
    <rc><c>H </c><c>   3</c></rc>
    <rc><c>H </c><c>   3</c></rc>
    <rc><c>H </c><c>   3</c></rc>
    <rc><c>H </c><c>   3</c></rc>
    <rc><c>H </c><c>   3</c></rc>
    <rc><c>H </c><c>   3</c></rc>
    <rc><c>H </c><c>   3</c></rc>
    <rc><c>Mo</c><c>   4</c></rc>
    <rc><c>Mo</c><c>   4</c></rc>
    <rc><c>Mo</c><c>   4</c></rc>
    <rc><c>Mo</c><c>   4</c></rc>
    <rc><c>Mo</c><c>   4</c></rc>
    <rc><c>Mo</c><c>   4</c></rc>
    <rc><c>Mo</c><c>   4</c></rc>
    <rc><c>Mo</c><c>   4</c></rc>
    <rc><c>Mo</c><c>   4</c></rc>
    <rc><c>Mo</c><c>   4</c></rc>
    <rc><c>Mo</c><c>   4</c></rc>
    <rc><c>Mo</c><c>   4</c></rc>
    <rc><c>Mo</c><c>   4</c></rc>
    <rc><c>Mo</c><c>   4</c></rc>
    <rc><c>Mo</c><c>   4</c></rc>
    <rc><c>Mo</c><c>   4</c></rc>
    <rc><c>Mo</c><c>   4</c></rc>
    <rc><c>Mo</c><c>   4</c></rc>
    <rc><c>Mo</c><c>   4</c></rc>
    <rc><c>Mo</c><c>   4</c></rc>
    <rc><c>Mo</c><c>   4</c></rc>
    <rc><c>Mo</c><c>   4</c></rc>
    <rc><c>Mo</c><c>   4</c></rc>
    <rc><c>Mo</c><c>   4</c></rc>
    <rc><c>Mo</c><c>   4</c></rc>
    <rc><c>Mo</c><c>   4</c></rc>
    <rc><c>Mo</c><c>   4</c></rc>
    <rc><c>Mo</c><c>   4</c></rc>
    <rc><c>Mo</c><c>   4</c></rc>
    <rc><c>Mo</c><c>   4</c></rc>
    <rc><c>Mo</c><c>   4</c></rc>
    <rc><c>Mo</c><c>   4</c></rc>
    <rc><c>Mo</c><c>   4</c></rc>
    <rc><c>Mo</c><c>   4</c></rc>
    <rc><c>Mo</c><c>   4</c></rc>
    <rc><c>Mo</c><c>   4</c></rc>
    <rc><c>Mo</c><c>   4</c></rc>
    <rc><c>Mo</c><c>   4</c></rc>
    <rc><c>Mo</c><c>   4</c></rc>
    <rc><c>Mo</c><c>   4</c></rc>
    <rc><c>Mo</c><c>   4</c></rc>
    <rc><c>Mo</c><c>   4</c></rc>
    <rc><c>Mo</c><c>   4</c></rc>
    <rc><c>Mo</c><c>   4</c></rc>
    <rc><c>Mo</c><c>   4</c></rc>
    <rc><c>Mo</c><c>   4</c></rc>
    <rc><c>Mo</c><c>   4</c></rc>
    <rc><c>Mo</c><c>   4</c></rc>
    <rc><c>Mo</c><c>   4</c></rc>
    <rc><c>Mo</c><c>   4</c></rc>
    <rc><c>S </c><c>   5</c></rc>
    <rc><c>S </c><c>   5</c></rc>
    <rc><c>S </c><c>   5</c></rc>
    <rc><c>S </c><c>   5</c></rc>
    <rc><c>S </c><c>   5</c></rc>
    <rc><c>S </c><c>   5</c></rc>
    <rc><c>S </c><c>   5</c></rc>
    <rc><c>S </c><c>   5</c></rc>
    <rc><c>S </c><c>   5</c></rc>
    <rc><c>S </c><c>   5</c></rc>
    <rc><c>S </c><c>   5</c></rc>
    <rc><c>S </c><c>   5</c></rc>
    <rc><c>S </c><c>   5</c></rc>
    <rc><c>S </c><c>   5</c></rc>
    <rc><c>S </c><c>   5</c></rc>
    <rc><c>S </c><c>   5</c></rc>
    <rc><c>S </c><c>   5</c></rc>
    <rc><c>S </c><c>   5</c></rc>
    <rc><c>S </c><c>   5</c></rc>
    <rc><c>S </c><c>   5</c></rc>
    <rc><c>S </c><c>   5</c></rc>
    <rc><c>S </c><c>   5</c></rc>
    <rc><c>S </c><c>   5</c></rc>
    <rc><c>S </c><c>   5</c></rc>
    <rc><c>S </c><c>   5</c></rc>
    <rc><c>S </c><c>   5</c></rc>
    <rc><c>S </c><c>   5</c></rc>
    <rc><c>S </c><c>   5</c></rc>
    <rc><c>S </c><c>   5</c></rc>
    <rc><c>S </c><c>   5</c></rc>
    <rc><c>S </c><c>   5</c></rc>
    <rc><c>S </c><c>   5</c></rc>
    <rc><c>S </c><c>   5</c></rc>
    <rc><c>S </c><c>   5</c></rc>
    <rc><c>S </c><c>   5</c></rc>
    <rc><c>S </c><c>   5</c></rc>
    <rc><c>S </c><c>   5</c></rc>
    <rc><c>S </c><c>   5</c></rc>
    <rc><c>S </c><c>   5</c></rc>
    <rc><c>S </c><c>   5</c></rc>
    <rc><c>S </c><c>   5</c></rc>
    <rc><c>S </c><c>   5</c></rc>
    <rc><c>S </c><c>   5</c></rc>
    <rc><c>S </c><c>   5</c></rc>
    <rc><c>S </c><c>   5</c></rc>
    <rc><c>S </c><c>   5</c></rc>
    <rc><c>S </c><c>   5</c></rc>
    <rc><c>S </c><c>   5</c></rc>
    <rc><c>S </c><c>   5</c></rc>
    <rc><c>S </c><c>   5</c></rc>
    <rc><c>S </c><c>   5</c></rc>
    <rc><c>S </c><c>   5</c></rc>
    <rc><c>S </c><c>   5</c></rc>
    <rc><c>S </c><c>   5</c></rc>
    <rc><c>S </c><c>   5</c></rc>
    <rc><c>S </c><c>   5</c></rc>
    <rc><c>S </c><c>   5</c></rc>
    <rc><c>S </c><c>   5</c></rc>
    <rc><c>S </c><c>   5</c></rc>
    <rc><c>S </c><c>   5</c></rc>
    <rc><c>S </c><c>   5</c></rc>
    <rc><c>S </c><c>   5</c></rc>
    <rc><c>S </c><c>   5</c></rc>
    <rc><c>S </c><c>   5</c></rc>
    <rc><c>S </c><c>   5</c></rc>
    <rc><c>S </c><c>   5</c></rc>
    <rc><c>S </c><c>   5</c></rc>
    <rc><c>S </c><c>   5</c></rc>
    <rc><c>S </c><c>   5</c></rc>
    <rc><c>S </c><c>   5</c></rc>
    <rc><c>S </c><c>   5</c></rc>
    <rc><c>S </c><c>   5</c></rc>
    <rc><c>S </c><c>   5</c></rc>
    <rc><c>S </c><c>   5</c></rc>
    <rc><c>S </c><c>   5</c></rc>
    <rc><c>S </c><c>   5</c></rc>
    <rc><c>S </c><c>   5</c></rc>
    <rc><c>S </c><c>   5</c></rc>
    <rc><c>S </c><c>   5</c></rc>
    <rc><c>S </c><c>   5</c></rc>
    <rc><c>S </c><c>   5</c></rc>
    <rc><c>S </c><c>   5</c></rc>
    <rc><c>S </c><c>   5</c></rc>
    <rc><c>S </c><c>   5</c></rc>
    <rc><c>S </c><c>   5</c></rc>
    <rc><c>S </c><c>   5</c></rc>
    <rc><c>S </c><c>   5</c></rc>
    <rc><c>S </c><c>   5</c></rc>
    <rc><c>S </c><c>   5</c></rc>
    <rc><c>S </c><c>   5</c></rc>
    <rc><c>S </c><c>   5</c></rc>
    <rc><c>S </c><c>   5</c></rc>
    <rc><c>S </c><c>   5</c></rc>
    <rc><c>S </c><c>   5</c></rc>
    <rc><c>S </c><c>   5</c></rc>
    <rc><c>S </c><c>   5</c></rc>
    <rc><c>S </c><c>   5</c></rc>
    <rc><c>S </c><c>   5</c></rc>
    <rc><c>S </c><c>   5</c></rc>
    <rc><c>S </c><c>   5</c></rc>
   </set>
  </array>
  <array name="atomtypes" >
   <dimension dim="1">type</dimension>
   <field type="int">atomspertype</field>
   <field type="string">element</field>
   <field>mass</field>
   <field>valence</field>
   <field type="string">pseudopotential</field>
   <set>
    <rc><c>  10</c><c>C </c><c>     12.01100000</c><c>      4.00000000</c><c>  PAW_PBE C 08Apr2002                   </c></rc>
    <rc><c>   1</c><c>Cr</c><c>     51.99600000</c><c>      6.00000000</c><c>  PAW_PBE Cr 06Sep2000                  </c></rc>
    <rc><c>  10</c><c>H </c><c>      1.00000000</c><c>      1.00000000</c><c>  PAW_PBE H 15Jun2001                   </c></rc>
    <rc><c>  50</c><c>Mo</c><c>     95.94000000</c><c>      6.00000000</c><c>  PAW_PBE Mo 08Apr2002                  </c></rc>
    <rc><c> 100</c><c>S </c><c>     32.06600000</c><c>      6.00000000</c><c>  PAW_PBE S 06Sep2000                   </c></rc>
   </set>
  </array>
 </atominfo>
 <structure name="initialpos" >
  <crystal>
   <varray name="basis" >
    <v>      15.90000000       0.00000000       0.00000000 </v>
    <v>      -7.95000000      13.76980392       0.00000000 </v>
    <v>       0.00000000       0.00000000      32.38000000 </v>
   </varray>
   <i name="volume">   7089.27338987 </i>
   <varray name="rec_basis" >
    <v>       0.06289308       0.03631134       0.00000000 </v>
    <v>       0.00000000       0.07262268       0.00000000 </v>
    <v>       0.00000000       0.00000000       0.03088326 </v>
   </varray>
  </crystal>
  <varray name="positions" >
   <v>       0.43053569       0.29287337       0.47292909 </v>
   <v>       0.34882312       0.26864138       0.44732493 </v>
   <v>       0.44347617       0.36877022       0.50030748 </v>
   <v>       0.36848037       0.39201509       0.49175009 </v>
   <v>       0.30969663       0.32942030       0.45858917 </v>
   <v>       0.51826173       0.45078941       0.37941792 </v>
   <v>       0.48240077       0.55886272       0.41255689 </v>
   <v>       0.44839927       0.48348254       0.38184723 </v>
   <v>       0.57189585       0.57263932       0.42864070 </v>
   <v>       0.59413965       0.50647986       0.40855927 </v>
   <v>       0.45348427       0.42225473       0.43847137 </v>
   <v>       0.24623035       0.32754268       0.44501301 </v>
   <v>       0.38341728       0.45785030       0.36307729 </v>
   <v>       0.51532689       0.39564344       0.35864300 </v>
   <v>       0.44563156       0.59763594       0.42232366 </v>
   <v>       0.61335463       0.62164861       0.45366413 </v>
   <v>       0.32275858       0.21554751       0.42245605 </v>
   <v>       0.47793805       0.26202838       0.47058174 </v>
   <v>       0.50053773       0.40328384       0.52334803 </v>
   <v>       0.35651875       0.44477307       0.50817508 </v>
   <v>       0.65662020       0.49798729       0.41509306 </v>
   <v>       0.60000000       0.60000000       0.65735022 </v>
   <v>       0.20000000       0.80000000       0.21911674 </v>
   <v>       0.20000000       0.60000000       0.65735022 </v>
   <v>       0.60000000       0.80000000       0.21911674 </v>
   <v>       0.20000000       0.60000000       0.21911674 </v>
   <v>       0.60000000       0.80000000       0.65735022 </v>
   <v>       0.20000000       0.40000000       0.21911674 </v>
   <v>       0.80000000       0.00000000       0.21911674 </v>
   <v>       0.20000000       0.20000000       0.65735022 </v>
   <v>       0.80000000       0.00000000       0.65735022 </v>
   <v>       0.20000000       0.20000000       0.21911674 </v>
   <v>       0.20000000       0.80000000       0.65735022 </v>
   <v>       0.20000000       0.40000000       0.65735022 </v>
   <v>       0.60000000       0.60000000       0.21911674 </v>
   <v>       0.40000000       0.60000000       0.21911674 </v>
   <v>       0.40000000       0.00000000       0.65735022 </v>
   <v>       0.60000000       0.40000000       0.65735022 </v>
   <v>       0.40000000       0.20000000       0.21911674 </v>
   <v>       0.60000000       0.40000000       0.21911674 </v>
   <v>       0.40000000       0.20000000       0.65735022 </v>
   <v>       0.40000000       0.40000000       0.21911674 </v>
   <v>       0.60000000       0.20000000       0.65735022 </v>
   <v>       0.40000000       0.40000000       0.65735022 </v>
   <v>       0.60000000       0.20000000       0.21911674 </v>
   <v>       0.40000000       0.80000000       0.65735022 </v>
   <v>       0.40000000       0.60000000       0.65735022 </v>
   <v>       0.60000000       0.00000000       0.65735022 </v>
   <v>       0.40000000       0.80000000       0.21911674 </v>
   <v>       0.60000000       0.00000000       0.21911674 </v>
   <v>       0.40000000       0.00000000       0.21911674 </v>
   <v>       0.80000000       0.20000000       0.21911674 </v>
   <v>       0.20000000       0.00000000       0.65735022 </v>
   <v>       0.20000000       0.00000000       0.21911674 </v>
   <v>       0.00000000       0.00000000       0.21911674 </v>
   <v>       0.80000000       0.80000000       0.65735022 </v>
   <v>       0.00000000       0.00000000       0.65735022 </v>
   <v>       0.80000000       0.80000000       0.21911674 </v>
   <v>       0.00000000       0.20000000       0.21911674 </v>
   <v>       0.00000000       0.20000000       0.65735022 </v>
   <v>       0.80000000       0.60000000       0.65735022 </v>
   <v>       0.00000000       0.40000000       0.21911674 </v>
   <v>       0.00000000       0.40000000       0.65735022 </v>
   <v>       0.00000000       0.60000000       0.21911674 </v>
   <v>       0.80000000       0.40000000       0.65735022 </v>
   <v>       0.00000000       0.60000000       0.65735022 </v>
   <v>       0.80000000       0.60000000       0.21911674 </v>
   <v>       0.80000000       0.40000000       0.21911674 </v>
   <v>       0.00000000       0.80000000       0.65735022 </v>
   <v>       0.00000000       0.80000000       0.21911674 </v>
   <v>       0.80000000       0.20000000       0.65735022 </v>
   <v>       0.93333333       0.06666667       0.16985794 </v>
   <v>       0.73333333       0.26666667       0.60809141 </v>
   <v>       0.73333333       0.26666667       0.70660902 </v>
   <v>       0.93333333       0.66666667       0.70660902 </v>
   <v>       0.93333333       0.66666667       0.60809141 </v>
   <v>       0.73333333       0.26666667       0.16985794 </v>
   <v>       0.73333333       0.26666667       0.26837554 </v>
   <v>       0.93333333       0.46666667       0.26837554 </v>
   <v>       0.73333333       0.06666667       0.60809141 </v>
   <v>       0.73333333       0.06666667       0.70660902 </v>
   <v>       0.93333333       0.06666667       0.70660902 </v>
   <v>       0.93333333       0.86666667       0.16985794 </v>
   <v>       0.73333333       0.06666667       0.16985794 </v>
   <v>       0.93333333       0.06666667       0.60809141 </v>
   <v>       0.73333333       0.06666667       0.26837554 </v>
   <v>       0.93333333       0.26666667       0.16985794 </v>
   <v>       0.93333333       0.26666667       0.70660902 </v>
   <v>       0.93333333       0.86666667       0.26837554 </v>
   <v>       0.73333333       0.46666667       0.26837554 </v>
   <v>       0.73333333       0.46666667       0.16985794 </v>
   <v>       0.73333333       0.86666667       0.16985794 </v>
   <v>       0.73333333       0.86666667       0.70660902 </v>
   <v>       0.73333333       0.86666667       0.26837554 </v>
   <v>       0.93333333       0.46666667       0.16985794 </v>
   <v>       0.73333333       0.86666667       0.60809141 </v>
   <v>       0.73333333       0.66666667       0.60809141 </v>
   <v>       0.73333333       0.66666667       0.70660902 </v>
   <v>       0.93333333       0.46666667       0.70660902 </v>
   <v>       0.73333333       0.66666667       0.16985794 </v>
   <v>       0.93333333       0.46666667       0.60809141 </v>
   <v>       0.73333333       0.66666667       0.26837554 </v>
   <v>       0.93333333       0.26666667       0.60809141 </v>
   <v>       0.93333333       0.26666667       0.26837554 </v>
   <v>       0.73333333       0.46666667       0.60809141 </v>
   <v>       0.73333333       0.46666667       0.70660902 </v>
   <v>       0.93333333       0.66666667       0.26837554 </v>
   <v>       0.93333333       0.06666667       0.26837554 </v>
   <v>       0.93333333       0.66666667       0.16985794 </v>
   <v>       0.53333333       0.86666667       0.60809141 </v>
   <v>       0.53333333       0.06666667       0.70660902 </v>
   <v>       0.53333333       0.86666667       0.16985794 </v>
   <v>       0.33333333       0.26666667       0.16985794 </v>
   <v>       0.33333333       0.26666667       0.26837554 </v>
   <v>       0.33333333       0.06666667       0.60809141 </v>
   <v>       0.33333333       0.06666667       0.70660902 </v>
   <v>       0.33333333       0.06666667       0.16985794 </v>
   <v>       0.33333333       0.06666667       0.26837554 </v>
   <v>       0.13333333       0.86666667       0.60809141 </v>
   <v>       0.13333333       0.86666667       0.70660902 </v>
   <v>       0.13333333       0.86666667       0.16985794 </v>
   <v>       0.13333333       0.86666667       0.26837554 </v>
   <v>       0.13333333       0.66666667       0.60809141 </v>
   <v>       0.13333333       0.66666667       0.70660902 </v>
   <v>       0.33333333       0.26666667       0.70660902 </v>
   <v>       0.13333333       0.66666667       0.16985794 </v>
   <v>       0.13333333       0.46666667       0.60809141 </v>
   <v>       0.13333333       0.46666667       0.70660902 </v>
   <v>       0.13333333       0.46666667       0.16985794 </v>
   <v>       0.13333333       0.46666667       0.26837554 </v>
   <v>       0.13333333       0.26666667       0.60809141 </v>
   <v>       0.13333333       0.26666667       0.70660902 </v>
   <v>       0.13333333       0.26666667       0.16985794 </v>
   <v>       0.13333333       0.26666667       0.26837554 </v>
   <v>       0.13333333       0.06666667       0.60809141 </v>
   <v>       0.13333333       0.06666667       0.70660902 </v>
   <v>       0.13333333       0.06666667       0.16985794 </v>
   <v>       0.13333333       0.06666667       0.26837554 </v>
   <v>       0.13333333       0.66666667       0.26837554 </v>
   <v>       0.33333333       0.26666667       0.60809141 </v>
   <v>       0.33333333       0.46666667       0.26837554 </v>
   <v>       0.33333333       0.46666667       0.16985794 </v>
   <v>       0.53333333       0.86666667       0.26837554 </v>
   <v>       0.53333333       0.66666667       0.60809141 </v>
   <v>       0.53333333       0.66666667       0.70660902 </v>
   <v>       0.53333333       0.66666667       0.16985794 </v>
   <v>       0.53333333       0.66666667       0.26837554 </v>
   <v>       0.53333333       0.46666667       0.60809141 </v>
   <v>       0.53333333       0.46666667       0.70660902 </v>
   <v>       0.53333333       0.46666667       0.16985794 </v>
   <v>       0.53333333       0.46666667       0.26837554 </v>
   <v>       0.53333333       0.26666667       0.60809141 </v>
   <v>       0.53333333       0.26666667       0.70660902 </v>
   <v>       0.53333333       0.26666667       0.16985794 </v>
   <v>       0.53333333       0.26666667       0.26837554 </v>
   <v>       0.53333333       0.06666667       0.60809141 </v>
   <v>       0.93333333       0.86666667       0.70660902 </v>
   <v>       0.53333333       0.06666667       0.16985794 </v>
   <v>       0.53333333       0.06666667       0.26837554 </v>
   <v>       0.33333333       0.86666667       0.60809141 </v>
   <v>       0.33333333       0.86666667       0.70660902 </v>
   <v>       0.33333333       0.86666667       0.16985794 </v>
   <v>       0.33333333       0.86666667       0.26837554 </v>
   <v>       0.33333333       0.66666667       0.60809141 </v>
   <v>       0.33333333       0.66666667       0.70660902 </v>
   <v>       0.33333333       0.66666667       0.16985794 </v>
   <v>       0.33333333       0.66666667       0.26837554 </v>
   <v>       0.33333333       0.46666667       0.60809141 </v>
   <v>       0.33333333       0.46666667       0.70660902 </v>
   <v>       0.53333333       0.86666667       0.70660902 </v>
   <v>       0.93333333       0.86666667       0.60809141 </v>
  </varray>
  <varray name="selective"  type="logical" >
   <v type="logical" >  T  T  F </v>
   <v type="logical" >  T  T  F </v>
   <v type="logical" >  T  T  F </v>
   <v type="logical" >  T  T  F </v>
   <v type="logical" >  T  T  F </v>
   <v type="logical" >  T  T  F </v>
   <v type="logical" >  T  T  F </v>
   <v type="logical" >  T  T  F </v>
   <v type="logical" >  T  T  F </v>
   <v type="logical" >  T  T  F </v>
   <v type="logical" >  T  T  F </v>
   <v type="logical" >  T  T  F </v>
   <v type="logical" >  T  T  F </v>
   <v type="logical" >  T  T  F </v>
   <v type="logical" >  T  T  F </v>
   <v type="logical" >  T  T  F </v>
   <v type="logical" >  T  T  F </v>
   <v type="logical" >  T  T  F </v>
   <v type="logical" >  T  T  F </v>
   <v type="logical" >  T  T  F </v>
   <v type="logical" >  T  T  F </v>
   <v type="logical" >  T  T  F </v>
   <v type="logical" >  F  F  F </v>
   <v type="logical" >  T  T  F </v>
   <v type="logical" >  F  F  F </v>
   <v type="logical" >  F  F  F </v>
   <v type="logical" >  T  T  F </v>
   <v type="logical" >  F  F  F </v>
   <v type="logical" >  F  F  F </v>
   <v type="logical" >  T  T  F </v>
   <v type="logical" >  T  T  F </v>
   <v type="logical" >  F  F  F </v>
   <v type="logical" >  T  T  F </v>
   <v type="logical" >  T  T  F </v>
   <v type="logical" >  F  F  F </v>
   <v type="logical" >  F  F  F </v>
   <v type="logical" >  T  T  F </v>
   <v type="logical" >  T  T  F </v>
   <v type="logical" >  F  F  F </v>
   <v type="logical" >  F  F  F </v>
   <v type="logical" >  T  T  F </v>
   <v type="logical" >  F  F  F </v>
   <v type="logical" >  T  T  F </v>
   <v type="logical" >  T  T  F </v>
   <v type="logical" >  F  F  F </v>
   <v type="logical" >  T  T  F </v>
   <v type="logical" >  T  T  F </v>
   <v type="logical" >  T  T  F </v>
   <v type="logical" >  F  F  F </v>
   <v type="logical" >  F  F  F </v>
   <v type="logical" >  F  F  F </v>
   <v type="logical" >  F  F  F </v>
   <v type="logical" >  T  T  F </v>
   <v type="logical" >  F  F  F </v>
   <v type="logical" >  F  F  F </v>
   <v type="logical" >  T  T  F </v>
   <v type="logical" >  T  T  F </v>
   <v type="logical" >  F  F  F </v>
   <v type="logical" >  F  F  F </v>
   <v type="logical" >  T  T  F </v>
   <v type="logical" >  T  T  F </v>
   <v type="logical" >  F  F  F </v>
   <v type="logical" >  T  T  F </v>
   <v type="logical" >  F  F  F </v>
   <v type="logical" >  T  T  F </v>
   <v type="logical" >  T  T  F </v>
   <v type="logical" >  F  F  F </v>
   <v type="logical" >  F  F  F </v>
   <v type="logical" >  T  T  F </v>
   <v type="logical" >  F  F  F </v>
   <v type="logical" >  T  T  F </v>
   <v type="logical" >  F  F  F </v>
   <v type="logical" >  T  T  F </v>
   <v type="logical" >  T  T  F </v>
   <v type="logical" >  T  T  F </v>
   <v type="logical" >  T  T  F </v>
   <v type="logical" >  F  F  F </v>
   <v type="logical" >  F  F  F </v>
   <v type="logical" >  F  F  F </v>
   <v type="logical" >  T  T  F </v>
   <v type="logical" >  T  T  F </v>
   <v type="logical" >  T  T  F </v>
   <v type="logical" >  F  F  F </v>
   <v type="logical" >  F  F  F </v>
   <v type="logical" >  T  T  F </v>
   <v type="logical" >  F  F  F </v>
   <v type="logical" >  F  F  F </v>
   <v type="logical" >  T  T  F </v>
   <v type="logical" >  F  F  F </v>
   <v type="logical" >  F  F  F </v>
   <v type="logical" >  F  F  F </v>
   <v type="logical" >  F  F  F </v>
   <v type="logical" >  T  T  F </v>
   <v type="logical" >  F  F  F </v>
   <v type="logical" >  F  F  F </v>
   <v type="logical" >  T  T  F </v>
   <v type="logical" >  T  T  F </v>
   <v type="logical" >  T  T  F </v>
   <v type="logical" >  T  T  F </v>
   <v type="logical" >  F  F  F </v>
   <v type="logical" >  T  T  F </v>
   <v type="logical" >  F  F  F </v>
   <v type="logical" >  T  T  F </v>
   <v type="logical" >  F  F  F </v>
   <v type="logical" >  T  T  F </v>
   <v type="logical" >  T  T  F </v>
   <v type="logical" >  F  F  F </v>
   <v type="logical" >  F  F  F </v>
   <v type="logical" >  F  F  F </v>
   <v type="logical" >  T  T  F </v>
   <v type="logical" >  T  T  F </v>
   <v type="logical" >  F  F  F </v>
   <v type="logical" >  F  F  F </v>
   <v type="logical" >  F  F  F </v>
   <v type="logical" >  T  T  F </v>
   <v type="logical" >  T  T  F </v>
   <v type="logical" >  F  F  F </v>
   <v type="logical" >  F  F  F </v>
   <v type="logical" >  T  T  F </v>
   <v type="logical" >  T  T  F </v>
   <v type="logical" >  F  F  F </v>
   <v type="logical" >  F  F  F </v>
   <v type="logical" >  T  T  F </v>
   <v type="logical" >  T  T  F </v>
   <v type="logical" >  T  T  F </v>
   <v type="logical" >  F  F  F </v>
   <v type="logical" >  T  T  F </v>
   <v type="logical" >  T  T  F </v>
   <v type="logical" >  F  F  F </v>
   <v type="logical" >  F  F  F </v>
   <v type="logical" >  T  T  F </v>
   <v type="logical" >  T  T  F </v>
   <v type="logical" >  F  F  F </v>
   <v type="logical" >  F  F  F </v>
   <v type="logical" >  T  T  F </v>
   <v type="logical" >  T  T  F </v>
   <v type="logical" >  F  F  F </v>
   <v type="logical" >  F  F  F </v>
   <v type="logical" >  F  F  F </v>
   <v type="logical" >  T  T  F </v>
   <v type="logical" >  F  F  F </v>
   <v type="logical" >  F  F  F </v>
   <v type="logical" >  F  F  F </v>
   <v type="logical" >  T  T  F </v>
   <v type="logical" >  T  T  F </v>
   <v type="logical" >  F  F  F </v>
   <v type="logical" >  F  F  F </v>
   <v type="logical" >  T  T  F </v>
   <v type="logical" >  T  T  F </v>
   <v type="logical" >  F  F  F </v>
   <v type="logical" >  F  F  F </v>
   <v type="logical" >  T  T  F </v>
   <v type="logical" >  T  T  F </v>
   <v type="logical" >  F  F  F </v>
   <v type="logical" >  F  F  F </v>
   <v type="logical" >  T  T  F </v>
   <v type="logical" >  T  T  F </v>
   <v type="logical" >  F  F  F </v>
   <v type="logical" >  F  F  F </v>
   <v type="logical" >  T  T  F </v>
   <v type="logical" >  T  T  F </v>
   <v type="logical" >  F  F  F </v>
   <v type="logical" >  F  F  F </v>
   <v type="logical" >  T  T  F </v>
   <v type="logical" >  T  T  F </v>
   <v type="logical" >  F  F  F </v>
   <v type="logical" >  F  F  F </v>
   <v type="logical" >  T  T  F </v>
   <v type="logical" >  T  T  F </v>
   <v type="logical" >  T  T  F </v>
   <v type="logical" >  T  T  F </v>
  </varray>
  <nose>
   <v>      -3.00000000       0.00000000       0.00010000       0.00010000 </v>
  </nose>
 </structure>
 <calculation>
  <scstep>
   <time name="dav">   10.68   10.81</time>
   <time name="total">   11.09   11.51</time>
   <energy>
    <i name="alphaZ">   1150.89500911 </i>
    <i name="ewald">  87338.78686019 </i>
    <i name="hartreedc">-125312.21495407 </i>
    <i name="XCdc">  -1684.43669538 </i>
    <i name="pawpsdc">  36411.78182824 </i>
    <i name="pawaedc"> -32520.45026120 </i>
    <i name="eentropy">     -0.25355713 </i>
    <i name="bandstr">   1846.62684356 </i>
    <i name="atom">  40430.53995508 </i>
    <i name="e_fr_energy">   7661.27502840 </i>
    <i name="e_wo_entrp">   7661.52858553 </i>
    <i name="e_0_energy">   7661.40180696 </i>
   </energy>
  </scstep>
  <scstep>
   <time name="dav">   13.54   13.65</time>
   <time name="total">   13.54   13.65</time>
   <energy>
    <i name="e_fr_energy">   -260.51539269 </i>
    <i name="e_wo_entrp">   -260.40130054 </i>
    <i name="e_0_energy">   -260.45834662 </i>
   </energy>
  </scstep>
  <scstep>
   <time name="dav">   12.37   13.05</time>
   <time name="total">   12.37   13.06</time>
   <energy>
    <i name="e_fr_energy">  -1263.03474147 </i>
    <i name="e_wo_entrp">  -1263.03474133 </i>
    <i name="e_0_energy">  -1263.03474140 </i>
   </energy>
  </scstep>
  <scstep>
   <time name="dav">   14.55   14.98</time>
   <time name="total">   14.55   14.98</time>
   <energy>
    <i name="e_fr_energy">  -1320.97501070 </i>
    <i name="e_wo_entrp">  -1320.97501070 </i>
    <i name="e_0_energy">  -1320.97501070 </i>
   </energy>
  </scstep>
  <scstep>
   <time name="dav">   14.71   15.11</time>
   <time name="total">   15.75   16.17</time>
   <energy>
    <i name="e_fr_energy">  -1323.11265219 </i>
    <i name="e_wo_entrp">  -1323.11265219 </i>
    <i name="e_0_energy">  -1323.11265219 </i>
   </energy>
  </scstep>
  <scstep>
   <time name="dav">   13.67   13.82</time>
   <time name="total">   15.20   15.99</time>
   <energy>
    <i name="e_fr_energy">  -1276.29533675 </i>
    <i name="e_wo_entrp">  -1276.16671537 </i>
    <i name="e_0_energy">  -1276.23102606 </i>
   </energy>
  </scstep>
  <scstep>
   <time name="dav">   14.85   14.96</time>
   <time name="total">   16.41   16.53</time>
   <energy>
    <i name="e_fr_energy">  -1296.22021758 </i>
    <i name="e_wo_entrp">  -1295.79040336 </i>
    <i name="e_0_energy">  -1296.00531047 </i>
   </energy>
  </scstep>
  <scstep>
   <time name="dav">   12.41   12.51</time>
   <time name="total">   13.96   16.77</time>
   <energy>
    <i name="e_fr_energy">  -1232.18880478 </i>
    <i name="e_wo_entrp">  -1231.97346658 </i>
    <i name="e_0_energy">  -1232.08113568 </i>
   </energy>
  </scstep>
  <scstep>
   <time name="dav">   14.83   14.94</time>
   <time name="total">   16.27   17.04</time>
   <energy>
    <i name="e_fr_energy">  -1239.63048018 </i>
    <i name="e_wo_entrp">  -1239.41893114 </i>
    <i name="e_0_energy">  -1239.52470566 </i>
   </energy>
  </scstep>
  <scstep>
   <time name="dav">   15.51   15.63</time>
   <time name="total">   17.05   19.50</time>
   <energy>
    <i name="e_fr_energy">  -1221.91050185 </i>
    <i name="e_wo_entrp">  -1221.84186207 </i>
    <i name="e_0_energy">  -1221.87618196 </i>
   </energy>
  </scstep>
  <scstep>
   <time name="dav">   14.50   14.62</time>
   <time name="total">   15.98   16.11</time>
   <energy>
    <i name="e_fr_energy">  -1224.79086083 </i>
    <i name="e_wo_entrp">  -1224.78085928 </i>
    <i name="e_0_energy">  -1224.78586006 </i>
   </energy>
  </scstep>
  <scstep>
   <time name="dav">   13.46   13.56</time>
   <time name="total">   14.94   16.44</time>
   <energy>
    <i name="e_fr_energy">  -1224.39951530 </i>
    <i name="e_wo_entrp">  -1224.29395357 </i>
    <i name="e_0_energy">  -1224.34673443 </i>
   </energy>
  </scstep>
  <scstep>
   <time name="dav">   13.64   13.74</time>
   <time name="total">   15.27   16.09</time>
   <energy>
    <i name="e_fr_energy">  -1223.89895437 </i>
    <i name="e_wo_entrp">  -1223.67582632 </i>
    <i name="e_0_energy">  -1223.78739034 </i>
   </energy>
  </scstep>
  <scstep>
   <time name="dav">   14.83   14.94</time>
   <time name="total">   16.27   17.53</time>
   <energy>
    <i name="e_fr_energy">  -1224.18522831 </i>
    <i name="e_wo_entrp">  -1224.08069698 </i>
    <i name="e_0_energy">  -1224.13296265 </i>
   </energy>
  </scstep>
  <scstep>
   <time name="dav">   14.94   15.06</time>
   <time name="total">   16.39   16.52</time>
   <energy>
    <i name="e_fr_energy">  -1226.31878203 </i>
    <i name="e_wo_entrp">  -1226.21148623 </i>
    <i name="e_0_energy">  -1226.26513413 </i>
   </energy>
  </scstep>
  <scstep>
   <time name="dav">   14.79   14.90</time>
   <time name="total">   16.26   17.20</time>
   <energy>
    <i name="e_fr_energy">  -1228.77659577 </i>
    <i name="e_wo_entrp">  -1228.65977767 </i>
    <i name="e_0_energy">  -1228.71818672 </i>
   </energy>
  </scstep>
  <scstep>
   <time name="dav">   14.67   14.79</time>
   <time name="total">   16.15   16.84</time>
   <energy>
    <i name="e_fr_energy">  -1227.10182217 </i>
    <i name="e_wo_entrp">  -1227.01206918 </i>
    <i name="e_0_energy">  -1227.05694568 </i>
   </energy>
  </scstep>
  <scstep>
   <time name="dav">   14.46   14.57</time>
   <time name="total">   16.24   18.39</time>
   <energy>
    <i name="e_fr_energy">  -1226.80448626 </i>
    <i name="e_wo_entrp">  -1226.73595984 </i>
    <i name="e_0_energy">  -1226.77022305 </i>
   </energy>
  </scstep>
  <scstep>
   <time name="dav">   13.47   13.58</time>
   <time name="total">   15.02   15.27</time>
   <energy>
    <i name="e_fr_energy">  -1227.17810269 </i>
    <i name="e_wo_entrp">  -1226.96038170 </i>
    <i name="e_0_energy">  -1227.06924220 </i>
   </energy>
  </scstep>
  <scstep>
   <time name="dav">   13.31   13.42</time>
   <time name="total">   14.86   15.93</time>
   <energy>
    <i name="e_fr_energy">  -1226.77354033 </i>
    <i name="e_wo_entrp">  -1226.56048783 </i>
    <i name="e_0_energy">  -1226.66701408 </i>
   </energy>
  </scstep>
  <scstep>
   <time name="dav">   14.26   14.38</time>
   <time name="total">   15.84   17.98</time>
   <energy>
    <i name="e_fr_energy">  -1226.96534146 </i>
    <i name="e_wo_entrp">  -1226.74888921 </i>
    <i name="e_0_energy">  -1226.85711533 </i>
   </energy>
  </scstep>
  <scstep>
   <time name="dav">   13.85   13.96</time>
   <time name="total">   15.76   18.08</time>
   <energy>
    <i name="e_fr_energy">  -1226.90504382 </i>
    <i name="e_wo_entrp">  -1226.74063861 </i>
    <i name="e_0_energy">  -1226.82284122 </i>
   </energy>
  </scstep>
  <scstep>
   <time name="dav">   14.35   14.46</time>
   <time name="total">   15.91   16.64</time>
   <energy>
    <i name="e_fr_energy">  -1227.09257250 </i>
    <i name="e_wo_entrp">  -1226.98189680 </i>
    <i name="e_0_energy">  -1227.03723465 </i>
   </energy>
  </scstep>
  <scstep>
   <time name="dav">   14.78   14.90</time>
   <time name="total">   16.32   16.67</time>
   <energy>
    <i name="e_fr_energy">  -1227.02598083 </i>
    <i name="e_wo_entrp">  -1226.87898755 </i>
    <i name="e_0_energy">  -1226.95248419 </i>
   </energy>
  </scstep>
  <scstep>
   <time name="dav">   13.43   13.53</time>
   <time name="total">   14.98   15.52</time>
   <energy>
    <i name="e_fr_energy">  -1226.94125558 </i>
    <i name="e_wo_entrp">  -1226.74733471 </i>
    <i name="e_0_energy">  -1226.84429514 </i>
   </energy>
  </scstep>
  <scstep>
   <time name="dav">   13.20   13.31</time>
   <time name="total">   14.77   15.59</time>
   <energy>
    <i name="e_fr_energy">  -1226.97138722 </i>
    <i name="e_wo_entrp">  -1226.85113027 </i>
    <i name="e_0_energy">  -1226.91125875 </i>
   </energy>
  </scstep>
  <scstep>
   <time name="dav">   14.29   14.41</time>
   <time name="total">   16.23   18.39</time>
   <energy>
    <i name="e_fr_energy">  -1226.74710823 </i>
    <i name="e_wo_entrp">  -1226.56604620 </i>
    <i name="e_0_energy">  -1226.65657721 </i>
   </energy>
  </scstep>
  <scstep>
   <time name="dav">   13.81   13.92</time>
   <time name="total">   15.38   16.13</time>
   <energy>
    <i name="e_fr_energy">  -1226.58769215 </i>
    <i name="e_wo_entrp">  -1226.45386596 </i>
    <i name="e_0_energy">  -1226.52077905 </i>
   </energy>
  </scstep>
  <scstep>
   <time name="dav">   13.97   14.08</time>
   <time name="total">   15.55   16.39</time>
   <energy>
    <i name="e_fr_energy">  -1226.38680210 </i>
    <i name="e_wo_entrp">  -1226.19238438 </i>
    <i name="e_0_energy">  -1226.28959324 </i>
   </energy>
  </scstep>
  <scstep>
   <time name="dav">   13.47   13.61</time>
   <time name="total">   15.03   15.51</time>
   <energy>
    <i name="e_fr_energy">  -1226.29107127 </i>
    <i name="e_wo_entrp">  -1226.19655383 </i>
    <i name="e_0_energy">  -1226.24381255 </i>
   </energy>
  </scstep>
  <scstep>
   <time name="dav">   11.70   11.82</time>
   <time name="total">   13.67   14.47</time>
   <energy>
    <i name="e_fr_energy">  -1226.26925542 </i>
    <i name="e_wo_entrp">  -1226.09355913 </i>
    <i name="e_0_energy">  -1226.18140727 </i>
   </energy>
  </scstep>
  <scstep>
   <time name="dav">   12.69   12.78</time>
   <time name="total">   14.26   14.54</time>
   <energy>
    <i name="e_fr_energy">  -1226.19744385 </i>
    <i name="e_wo_entrp">  -1226.09430762 </i>
    <i name="e_0_energy">  -1226.14587573 </i>
   </energy>
  </scstep>
  <scstep>
   <time name="dav">   12.22   12.32</time>
   <time name="total">   13.80   14.28</time>
   <energy>
    <i name="e_fr_energy">  -1226.13211590 </i>
    <i name="e_wo_entrp">  -1225.94169937 </i>
    <i name="e_0_energy">  -1226.03690763 </i>
   </energy>
  </scstep>
  <scstep>
   <time name="dav">   12.07   12.17</time>
   <time name="total">   13.65   13.76</time>
   <energy>
    <i name="e_fr_energy">  -1226.06430415 </i>
    <i name="e_wo_entrp">  -1225.95976758 </i>
    <i name="e_0_energy">  -1226.01203587 </i>
   </energy>
  </scstep>
  <scstep>
   <time name="dav">   11.93   12.03</time>
   <time name="total">   13.60   16.05</time>
   <energy>
    <i name="e_fr_energy">  -1226.00099361 </i>
    <i name="e_wo_entrp">  -1225.80363698 </i>
    <i name="e_0_energy">  -1225.90231530 </i>
   </energy>
  </scstep>
  <scstep>
   <time name="dav">   12.40   12.50</time>
   <time name="total">   13.95   15.04</time>
   <energy>
    <i name="e_fr_energy">  -1225.90060295 </i>
    <i name="e_wo_entrp">  -1225.80169412 </i>
    <i name="e_0_energy">  -1225.85114853 </i>
   </energy>
  </scstep>
  <scstep>
   <time name="dav">   12.52   12.62</time>
   <time name="total">   14.08   14.67</time>
   <energy>
    <i name="e_fr_energy">  -1225.80557215 </i>
    <i name="e_wo_entrp">  -1225.61787411 </i>
    <i name="e_0_energy">  -1225.71172313 </i>
   </energy>
  </scstep>
  <scstep>
   <time name="dav">   11.82   11.91</time>
   <time name="total">   13.70   14.34</time>
   <energy>
    <i name="e_fr_energy">  -1225.74510658 </i>
    <i name="e_wo_entrp">  -1225.63701668 </i>
    <i name="e_0_energy">  -1225.69106163 </i>
   </energy>
  </scstep>
  <scstep>
   <time name="dav">   11.96   12.06</time>
   <time name="total">   13.51   13.64</time>
   <energy>
    <i name="e_fr_energy">  -1225.65497962 </i>
    <i name="e_wo_entrp">  -1225.47088526 </i>
    <i name="e_0_energy">  -1225.56293244 </i>
   </energy>
  </scstep>
  <scstep>
   <time name="dav">   11.82   11.91</time>
   <time name="total">   13.39   14.59</time>
   <energy>
    <i name="e_fr_energy">  -1225.57514700 </i>
    <i name="e_wo_entrp">  -1225.46866633 </i>
    <i name="e_0_energy">  -1225.52190666 </i>
   </energy>
  </scstep>
  <scstep>
   <time name="dav">   11.93   12.02</time>
   <time name="total">   13.48   13.59</time>
   <energy>
    <i name="e_fr_energy">  -1225.48738428 </i>
    <i name="e_wo_entrp">  -1225.30904177 </i>
    <i name="e_0_energy">  -1225.39821302 </i>
   </energy>
  </scstep>
  <scstep>
   <time name="dav">   12.32   12.42</time>
   <time name="total">   13.88   14.30</time>
   <energy>
    <i name="e_fr_energy">  -1225.37624438 </i>
    <i name="e_wo_entrp">  -1225.27197712 </i>
    <i name="e_0_energy">  -1225.32411075 </i>
   </energy>
  </scstep>
  <scstep>
   <time name="dav">   12.49   12.59</time>
   <time name="total">   14.12   16.94</time>
   <energy>
    <i name="e_fr_energy">  -1225.24440924 </i>
    <i name="e_wo_entrp">  -1225.07945351 </i>
    <i name="e_0_energy">  -1225.16193138 </i>
   </energy>
  </scstep>
  <scstep>
   <time name="dav">   12.35   12.44</time>
   <time name="total">   13.90   14.01</time>
   <energy>
    <i name="e_fr_energy">  -1225.12934981 </i>
    <i name="e_wo_entrp">  -1225.03555920 </i>
    <i name="e_0_energy">  -1225.08245450 </i>
   </energy>
  </scstep>
  <scstep>
   <time name="dav">   14.78   14.89</time>
   <time name="total">   16.59   17.33</time>
   <energy>
    <i name="e_fr_energy">  -1224.95166012 </i>
    <i name="e_wo_entrp">  -1224.79927612 </i>
    <i name="e_0_energy">  -1224.87546812 </i>
   </energy>
  </scstep>
  <scstep>
   <time name="dav">   12.83   12.93</time>
   <time name="total">   14.41   14.97</time>
   <energy>
    <i name="e_fr_energy">  -1224.80517449 </i>
    <i name="e_wo_entrp">  -1224.72929115 </i>
    <i name="e_0_energy">  -1224.76723282 </i>
   </energy>
  </scstep>
  <scstep>
   <time name="dav">   13.22   13.33</time>
   <time name="total">   14.78   14.92</time>
   <energy>
    <i name="e_fr_energy">  -1224.60854129 </i>
    <i name="e_wo_entrp">  -1224.48311110 </i>
    <i name="e_0_energy">  -1224.54582620 </i>
   </energy>
  </scstep>
  <scstep>
   <time name="dav">   12.96   13.06</time>
   <time name="total">   14.52   14.63</time>
   <energy>
    <i name="e_fr_energy">  -1224.48735350 </i>
    <i name="e_wo_entrp">  -1224.42510555 </i>
    <i name="e_0_energy">  -1224.45622952 </i>
   </energy>
  </scstep>
  <scstep>
   <time name="dav">   13.64   13.75</time>
   <time name="total">   15.26   16.78</time>
   <energy>
    <i name="e_fr_energy">  -1224.31155860 </i>
    <i name="e_wo_entrp">  -1224.21058492 </i>
    <i name="e_0_energy">  -1224.26107176 </i>
   </energy>
  </scstep>
  <scstep>
   <time name="dav">   13.16   13.26</time>
   <time name="total">   15.11   16.19</time>
   <energy>
    <i name="e_fr_energy">  -1224.21133797 </i>
    <i name="e_wo_entrp">  -1224.15111024 </i>
    <i name="e_0_energy">  -1224.18122411 </i>
   </energy>
  </scstep>
  <scstep>
   <time name="dav">   12.84   12.94</time>
   <time name="total">   14.41   14.54</time>
   <energy>
    <i name="e_fr_energy">  -1224.16715737 </i>
    <i name="e_wo_entrp">  -1224.07230990 </i>
    <i name="e_0_energy">  -1224.11973364 </i>
   </energy>
  </scstep>
  <scstep>
   <time name="dav">   12.43   12.53</time>
   <time name="total">   14.00   14.11</time>
   <energy>
    <i name="e_fr_energy">  -1224.04994328 </i>
    <i name="e_wo_entrp">  -1223.97711379 </i>
    <i name="e_0_energy">  -1224.01352853 </i>
   </energy>
  </scstep>
  <scstep>
   <time name="dav">   12.65   12.74</time>
   <time name="total">   14.60   17.03</time>
   <energy>
    <i name="e_fr_energy">  -1224.01590202 </i>
    <i name="e_wo_entrp">  -1223.93557568 </i>
    <i name="e_0_energy">  -1223.97573885 </i>
   </energy>
  </scstep>
  <scstep>
   <time name="dav">   12.34   12.43</time>
   <time name="total">   13.96   14.66</time>
   <energy>
    <i name="e_fr_energy">  -1223.91336114 </i>
    <i name="e_wo_entrp">  -1223.83481296 </i>
    <i name="e_0_energy">  -1223.87408705 </i>
   </energy>
  </scstep>
  <scstep>
   <time name="dav">   12.21   12.30</time>
   <time name="total">   13.77   14.83</time>
   <energy>
    <i name="e_fr_energy">  -1223.90245678 </i>
    <i name="e_wo_entrp">  -1223.83596783 </i>
    <i name="e_0_energy">  -1223.86921231 </i>
   </energy>
  </scstep>
  <scstep>
   <time name="dav">   13.98   14.09</time>
   <time name="total">   15.54   15.66</time>
   <energy>
    <i name="e_fr_energy">  -1224.41166313 </i>
    <i name="e_wo_entrp">  -1224.07715633 </i>
    <i name="e_0_energy">  -1224.24440973 </i>
   </energy>
  </scstep>
  <scstep>
   <time name="dav">   12.26   12.36</time>
   <time name="total">   14.17   16.58</time>
   <energy>
    <i name="e_fr_energy">  -1224.00314061 </i>
    <i name="e_wo_entrp">  -1223.67967102 </i>
    <i name="e_0_energy">  -1223.84140582 </i>
   </energy>
  </scstep>
  <scstep>
   <time name="dav">   12.60   12.70</time>
   <time name="total">   14.38   15.18</time>
   <energy>
    <i name="e_fr_energy">  -1223.93129850 </i>
    <i name="e_wo_entrp">  -1223.59474373 </i>
    <i name="e_0_energy">  -1223.76302112 </i>
   </energy>
  </scstep>
  <scstep>
   <time name="dav">   11.07   11.19</time>
   <time name="total">   12.81   14.15</time>
   <energy>
    <i name="e_fr_energy">  -1223.95413657 </i>
    <i name="e_wo_entrp">  -1223.62259788 </i>
    <i name="e_0_energy">  -1223.78836722 </i>
   </energy>
  </scstep>
  <scstep>
   <time name="dav">   10.77   10.85</time>
   <time name="total">   12.32   12.42</time>
   <energy>
    <i name="e_fr_energy">  -1223.88903130 </i>
    <i name="e_wo_entrp">  -1223.56032079 </i>
    <i name="e_0_energy">  -1223.72467605 </i>
   </energy>
  </scstep>
  <scstep>
   <time name="dav">   13.25   13.36</time>
   <time name="total">   14.80   14.93</time>
   <energy>
    <i name="e_fr_energy">  -1223.91005732 </i>
    <i name="e_wo_entrp">  -1223.56863941 </i>
    <i name="e_0_energy">  -1223.73934836 </i>
   </energy>
  </scstep>
  <scstep>
   <time name="dav">   12.19   12.29</time>
   <time name="total">   13.75   14.04</time>
   <energy>
    <i name="e_fr_energy">  -1223.95008233 </i>
    <i name="e_wo_entrp">  -1223.60358563 </i>
    <i name="e_0_energy">  -1223.77683398 </i>
   </energy>
  </scstep>
  <scstep>
   <time name="dav">   11.88   12.04</time>
   <time name="total">   13.44   13.68</time>
   <energy>
    <i name="e_fr_energy">  -1223.91660844 </i>
    <i name="e_wo_entrp">  -1223.55474919 </i>
    <i name="e_0_energy">  -1223.73567882 </i>
   </energy>
  </scstep>
  <scstep>
   <time name="dav">   10.93   11.02</time>
   <time name="total">   12.74   13.96</time>
   <energy>
    <i name="e_fr_energy">  -1223.91580568 </i>
    <i name="e_wo_entrp">  -1223.55749066 </i>
    <i name="e_0_energy">  -1223.73664817 </i>
   </energy>
  </scstep>
  <scstep>
   <time name="dav">   11.81   11.91</time>
   <time name="total">   13.38   13.49</time>
   <energy>
    <i name="e_fr_energy">  -1223.81423785 </i>
    <i name="e_wo_entrp">  -1223.49602429 </i>
    <i name="e_0_energy">  -1223.65513107 </i>
   </energy>
  </scstep>
  <scstep>
   <time name="dav">   12.93   13.03</time>
   <time name="total">   14.49   14.61</time>
   <energy>
    <i name="e_fr_energy">  -1223.76458963 </i>
    <i name="e_wo_entrp">  -1223.49360416 </i>
    <i name="e_0_energy">  -1223.62909689 </i>
   </energy>
  </scstep>
  <scstep>
   <time name="dav">   11.39   11.48</time>
   <time name="total">   13.01   13.75</time>
   <energy>
    <i name="e_fr_energy">  -1223.77817295 </i>
    <i name="e_wo_entrp">  -1223.50948447 </i>
    <i name="e_0_energy">  -1223.64382871 </i>
   </energy>
  </scstep>
  <scstep>
   <time name="dav">   13.13   13.23</time>
   <time name="total">   14.68   14.90</time>
   <energy>
    <i name="e_fr_energy">  -1223.72780835 </i>
    <i name="e_wo_entrp">  -1223.49860670 </i>
    <i name="e_0_energy">  -1223.61320753 </i>
   </energy>
  </scstep>
  <scstep>
   <time name="dav">   11.68   11.77</time>
   <time name="total">   13.23   13.86</time>
   <energy>
    <i name="e_fr_energy">  -1223.71861857 </i>
    <i name="e_wo_entrp">  -1223.48686875 </i>
    <i name="e_0_energy">  -1223.60274366 </i>
   </energy>
  </scstep>
  <scstep>
   <time name="dav">   10.82   10.91</time>
   <time name="total">   12.38   12.48</time>
   <energy>
    <i name="e_fr_energy">  -1223.70832501 </i>
    <i name="e_wo_entrp">  -1223.48957234 </i>
    <i name="e_0_energy">  -1223.59894868 </i>
   </energy>
  </scstep>
  <scstep>
   <time name="dav">   12.35   12.45</time>
   <time name="total">   13.91   14.01</time>
   <energy>
    <i name="e_fr_energy">  -1223.70438872 </i>
    <i name="e_wo_entrp">  -1223.52076369 </i>
    <i name="e_0_energy">  -1223.61257620 </i>
   </energy>
  </scstep>
  <scstep>
   <time name="dav">   11.73   11.82</time>
   <time name="total">   13.29   15.12</time>
   <energy>
    <i name="e_fr_energy">  -1223.72862827 </i>
    <i name="e_wo_entrp">  -1223.53461420 </i>
    <i name="e_0_energy">  -1223.63162124 </i>
   </energy>
  </scstep>
  <scstep>
   <time name="dav">   11.17   11.25</time>
[...]
       <r>    -0.5941     0.0000   952.0000 </r>
       <r>    -0.5229     0.0000   952.0000 </r>
       <r>    -0.4517     0.0000   952.0000 </r>
       <r>    -0.3805     0.0000   952.0000 </r>
       <r>    -0.3093     0.0010   952.0001 </r>
       <r>    -0.2381     0.0417   952.0030 </r>
       <r>    -0.1669     0.6642   952.0503 </r>
       <r>    -0.0958     4.1001   952.3422 </r>
       <r>    -0.0246    10.0271   953.0560 </r>
       <r>     0.0466    11.2652   953.8579 </r>
       <r>     0.1178    13.1321   954.7928 </r>
       <r>     0.1890    22.8812   956.4216 </r>
       <r>     0.2602    41.1625   959.3518 </r>
       <r>     0.3314    97.7362   966.3094 </r>
       <r>     0.4026   163.8910   977.9763 </r>
       <r>     0.4737   220.5712   993.6781 </r>
       <r>     0.5449   299.0394  1014.9657 </r>
       <r>     0.6161   287.2819  1035.4165 </r>
       <r>     0.6873   182.0435  1048.3756 </r>
       <r>     0.7585    79.6556  1054.0460 </r>
       <r>     0.8297   101.0831  1061.2418 </r>
       <r>     0.9009   274.9176  1080.8123 </r>
       <r>     0.9721   385.3934  1108.2473 </r>
       <r>     1.0432   303.7010  1129.8668 </r>
       <r>     1.1144   196.7625  1143.8737 </r>
       <r>     1.1856   134.3874  1153.4404 </r>
       <r>     1.2568   119.9579  1161.9798 </r>
       <r>     1.3280    82.6726  1167.8650 </r>
       <r>     1.3992    26.3586  1169.7414 </r>
       <r>     1.4704     3.4499  1169.9870 </r>
       <r>     1.5415     0.1795  1169.9997 </r>
       <r>     1.6127     0.0036  1170.0000 </r>
       <r>     1.6839     0.0000  1170.0000 </r>
       <r>     1.7551     0.0000  1170.0000 </r>
       <r>     1.8263     0.0000  1170.0000 </r>
       <r>     1.8975     0.0000  1170.0000 </r>
       <r>     1.9687     0.0000  1170.0000 </r>
       <r>     2.0399     0.0000  1170.0000 </r>
       <r>     2.1110     0.0000  1170.0000 </r>
       <r>     2.1822     0.0000  1170.0000 </r>
       <r>     2.2534     0.0000  1170.0000 </r>
      </set>
     </set>
    </array>
   </total>
  </dos>
 </calculation>
 <structure name="finalpos" >
  <crystal>
   <varray name="basis" >
    <v>      15.90000000       0.00000000       0.00000000 </v>
    <v>      -7.95000000      13.76980392       0.00000000 </v>
    <v>       0.00000000       0.00000000      32.38000000 </v>
   </varray>
   <i name="volume">   7089.27338987 </i>
   <varray name="rec_basis" >
    <v>       0.06289308       0.03631134       0.00000000 </v>
    <v>       0.00000000       0.07262268       0.00000000 </v>
    <v>       0.00000000       0.00000000       0.03088326 </v>
   </varray>
  </crystal>
  <varray name="positions" >
   <v>       0.43032521       0.29266311       0.47292909 </v>
   <v>       0.34867206       0.26844270       0.44732493 </v>
   <v>       0.44329811       0.36853808       0.50030748 </v>
   <v>       0.36835513       0.39178836       0.49175009 </v>
   <v>       0.30962437       0.32925118       0.45858917 </v>
   <v>       0.51835789       0.45091683       0.37941792 </v>
   <v>       0.48258804       0.55900012       0.41255689 </v>
   <v>       0.44852560       0.48360758       0.38184723 </v>
   <v>       0.57205833       0.57279783       0.42864070 </v>
   <v>       0.59420390       0.50663032       0.40855927 </v>
   <v>       0.45346179       0.42229213       0.43847137 </v>
   <v>       0.24624367       0.32749104       0.44501301 </v>
   <v>       0.38347976       0.45786942       0.36307729 </v>
   <v>       0.51521137       0.39565033       0.35864300 </v>
   <v>       0.44571862       0.59767102       0.42232366 </v>
   <v>       0.61352504       0.62175103       0.45366413 </v>
   <v>       0.32269639       0.21537583       0.42245605 </v>
   <v>       0.47790900       0.26204959       0.47058174 </v>
   <v>       0.50036380       0.40328853       0.52334803 </v>
   <v>       0.35654483       0.44465922       0.50817508 </v>
   <v>       0.65654471       0.49796948       0.41509306 </v>
   <v>       0.60004620       0.60005389       0.65735022 </v>
   <v>       0.20000000       0.80000000       0.21911674 </v>
   <v>       0.19999963       0.59999545       0.65735022 </v>
   <v>       0.60000000       0.80000000       0.21911674 </v>
   <v>       0.20000000       0.60000000       0.21911674 </v>
   <v>       0.60001054       0.80002174       0.65735022 </v>
   <v>       0.20000000       0.40000000       0.21911674 </v>
   <v>       0.80000000       0.00000000       0.21911674 </v>
   <v>       0.20004284       0.20003138       0.65735022 </v>
   <v>       0.80001204       0.00001268       0.65735022 </v>
   <v>       0.20000000       0.20000000       0.21911674 </v>
   <v>       0.19999404       0.80000125       0.65735022 </v>
   <v>       0.19999727       0.39997016       0.65735022 </v>
   <v>       0.60000000       0.60000000       0.21911674 </v>
   <v>       0.40000000       0.60000000       0.21911674 </v>
   <v>       0.39997826       0.00001929       0.65735022 </v>
   <v>       0.59999439       0.39999682       0.65735022 </v>
   <v>       0.40000000       0.20000000       0.21911674 </v>
   <v>       0.60000000       0.40000000       0.21911674 </v>
   <v>       0.39996447       0.20003133       0.65735022 </v>
   <v>       0.40000000       0.40000000       0.21911674 </v>
   <v>       0.60000318       0.20002251       0.65735022 </v>
   <v>       0.39996193       0.39993018       0.65735022 </v>
   <v>       0.60000000       0.20000000       0.21911674 </v>
   <v>       0.40000275       0.80000067       0.65735022 </v>
   <v>       0.40000089       0.59998176       0.65735022 </v>
   <v>       0.60003056       0.00000357       0.65735022 </v>
   <v>       0.40000000       0.80000000       0.21911674 </v>
   <v>       0.60000000       0.00000000       0.21911674 </v>
   <v>       0.40000000       0.00000000       0.21911674 </v>
   <v>       0.80000000       0.20000000       0.21911674 </v>
   <v>       0.20000051       0.00001666       0.65735022 </v>
   <v>       0.20000000       0.00000000       0.21911674 </v>
   <v>       0.00000000       0.00000000       0.21911674 </v>
   <v>       0.80001465       0.80001469       0.65735022 </v>
   <v>       0.00001102       0.00001131       0.65735022 </v>
   <v>       0.80000000       0.80000000       0.21911674 </v>
   <v>       0.00000000       0.20000000       0.21911674 </v>
   <v>       0.00000662       0.20000316       0.65735022 </v>
   <v>       0.79999954       0.60001531       0.65735022 </v>
   <v>       0.00000000       0.40000000       0.21911674 </v>
   <v>      -0.00000995       0.39997088       0.65735022 </v>
   <v>       0.00000000       0.60000000       0.21911674 </v>
   <v>       0.79999547       0.39998299       0.65735022 </v>
   <v>      -0.00000377       0.60001607       0.65735022 </v>
   <v>       0.80000000       0.60000000       0.21911674 </v>
   <v>       0.80000000       0.40000000       0.21911674 </v>
   <v>      -0.00000423       0.79999922       0.65735022 </v>
   <v>       0.00000000       0.80000000       0.21911674 </v>
   <v>       0.80001261       0.19999282       0.65735022 </v>
   <v>       0.93333333       0.06666667       0.16985794 </v>
   <v>       0.73332896       0.26665120       0.60809141 </v>
   <v>       0.73333263       0.26665843       0.70660902 </v>
   <v>       0.93332780       0.66666971       0.70660902 </v>
   <v>       0.93333591       0.66667670       0.60809141 </v>
   <v>       0.73333333       0.26666667       0.16985794 </v>
   <v>       0.73333333       0.26666667       0.26837554 </v>
   <v>       0.93333333       0.46666667       0.26837554 </v>
   <v>       0.73335204       0.06667352       0.60809141 </v>
   <v>       0.73334802       0.06667211       0.70660902 </v>
   <v>       0.93333609       0.06667256       0.70660902 </v>
   <v>       0.93333333       0.86666667       0.16985794 </v>
   <v>       0.73333333       0.06666667       0.16985794 </v>
   <v>       0.93335664       0.06668362       0.60809141 </v>
   <v>       0.73333333       0.06666667       0.26837554 </v>
   <v>       0.93333333       0.26666667       0.16985794 </v>
   <v>       0.93333461       0.26666033       0.70660902 </v>
   <v>       0.93333333       0.86666667       0.26837554 </v>
   <v>       0.73333333       0.46666667       0.26837554 </v>
   <v>       0.73333333       0.46666667       0.16985794 </v>
   <v>       0.73333333       0.86666667       0.16985794 </v>
   <v>       0.73333651       0.86667084       0.70660902 </v>
   <v>       0.73333333       0.86666667       0.26837554 </v>
   <v>       0.93333333       0.46666667       0.16985794 </v>
   <v>       0.73334567       0.86668220       0.60809141 </v>
   <v>       0.73335962       0.66669380       0.60809141 </v>
   <v>       0.73333729       0.66668057       0.70660902 </v>
   <v>       0.93332980       0.46666216       0.70660902 </v>
   <v>       0.73333333       0.66666667       0.16985794 </v>
   <v>       0.93333529       0.46666572       0.60809141 </v>
   <v>       0.73333333       0.66666667       0.26837554 </v>
   <v>       0.93334449       0.26665270       0.60809141 </v>
   <v>       0.93333333       0.26666667       0.26837554 </v>
   <v>       0.73334483       0.46667060       0.60809141 </v>
   <v>       0.73332392       0.46666037       0.70660902 </v>
   <v>       0.93333333       0.66666667       0.26837554 </v>
   <v>       0.93333333       0.06666667       0.26837554 </v>
   <v>       0.93333333       0.66666667       0.16985794 </v>
   <v>       0.53334120       0.86667750       0.60809141 </v>
   <v>       0.53334244       0.06667665       0.70660902 </v>
   <v>       0.53333333       0.86666667       0.16985794 </v>
   <v>       0.33333333       0.26666667       0.16985794 </v>
   <v>       0.33333333       0.26666667       0.26837554 </v>
   <v>       0.33331984       0.06671596       0.60809141 </v>
   <v>       0.33332467       0.06667978       0.70660902 </v>
   <v>       0.33333333       0.06666667       0.16985794 </v>
   <v>       0.33333333       0.06666667       0.26837554 </v>
   <v>       0.13333689       0.86668498       0.60809141 </v>
   <v>       0.13333050       0.86666954       0.70660902 </v>
   <v>       0.13333333       0.86666667       0.16985794 </v>
   <v>       0.13333333       0.86666667       0.26837554 </v>
   <v>       0.13332836       0.66667270       0.60809141 </v>
   <v>       0.13332960       0.66666860       0.70660902 </v>
   <v>       0.33333827       0.26667826       0.70660902 </v>
   <v>       0.13333333       0.66666667       0.16985794 </v>
   <v>       0.13333115       0.46664561       0.60809141 </v>
   <v>       0.13333118       0.46664612       0.70660902 </v>
   <v>       0.13333333       0.46666667       0.16985794 </v>
   <v>       0.13333333       0.46666667       0.26837554 </v>
   <v>       0.13336151       0.26664416       0.60809141 </v>
   <v>       0.13333496       0.26666779       0.70660902 </v>
   <v>       0.13333333       0.26666667       0.16985794 </v>
   <v>       0.13333333       0.26666667       0.26837554 </v>
   <v>       0.13337480       0.06671654       0.60809141 </v>
   <v>       0.13334081       0.06668202       0.70660902 </v>
   <v>       0.13333333       0.06666667       0.16985794 </v>
   <v>       0.13333333       0.06666667       0.26837554 </v>
   <v>       0.13333333       0.66666667       0.26837554 </v>
   <v>       0.33332183       0.26664100       0.60809141 </v>
   <v>       0.33333333       0.46666667       0.26837554 </v>
   <v>       0.33333333       0.46666667       0.16985794 </v>
   <v>       0.53333333       0.86666667       0.26837554 </v>
   <v>       0.53334097       0.66667586       0.60809141 </v>
   <v>       0.53334965       0.66667615       0.70660902 </v>
   <v>       0.53333333       0.66666667       0.16985794 </v>
   <v>       0.53333333       0.66666667       0.26837554 </v>
   <v>       0.53338389       0.46675550       0.60809141 </v>
   <v>       0.53331783       0.46665142       0.70660902 </v>
   <v>       0.53333333       0.46666667       0.16985794 </v>
   <v>       0.53333333       0.46666667       0.26837554 </v>
   <v>       0.53324739       0.26665912       0.60809141 </v>
   <v>       0.53333253       0.26668634       0.70660902 </v>
   <v>       0.53333333       0.26666667       0.16985794 </v>
   <v>       0.53333333       0.26666667       0.26837554 </v>
   <v>       0.53332949       0.06667572       0.60809141 </v>
   <v>       0.93333610       0.86666786       0.70660902 </v>
   <v>       0.53333333       0.06666667       0.16985794 </v>
   <v>       0.53333333       0.06666667       0.26837554 </v>
   <v>       0.33332800       0.86668533       0.60809141 </v>
   <v>       0.33333126       0.86667267       0.70660902 </v>
   <v>       0.33333333       0.86666667       0.16985794 </v>
   <v>       0.33333333       0.86666667       0.26837554 </v>
   <v>       0.33332714       0.66665421       0.60809141 </v>
   <v>       0.33333541       0.66665949       0.70660902 </v>
   <v>       0.33333333       0.66666667       0.16985794 </v>
   <v>       0.33333333       0.66666667       0.26837554 </v>
   <v>       0.33333286       0.46661599       0.60809141 </v>
   <v>       0.33333303       0.46664189       0.70660902 </v>
   <v>       0.53334055       0.86667058       0.70660902 </v>
   <v>       0.93335388       0.86668404       0.60809141 </v>
  </varray>
  <varray name="selective"  type="logical" >
   <v type="logical" >  T  T  F </v>
   <v type="logical" >  T  T  F </v>
   <v type="logical" >  T  T  F </v>
   <v type="logical" >  T  T  F </v>
   <v type="logical" >  T  T  F </v>
   <v type="logical" >  T  T  F </v>
   <v type="logical" >  T  T  F </v>
   <v type="logical" >  T  T  F </v>
   <v type="logical" >  T  T  F </v>
   <v type="logical" >  T  T  F </v>
   <v type="logical" >  T  T  F </v>
   <v type="logical" >  T  T  F </v>
   <v type="logical" >  T  T  F </v>
   <v type="logical" >  T  T  F </v>
   <v type="logical" >  T  T  F </v>
   <v type="logical" >  T  T  F </v>
   <v type="logical" >  T  T  F </v>
   <v type="logical" >  T  T  F </v>
   <v type="logical" >  T  T  F </v>
   <v type="logical" >  T  T  F </v>
   <v type="logical" >  T  T  F </v>
   <v type="logical" >  T  T  F </v>
   <v type="logical" >  F  F  F </v>
   <v type="logical" >  T  T  F </v>
   <v type="logical" >  F  F  F </v>
   <v type="logical" >  F  F  F </v>
   <v type="logical" >  T  T  F </v>
   <v type="logical" >  F  F  F </v>
   <v type="logical" >  F  F  F </v>
   <v type="logical" >  T  T  F </v>
   <v type="logical" >  T  T  F </v>
   <v type="logical" >  F  F  F </v>
   <v type="logical" >  T  T  F </v>
   <v type="logical" >  T  T  F </v>
   <v type="logical" >  F  F  F </v>
   <v type="logical" >  F  F  F </v>
   <v type="logical" >  T  T  F </v>
   <v type="logical" >  T  T  F </v>
   <v type="logical" >  F  F  F </v>
   <v type="logical" >  F  F  F </v>
   <v type="logical" >  T  T  F </v>
   <v type="logical" >  F  F  F </v>
   <v type="logical" >  T  T  F </v>
   <v type="logical" >  T  T  F </v>
   <v type="logical" >  F  F  F </v>
   <v type="logical" >  T  T  F </v>
   <v type="logical" >  T  T  F </v>
   <v type="logical" >  T  T  F </v>
   <v type="logical" >  F  F  F </v>
   <v type="logical" >  F  F  F </v>
   <v type="logical" >  F  F  F </v>
   <v type="logical" >  F  F  F </v>
   <v type="logical" >  T  T  F </v>
   <v type="logical" >  F  F  F </v>
   <v type="logical" >  F  F  F </v>
   <v type="logical" >  T  T  F </v>
   <v type="logical" >  T  T  F </v>
   <v type="logical" >  F  F  F </v>
   <v type="logical" >  F  F  F </v>
   <v type="logical" >  T  T  F </v>
   <v type="logical" >  T  T  F </v>
   <v type="logical" >  F  F  F </v>
   <v type="logical" >  T  T  F </v>
   <v type="logical" >  F  F  F </v>
   <v type="logical" >  T  T  F </v>
   <v type="logical" >  T  T  F </v>
   <v type="logical" >  F  F  F </v>
   <v type="logical" >  F  F  F </v>
   <v type="logical" >  T  T  F </v>
   <v type="logical" >  F  F  F </v>
   <v type="logical" >  T  T  F </v>
   <v type="logical" >  F  F  F </v>
   <v type="logical" >  T  T  F </v>
   <v type="logical" >  T  T  F </v>
   <v type="logical" >  T  T  F </v>
   <v type="logical" >  T  T  F </v>
   <v type="logical" >  F  F  F </v>
   <v type="logical" >  F  F  F </v>
   <v type="logical" >  F  F  F </v>
   <v type="logical" >  T  T  F </v>
   <v type="logical" >  T  T  F </v>
   <v type="logical" >  T  T  F </v>
   <v type="logical" >  F  F  F </v>
   <v type="logical" >  F  F  F </v>
   <v type="logical" >  T  T  F </v>
   <v type="logical" >  F  F  F </v>
   <v type="logical" >  F  F  F </v>
   <v type="logical" >  T  T  F </v>
   <v type="logical" >  F  F  F </v>
   <v type="logical" >  F  F  F </v>
   <v type="logical" >  F  F  F </v>
   <v type="logical" >  F  F  F </v>
   <v type="logical" >  T  T  F </v>
   <v type="logical" >  F  F  F </v>
   <v type="logical" >  F  F  F </v>
   <v type="logical" >  T  T  F </v>
   <v type="logical" >  T  T  F </v>
   <v type="logical" >  T  T  F </v>
   <v type="logical" >  T  T  F </v>
   <v type="logical" >  F  F  F </v>
   <v type="logical" >  T  T  F </v>
   <v type="logical" >  F  F  F </v>
   <v type="logical" >  T  T  F </v>
   <v type="logical" >  F  F  F </v>
   <v type="logical" >  T  T  F </v>
   <v type="logical" >  T  T  F </v>
   <v type="logical" >  F  F  F </v>
   <v type="logical" >  F  F  F </v>
   <v type="logical" >  F  F  F </v>
   <v type="logical" >  T  T  F </v>
   <v type="logical" >  T  T  F </v>
   <v type="logical" >  F  F  F </v>
   <v type="logical" >  F  F  F </v>
   <v type="logical" >  F  F  F </v>
   <v type="logical" >  T  T  F </v>
   <v type="logical" >  T  T  F </v>
   <v type="logical" >  F  F  F </v>
   <v type="logical" >  F  F  F </v>
   <v type="logical" >  T  T  F </v>
   <v type="logical" >  T  T  F </v>
   <v type="logical" >  F  F  F </v>
   <v type="logical" >  F  F  F </v>
   <v type="logical" >  T  T  F </v>
   <v type="logical" >  T  T  F </v>
   <v type="logical" >  T  T  F </v>
   <v type="logical" >  F  F  F </v>
   <v type="logical" >  T  T  F </v>
   <v type="logical" >  T  T  F </v>
   <v type="logical" >  F  F  F </v>
   <v type="logical" >  F  F  F </v>
   <v type="logical" >  T  T  F </v>
   <v type="logical" >  T  T  F </v>
   <v type="logical" >  F  F  F </v>
   <v type="logical" >  F  F  F </v>
   <v type="logical" >  T  T  F </v>
   <v type="logical" >  T  T  F </v>
   <v type="logical" >  F  F  F </v>
   <v type="logical" >  F  F  F </v>
   <v type="logical" >  F  F  F </v>
   <v type="logical" >  T  T  F </v>
   <v type="logical" >  F  F  F </v>
   <v type="logical" >  F  F  F </v>
   <v type="logical" >  F  F  F </v>
   <v type="logical" >  T  T  F </v>
   <v type="logical" >  T  T  F </v>
   <v type="logical" >  F  F  F </v>
   <v type="logical" >  F  F  F </v>
   <v type="logical" >  T  T  F </v>
   <v type="logical" >  T  T  F </v>
   <v type="logical" >  F  F  F </v>
   <v type="logical" >  F  F  F </v>
   <v type="logical" >  T  T  F </v>
   <v type="logical" >  T  T  F </v>
   <v type="logical" >  F  F  F </v>
   <v type="logical" >  F  F  F </v>
   <v type="logical" >  T  T  F </v>
   <v type="logical" >  T  T  F </v>
   <v type="logical" >  F  F  F </v>
   <v type="logical" >  F  F  F </v>
   <v type="logical" >  T  T  F </v>
   <v type="logical" >  T  T  F </v>
   <v type="logical" >  F  F  F </v>
   <v type="logical" >  F  F  F </v>
   <v type="logical" >  T  T  F </v>
   <v type="logical" >  T  T  F </v>
   <v type="logical" >  F  F  F </v>
   <v type="logical" >  F  F  F </v>
   <v type="logical" >  T  T  F </v>
   <v type="logical" >  T  T  F </v>
   <v type="logical" >  T  T  F </v>
   <v type="logical" >  T  T  F </v>
  </varray>
  <nose>
   <v>      -3.00000000       0.00000000       0.00010000       0.00010000 </v>
  </nose>
 </structure>
</modeling>
