basalPlane                              
           1
    15.900000    0.000000    0.000000
    -7.950000   13.769804    0.000000
     0.000000    0.000000   32.380000
   C    Cr   H    Mo   S 
  10   1  10  50 100
Direct configuration=     1
   0.43053569  0.29287337  0.47292909
   0.34882312  0.26864138  0.44732493
   0.44347617  0.36877022  0.50030748
   0.36848037  0.39201509  0.49175009
   0.30969663  0.32942030  0.45858917
   0.51826173  0.45078941  0.37941792
   0.48240077  0.55886272  0.41255689
   0.44839927  0.48348254  0.38184723
   0.57189585  0.57263932  0.42864070
   0.59413965  0.50647986  0.40855927
   0.45348427  0.42225473  0.43847137
   0.24623035  0.32754268  0.44501301
   0.38341728  0.45785030  0.36307729
   0.51532689  0.39564344  0.35864300
   0.44563156  0.59763594  0.42232366
   0.61335463  0.62164861  0.45366413
   0.32275858  0.21554751  0.42245605
   0.47793805  0.26202838  0.47058174
   0.50053773  0.40328384  0.52334803
   0.35651875  0.44477307  0.50817508
   0.65662020  0.49798729  0.41509306
   0.60000000  0.60000000  0.65735022
   0.20000000  0.80000000  0.21911674
   0.20000000  0.60000000  0.65735022
   0.60000000  0.80000000  0.21911674
   0.20000000  0.60000000  0.21911674
   0.60000000  0.80000000  0.65735022
   0.20000000  0.40000000  0.21911674
   0.80000000  0.00000000  0.21911674
   0.20000000  0.20000000  0.65735022
   0.80000000  0.00000000  0.65735022
   0.20000000  0.20000000  0.21911674
   0.20000000  0.80000000  0.65735022
   0.20000000  0.40000000  0.65735022
   0.60000000  0.60000000  0.21911674
   0.40000000  0.60000000  0.21911674
   0.40000000  0.00000000  0.65735022
   0.60000000  0.40000000  0.65735022
   0.40000000  0.20000000  0.21911674
   0.60000000  0.40000000  0.21911674
   0.40000000  0.20000000  0.65735022
   0.40000000  0.40000000  0.21911674
   0.60000000  0.20000000  0.65735022
   0.40000000  0.40000000  0.65735022
   0.60000000  0.20000000  0.21911674
   0.40000000  0.80000000  0.65735022
   0.40000000  0.60000000  0.65735022
   0.60000000  0.00000000  0.65735022
   0.40000000  0.80000000  0.21911674
   0.60000000  0.00000000  0.21911674
   0.40000000  0.00000000  0.21911674
   0.80000000  0.20000000  0.21911674
   0.20000000  0.00000000  0.65735022
   0.20000000  0.00000000  0.21911674
   0.00000000  0.00000000  0.21911674
   0.80000000  0.80000000  0.65735022
   0.00000000  0.00000000  0.65735022
   0.80000000  0.80000000  0.21911674
   0.00000000  0.20000000  0.21911674
   0.00000000  0.20000000  0.65735022
   0.80000000  0.60000000  0.65735022
   0.00000000  0.40000000  0.21911674
   0.00000000  0.40000000  0.65735022
   0.00000000  0.60000000  0.21911674
   0.80000000  0.40000000  0.65735022
   0.00000000  0.60000000  0.65735022
   0.80000000  0.60000000  0.21911674
   0.80000000  0.40000000  0.21911674
   0.00000000  0.80000000  0.65735022
   0.00000000  0.80000000  0.21911674
   0.80000000  0.20000000  0.65735022
   0.93333333  0.06666667  0.16985794
   0.73333333  0.26666667  0.60809141
   0.73333333  0.26666667  0.70660902
   0.93333333  0.66666667  0.70660902
   0.93333333  0.66666667  0.60809141
   0.73333333  0.26666667  0.16985794
   0.73333333  0.26666667  0.26837554
   0.93333333  0.46666667  0.26837554
   0.73333333  0.06666667  0.60809141
   0.73333333  0.06666667  0.70660902
   0.93333333  0.06666667  0.70660902
   0.93333333  0.86666667  0.16985794
   0.73333333  0.06666667  0.16985794
   0.93333333  0.06666667  0.60809141
   0.73333333  0.06666667  0.26837554
   0.93333333  0.26666667  0.16985794
   0.93333333  0.26666667  0.70660902
   0.93333333  0.86666667  0.26837554
   0.73333333  0.46666667  0.26837554
   0.73333333  0.46666667  0.16985794
   0.73333333  0.86666667  0.16985794
   0.73333333  0.86666667  0.70660902
   0.73333333  0.86666667  0.26837554
   0.93333333  0.46666667  0.16985794
   0.73333333  0.86666667  0.60809141
   0.73333333  0.66666667  0.60809141
   0.73333333  0.66666667  0.70660902
   0.93333333  0.46666667  0.70660902
   0.73333333  0.66666667  0.16985794
   0.93333333  0.46666667  0.60809141
   0.73333333  0.66666667  0.26837554
   0.93333333  0.26666667  0.60809141
   0.93333333  0.26666667  0.26837554
   0.73333333  0.46666667  0.60809141
   0.73333333  0.46666667  0.70660902
   0.93333333  0.66666667  0.26837554
   0.93333333  0.06666667  0.26837554
   0.93333333  0.66666667  0.16985794
   0.53333333  0.86666667  0.60809141
   0.53333333  0.06666667  0.70660902
   0.53333333  0.86666667  0.16985794
   0.33333333  0.26666667  0.16985794
   0.33333333  0.26666667  0.26837554
   0.33333333  0.06666667  0.60809141
   0.33333333  0.06666667  0.70660902
   0.33333333  0.06666667  0.16985794
   0.33333333  0.06666667  0.26837554
   0.13333333  0.86666667  0.60809141
   0.13333333  0.86666667  0.70660902
   0.13333333  0.86666667  0.16985794
   0.13333333  0.86666667  0.26837554
   0.13333333  0.66666667  0.60809141
   0.13333333  0.66666667  0.70660902
   0.33333333  0.26666667  0.70660902
   0.13333333  0.66666667  0.16985794
   0.13333333  0.46666667  0.60809141
   0.13333333  0.46666667  0.70660902
   0.13333333  0.46666667  0.16985794
   0.13333333  0.46666667  0.26837554
   0.13333333  0.26666667  0.60809141
   0.13333333  0.26666667  0.70660902
   0.13333333  0.26666667  0.16985794
   0.13333333  0.26666667  0.26837554
   0.13333333  0.06666667  0.60809141
   0.13333333  0.06666667  0.70660902
   0.13333333  0.06666667  0.16985794
   0.13333333  0.06666667  0.26837554
   0.13333333  0.66666667  0.26837554
   0.33333333  0.26666667  0.60809141
   0.33333333  0.46666667  0.26837554
   0.33333333  0.46666667  0.16985794
   0.53333333  0.86666667  0.26837554
   0.53333333  0.66666667  0.60809141
   0.53333333  0.66666667  0.70660902
   0.53333333  0.66666667  0.16985794
   0.53333333  0.66666667  0.26837554
   0.53333333  0.46666667  0.60809141
   0.53333333  0.46666667  0.70660902
   0.53333333  0.46666667  0.16985794
   0.53333333  0.46666667  0.26837554
   0.53333333  0.26666667  0.60809141
   0.53333333  0.26666667  0.70660902
   0.53333333  0.26666667  0.16985794
   0.53333333  0.26666667  0.26837554
   0.53333333  0.06666667  0.60809141
   0.93333333  0.86666667  0.70660902
   0.53333333  0.06666667  0.16985794
   0.53333333  0.06666667  0.26837554
   0.33333333  0.86666667  0.60809141
   0.33333333  0.86666667  0.70660902
   0.33333333  0.86666667  0.16985794
   0.33333333  0.86666667  0.26837554
   0.33333333  0.66666667  0.60809141
   0.33333333  0.66666667  0.70660902
   0.33333333  0.66666667  0.16985794
   0.33333333  0.66666667  0.26837554
   0.33333333  0.46666667  0.60809141
   0.33333333  0.46666667  0.70660902
   0.53333333  0.86666667  0.70660902
   0.93333333  0.86666667  0.60809141
Direct configuration=     2
   0.43035077  0.29273874  0.47292909
   0.34876499  0.26850120  0.44732493
   0.44339164  0.36856014  0.50030748
   0.36845729  0.39194351  0.49175009
   0.30962767  0.32929391  0.45858917
   0.51836581  0.45085284  0.37941792
   0.48259720  0.55900101  0.41255689
   0.44844261  0.48354720  0.38184723
   0.57202352  0.57276297  0.42864070
   0.59422385  0.50666495  0.40855927
   0.45339463  0.42228005  0.43847137
   0.24623737  0.32753985  0.44501301
   0.38335113  0.45781794  0.36307729
   0.51528561  0.39559709  0.35864300
   0.44562115  0.59764763  0.42232366
   0.61335431  0.62162724  0.45366413
   0.32276835  0.21553802  0.42245605
   0.47795261  0.26204572  0.47058174
   0.50054892  0.40333280  0.52334803
   0.35651809  0.44480565  0.50817508
   0.65658726  0.49797625  0.41509306
   0.60003248  0.60003007  0.65735022
   0.20000000  0.80000000  0.21911674
   0.20000653  0.60000431  0.65735022
   0.60000000  0.80000000  0.21911674
   0.20000000  0.60000000  0.21911674
   0.60000678  0.80001472  0.65735022
   0.20000000  0.40000000  0.21911674
   0.80000000  0.00000000  0.21911674
   0.20002856  0.20002434  0.65735022
   0.80000074  0.00000537  0.65735022
   0.20000000  0.20000000  0.21911674
   0.19999610  0.79999691  0.65735022
   0.19999809  0.39998225  0.65735022
   0.60000000  0.60000000  0.21911674
   0.40000000  0.60000000  0.21911674
   0.39998074  0.00000214  0.65735022
   0.59999431  0.39998749  0.65735022
   0.40000000  0.20000000  0.21911674
   0.60000000  0.40000000  0.21911674
   0.39998321  0.20002182  0.65735022
   0.40000000  0.40000000  0.21911674
   0.60001582  0.20001588  0.65735022
   0.39995856  0.39993974  0.65735022
   0.60000000  0.20000000  0.21911674
   0.39999882  0.79999449  0.65735022
   0.39999760  0.59999914  0.65735022
   0.60002284 -0.00000209  0.65735022
   0.40000000  0.80000000  0.21911674
   0.60000000  0.00000000  0.21911674
   0.40000000  0.00000000  0.21911674
   0.80000000  0.20000000  0.21911674
   0.20000259  0.00000619  0.65735022
   0.20000000  0.00000000  0.21911674
   0.00000000  0.00000000  0.21911674
   0.80000504  0.80000335  0.65735022
  -0.00000235 -0.00000374  0.65735022
   0.80000000  0.80000000  0.21911674
   0.00000000  0.20000000  0.21911674
  -0.00000539  0.20000457  0.65735022
   0.79999854  0.60001081  0.65735022
   0.00000000  0.40000000  0.21911674
  -0.00000941  0.39997900  0.65735022
   0.00000000  0.60000000  0.21911674
   0.79999534  0.39998748  0.65735022
  -0.00000020  0.60001579  0.65735022
   0.80000000  0.60000000  0.21911674
   0.80000000  0.40000000  0.21911674
  -0.00000586  0.79999316  0.65735022
   0.00000000  0.80000000  0.21911674
   0.80000851  0.19999712  0.65735022
   0.93333333  0.06666667  0.16985794
   0.73333082  0.26666256  0.60809141
   0.73333166  0.26666523  0.70660902
   0.93333366  0.66666649  0.70660902
   0.93333576  0.66666842  0.60809141
   0.73333333  0.26666667  0.16985794
   0.73333333  0.26666667  0.26837554
   0.93333333  0.46666667  0.26837554
   0.73333564  0.06666819  0.60809141
   0.73333443  0.06666789  0.70660902
   0.93333364  0.06666794  0.70660902
   0.93333333  0.86666667  0.16985794
   0.73333333  0.06666667  0.16985794
   0.93334046  0.06667167  0.60809141
   0.73333333  0.06666667  0.26837554
   0.93333333  0.26666667  0.16985794
   0.93333441  0.26666678  0.70660902
   0.93333333  0.86666667  0.26837554
   0.73333333  0.46666667  0.26837554
   0.73333333  0.46666667  0.16985794
   0.73333333  0.86666667  0.16985794
   0.73333224  0.86666477  0.70660902
   0.73333333  0.86666667  0.26837554
   0.93333333  0.46666667  0.16985794
   0.73333505  0.86666838  0.60809141
   0.73333553  0.66666865  0.60809141
   0.73332911  0.66666564  0.70660902
   0.93333232  0.46666563  0.70660902
   0.73333333  0.66666667  0.16985794
   0.93333391  0.46666692  0.60809141
   0.73333333  0.66666667  0.26837554
   0.93333736  0.26666408  0.60809141
   0.93333333  0.26666667  0.26837554
   0.73333799  0.46666979  0.60809141
   0.73333118  0.46666567  0.70660902
   0.93333333  0.66666667  0.26837554
   0.93333333  0.06666667  0.26837554
   0.93333333  0.66666667  0.16985794
   0.53333490  0.86666884  0.60809141
   0.53333541  0.06666872  0.70660902
   0.53333333  0.86666667  0.16985794
   0.33333333  0.26666667  0.16985794
   0.33333333  0.26666667  0.26837554
   0.33333182  0.06667941  0.60809141
   0.33333287  0.06666607  0.70660902
   0.33333333  0.06666667  0.16985794
   0.33333333  0.06666667  0.26837554
   0.13333530  0.86667202  0.60809141
   0.13333347  0.86666735  0.70660902
   0.13333333  0.86666667  0.16985794
   0.13333333  0.86666667  0.26837554
   0.13333194  0.66666820  0.60809141
   0.13333232  0.66666710  0.70660902
   0.33333918  0.26667338  0.70660902
   0.13333333  0.66666667  0.16985794
   0.13333341  0.46666325  0.60809141
   0.13333326  0.46666305  0.70660902
   0.13333333  0.46666667  0.16985794
   0.13333333  0.46666667  0.26837554
   0.13334325  0.26666072  0.60809141
   0.13333388  0.26666859  0.70660902
   0.13333333  0.26666667  0.16985794
   0.13333333  0.26666667  0.26837554
   0.13334609  0.06668034  0.60809141
   0.13333375  0.06666778  0.70660902
   0.13333333  0.06666667  0.16985794
   0.13333333  0.06666667  0.26837554
   0.13333333  0.66666667  0.26837554
   0.33333318  0.26666026  0.60809141
   0.33333333  0.46666667  0.26837554
   0.33333333  0.46666667  0.16985794
   0.53333333  0.86666667  0.26837554
   0.53333289  0.66666481  0.60809141
   0.53333646  0.66666614  0.70660902
   0.53333333  0.66666667  0.16985794
   0.53333333  0.66666667  0.26837554
   0.53335166  0.46669614  0.60809141
   0.53332954  0.46666130  0.70660902
   0.53333333  0.46666667  0.16985794
   0.53333333  0.46666667  0.26837554
   0.53330530  0.26666287  0.60809141
   0.53333515  0.26667281  0.70660902
   0.53333333  0.26666667  0.16985794
   0.53333333  0.26666667  0.26837554
   0.53333102  0.06666831  0.60809141
   0.93333315  0.86666644  0.70660902
   0.53333333  0.06666667  0.16985794
   0.53333333  0.06666667  0.26837554
   0.33333321  0.86667225  0.60809141
   0.33333395  0.86666822  0.70660902
   0.33333333  0.86666667  0.16985794
   0.33333333  0.86666667  0.26837554
   0.33333119  0.66666319  0.60809141
   0.33333377  0.66666532  0.70660902
   0.33333333  0.66666667  0.16985794
   0.33333333  0.66666667  0.26837554
   0.33333542  0.46665590  0.60809141
   0.33333520  0.46666518  0.70660902
   0.53333466  0.86666672  0.70660902
   0.93333855  0.86667145  0.60809141
Direct configuration=     3
   0.43041772  0.29278748  0.47292909
   0.34878604  0.26855195  0.44732493
   0.44342225  0.36863620  0.50030748
   0.36846565  0.39196943  0.49175009
   0.30965264  0.32933967  0.45858917
   0.51832813  0.45082987  0.37941792
   0.48252608  0.55895094  0.41255689
   0.44842692  0.48352379  0.38184723
   0.57197730  0.57271820  0.42864070
   0.59419336  0.50659793  0.40855927
   0.45342709  0.42227088  0.43847137
   0.24623483  0.32754087  0.44501301
   0.38337508  0.45782966  0.36307729
   0.51530056  0.39561387  0.35864300
   0.44562492  0.59764340  0.42232366
   0.61335442  0.62163498  0.45366413
   0.32276481  0.21554146  0.42245605
   0.47794734  0.26203944  0.47058174
   0.50054487  0.40331508  0.52334803
   0.35651833  0.44479386  0.50817508
   0.65659919  0.49798025  0.41509306
   0.60002072  0.60001918  0.65735022
   0.20000000  0.80000000  0.21911674
   0.20000417  0.60000275  0.65735022
   0.60000000  0.80000000  0.21911674
   0.20000000  0.60000000  0.21911674
   0.60000433  0.80000939  0.65735022
   0.20000000  0.40000000  0.21911674
   0.80000000  0.00000000  0.21911674
   0.20001822  0.20001553  0.65735022
   0.80000047  0.00000342  0.65735022
   0.20000000  0.20000000  0.21911674
   0.19999751  0.79999803  0.65735022
   0.19999878  0.39998867  0.65735022
   0.60000000  0.60000000  0.21911674
   0.40000000  0.60000000  0.21911674
   0.39998771  0.00000136  0.65735022
   0.59999637  0.39999202  0.65735022
   0.40000000  0.20000000  0.21911674
   0.60000000  0.40000000  0.21911674
   0.39998929  0.20001392  0.65735022
   0.40000000  0.40000000  0.21911674
   0.60001009  0.20001013  0.65735022
   0.39997356  0.39996156  0.65735022
   0.60000000  0.20000000  0.21911674
   0.39999925  0.79999649  0.65735022
   0.39999847  0.59999945  0.65735022
   0.60001457 -0.00000133  0.65735022
   0.40000000  0.80000000  0.21911674
   0.60000000  0.00000000  0.21911674
   0.40000000  0.00000000  0.21911674
   0.80000000  0.20000000  0.21911674
   0.20000166  0.00000395  0.65735022
   0.20000000  0.00000000  0.21911674
   0.00000000  0.00000000  0.21911674
   0.80000322  0.80000214  0.65735022
  -0.00000150 -0.00000239  0.65735022
   0.80000000  0.80000000  0.21911674
   0.00000000  0.20000000  0.21911674
  -0.00000344  0.20000291  0.65735022
   0.79999907  0.60000690  0.65735022
   0.00000000  0.40000000  0.21911674
  -0.00000600  0.39998660  0.65735022
   0.00000000  0.60000000  0.21911674
   0.79999702  0.39999201  0.65735022
  -0.00000013  0.60001007  0.65735022
   0.80000000  0.60000000  0.21911674
   0.80000000  0.40000000  0.21911674
  -0.00000374  0.79999564  0.65735022
   0.00000000  0.80000000  0.21911674
   0.80000543  0.19999816  0.65735022
   0.93333333  0.06666667  0.16985794
   0.73333173  0.26666405  0.60809141
   0.73333227  0.26666575  0.70660902
   0.93333354  0.66666655  0.70660902
   0.93333488  0.66666779  0.60809141
   0.73333333  0.26666667  0.16985794
   0.73333333  0.26666667  0.26837554
   0.93333333  0.46666667  0.26837554
   0.73333480  0.06666764  0.60809141
   0.73333403  0.06666744  0.70660902
   0.93333353  0.06666748  0.70660902
   0.93333333  0.86666667  0.16985794
   0.73333333  0.06666667  0.16985794
   0.93333788  0.06666986  0.60809141
   0.73333333  0.06666667  0.26837554
   0.93333333  0.26666667  0.16985794
   0.93333402  0.26666674  0.70660902
   0.93333333  0.86666667  0.26837554
   0.73333333  0.46666667  0.26837554
   0.73333333  0.46666667  0.16985794
   0.73333333  0.86666667  0.16985794
   0.73333263  0.86666545  0.70660902
   0.73333333  0.86666667  0.26837554
   0.93333333  0.46666667  0.16985794
   0.73333443  0.86666776  0.60809141
   0.73333474  0.66666793  0.60809141
   0.73333064  0.66666601  0.70660902
   0.93333269  0.46666600  0.70660902
   0.73333333  0.66666667  0.16985794
   0.93333370  0.46666683  0.60809141
   0.73333333  0.66666667  0.26837554
   0.93333590  0.26666502  0.60809141
   0.93333333  0.26666667  0.26837554
   0.73333630  0.46666866  0.60809141
   0.73333196  0.46666603  0.70660902
   0.93333333  0.66666667  0.26837554
   0.93333333  0.06666667  0.26837554
   0.93333333  0.66666667  0.16985794
   0.53333433  0.86666805  0.60809141
   0.53333466  0.06666797  0.70660902
   0.53333333  0.86666667  0.16985794
   0.33333333  0.26666667  0.16985794
   0.33333333  0.26666667  0.26837554
   0.33333237  0.06667480  0.60809141
   0.33333304  0.06666628  0.70660902
   0.33333333  0.06666667  0.16985794
   0.33333333  0.06666667  0.26837554
   0.13333459  0.86667008  0.60809141
   0.13333342  0.86666710  0.70660902
   0.13333333  0.86666667  0.16985794
   0.13333333  0.86666667  0.26837554
   0.13333244  0.66666764  0.60809141
   0.13333269  0.66666694  0.70660902
   0.33333706  0.26667095  0.70660902
   0.13333333  0.66666667  0.16985794
   0.13333338  0.46666449  0.60809141
   0.13333328  0.46666436  0.70660902
   0.13333333  0.46666667  0.16985794
   0.13333333  0.46666667  0.26837554
   0.13333966  0.26666288  0.60809141
   0.13333368  0.26666789  0.70660902
   0.13333333  0.26666667  0.16985794
   0.13333333  0.26666667  0.26837554
   0.13334147  0.06667539  0.60809141
   0.13333360  0.06666738  0.70660902
   0.13333333  0.06666667  0.16985794
   0.13333333  0.06666667  0.26837554
   0.13333333  0.66666667  0.26837554
   0.33333323  0.26666258  0.60809141
   0.33333333  0.46666667  0.26837554
   0.33333333  0.46666667  0.16985794
   0.53333333  0.86666667  0.26837554
   0.53333305  0.66666548  0.60809141
   0.53333533  0.66666633  0.70660902
   0.53333333  0.66666667  0.16985794
   0.53333333  0.66666667  0.26837554
   0.53334502  0.46668547  0.60809141
   0.53333091  0.46666324  0.70660902
   0.53333333  0.46666667  0.16985794
   0.53333333  0.46666667  0.26837554
   0.53331545  0.26666424  0.60809141
   0.53333449  0.26667059  0.70660902
   0.53333333  0.26666667  0.16985794
   0.53333333  0.26666667  0.26837554
   0.53333186  0.06666771  0.60809141
   0.93333322  0.86666652  0.70660902
   0.53333333  0.06666667  0.16985794
   0.53333333  0.06666667  0.26837554
   0.33333325  0.86667023  0.60809141
   0.33333372  0.86666766  0.70660902
   0.33333333  0.86666667  0.16985794
   0.33333333  0.86666667  0.26837554
   0.33333197  0.66666445  0.60809141
   0.33333361  0.66666581  0.70660902
   0.33333333  0.66666667  0.16985794
   0.33333333  0.66666667  0.26837554
   0.33333466  0.46665980  0.60809141
   0.33333452  0.46666572  0.70660902
   0.53333418  0.86666670  0.70660902
   0.93333666  0.86666972  0.60809141
Direct configuration=     4
   0.43043619  0.29280093  0.47292909
   0.34879184  0.26856595  0.44732493
   0.44343069  0.36865718  0.50030748
   0.36846795  0.39197657  0.49175009
   0.30965952  0.32935229  0.45858917
   0.51831773  0.45082354  0.37941792
   0.48250646  0.55893714  0.41255689
   0.44842259  0.48351733  0.38184723
   0.57196455  0.57270586  0.42864070
   0.59418495  0.50657945  0.40855927
   0.45343604  0.42226835  0.43847137
   0.24623412  0.32754116  0.44501301
   0.38338169  0.45783289  0.36307729
   0.51530468  0.39561850  0.35864300
   0.44562596  0.59764223  0.42232366
   0.61335446  0.62163711  0.45366413
   0.32276384  0.21554240  0.42245605
   0.47794589  0.26203771  0.47058174
   0.50054375  0.40331019  0.52334803
   0.35651839  0.44479060  0.50817508
   0.65660248  0.49798135  0.41509306
   0.60001747  0.60001618  0.65735022
   0.20000000  0.80000000  0.21911674
   0.20000352  0.60000232  0.65735022
   0.60000000  0.80000000  0.21911674
   0.20000000  0.60000000  0.21911674
   0.60000365  0.80000792  0.65735022
   0.20000000  0.40000000  0.21911674
   0.80000000  0.00000000  0.21911674
   0.20001537  0.20001310  0.65735022
   0.80000040  0.00000289  0.65735022
   0.20000000  0.20000000  0.21911674
   0.19999790  0.79999834  0.65735022
   0.19999897  0.39999045  0.65735022
   0.60000000  0.60000000  0.21911674
   0.40000000  0.60000000  0.21911674
   0.39998964  0.00000115  0.65735022
   0.59999694  0.39999327  0.65735022
   0.40000000  0.20000000  0.21911674
   0.60000000  0.40000000  0.21911674
   0.39999096  0.20001174  0.65735022
   0.40000000  0.40000000  0.21911674
   0.60000851  0.20000854  0.65735022
   0.39997770  0.39996757  0.65735022
   0.60000000  0.20000000  0.21911674
   0.39999937  0.79999704  0.65735022
   0.39999871  0.59999954  0.65735022
   0.60001229 -0.00000113  0.65735022
   0.40000000  0.80000000  0.21911674
   0.60000000  0.00000000  0.21911674
   0.40000000  0.00000000  0.21911674
   0.80000000  0.20000000  0.21911674
   0.20000140  0.00000333  0.65735022
   0.20000000  0.00000000  0.21911674
   0.00000000  0.00000000  0.21911674
   0.80000271  0.80000180  0.65735022
  -0.00000127 -0.00000201  0.65735022
   0.80000000  0.80000000  0.21911674
   0.00000000  0.20000000  0.21911674
  -0.00000290  0.20000246  0.65735022
   0.79999921  0.60000582  0.65735022
   0.00000000  0.40000000  0.21911674
  -0.00000506  0.39998870  0.65735022
   0.00000000  0.60000000  0.21911674
   0.79999749  0.39999326  0.65735022
  -0.00000011  0.60000850  0.65735022
   0.80000000  0.60000000  0.21911674
   0.80000000  0.40000000  0.21911674
  -0.00000315  0.79999632  0.65735022
   0.00000000  0.80000000  0.21911674
   0.80000458  0.19999845  0.65735022
   0.93333333  0.06666667  0.16985794
   0.73333198  0.26666446  0.60809141
   0.73333243  0.26666589  0.70660902
   0.93333351  0.66666657  0.70660902
   0.93333464  0.66666761  0.60809141
   0.73333333  0.26666667  0.16985794
   0.73333333  0.26666667  0.26837554
   0.93333333  0.46666667  0.26837554
   0.73333457  0.06666749  0.60809141
   0.73333392  0.06666732  0.70660902
   0.93333350  0.06666735  0.70660902
   0.93333333  0.86666667  0.16985794
   0.73333333  0.06666667  0.16985794
   0.93333717  0.06666936  0.60809141
   0.73333333  0.06666667  0.26837554
   0.93333333  0.26666667  0.16985794
   0.93333391  0.26666673  0.70660902
   0.93333333  0.86666667  0.26837554
   0.73333333  0.46666667  0.26837554
   0.73333333  0.46666667  0.16985794
   0.73333333  0.86666667  0.16985794
   0.73333274  0.86666564  0.70660902
   0.73333333  0.86666667  0.26837554
   0.93333333  0.46666667  0.16985794
   0.73333426  0.86666759  0.60809141
   0.73333452  0.66666774  0.60809141
   0.73333106  0.66666612  0.70660902
   0.93333279  0.46666611  0.70660902
   0.73333333  0.66666667  0.16985794
   0.93333364  0.46666681  0.60809141
   0.73333333  0.66666667  0.26837554
   0.93333550  0.26666528  0.60809141
   0.93333333  0.26666667  0.26837554
   0.73333584  0.46666835  0.60809141
   0.73333217  0.46666613  0.70660902
   0.93333333  0.66666667  0.26837554
   0.93333333  0.06666667  0.26837554
   0.93333333  0.66666667  0.16985794
   0.53333417  0.86666783  0.60809141
   0.53333445  0.06666777  0.70660902
   0.53333333  0.86666667  0.16985794
   0.33333333  0.26666667  0.16985794
   0.33333333  0.26666667  0.26837554
   0.33333252  0.06667353  0.60809141
   0.33333309  0.06666634  0.70660902
   0.33333333  0.06666667  0.16985794
   0.33333333  0.06666667  0.26837554
   0.13333439  0.86666955  0.60809141
   0.13333341  0.86666703  0.70660902
   0.13333333  0.86666667  0.16985794
   0.13333333  0.86666667  0.26837554
   0.13333258  0.66666749  0.60809141
   0.13333279  0.66666690  0.70660902
   0.33333648  0.26667028  0.70660902
   0.13333333  0.66666667  0.16985794
   0.13333337  0.46666483  0.60809141
   0.13333329  0.46666472  0.70660902
   0.13333333  0.46666667  0.16985794
   0.13333333  0.46666667  0.26837554
   0.13333867  0.26666347  0.60809141
   0.13333363  0.26666770  0.70660902
   0.13333333  0.26666667  0.16985794
   0.13333333  0.26666667  0.26837554
   0.13334020  0.06667403  0.60809141
   0.13333356  0.06666727  0.70660902
   0.13333333  0.06666667  0.16985794
   0.13333333  0.06666667  0.26837554
   0.13333333  0.66666667  0.26837554
   0.33333325  0.26666322  0.60809141
   0.33333333  0.46666667  0.26837554
   0.33333333  0.46666667  0.16985794
   0.53333333  0.86666667  0.26837554
   0.53333310  0.66666567  0.60809141
   0.53333502  0.66666638  0.70660902
   0.53333333  0.66666667  0.16985794
   0.53333333  0.66666667  0.26837554
   0.53334319  0.46668252  0.60809141
   0.53333129  0.46666378  0.70660902
   0.53333333  0.46666667  0.16985794
   0.53333333  0.46666667  0.26837554
   0.53331825  0.26666462  0.60809141
   0.53333431  0.26666997  0.70660902
   0.53333333  0.26666667  0.16985794
   0.53333333  0.26666667  0.26837554
   0.53333209  0.06666755  0.60809141
   0.93333324  0.86666654  0.70660902
   0.53333333  0.06666667  0.16985794
   0.53333333  0.06666667  0.26837554
   0.33333327  0.86666967  0.60809141
   0.33333366  0.86666750  0.70660902
   0.33333333  0.86666667  0.16985794
   0.33333333  0.86666667  0.26837554
   0.33333218  0.66666480  0.60809141
   0.33333357  0.66666594  0.70660902
   0.33333333  0.66666667  0.16985794
   0.33333333  0.66666667  0.26837554
   0.33333445  0.46666088  0.60809141
   0.33333434  0.46666587  0.70660902
   0.53333405  0.86666670  0.70660902
   0.93333614  0.86666924  0.60809141
Direct configuration=     5
   0.43045010  0.29281105  0.47292909
   0.34879621  0.26857650  0.44732493
   0.44343705  0.36867298  0.50030748
   0.36846969  0.39198196  0.49175009
   0.30966471  0.32936180  0.45858917
   0.51830990  0.45081877  0.37941792
   0.48249169  0.55892673  0.41255689
   0.44841933  0.48351247  0.38184723
   0.57195494  0.57269655  0.42864070
   0.59417862  0.50656553  0.40855927
   0.45344278  0.42226645  0.43847137
   0.24623360  0.32754137  0.44501301
   0.38338666  0.45783532  0.36307729
   0.51530779  0.39562199  0.35864300
   0.44562674  0.59764135  0.42232366
   0.61335448  0.62163872  0.45366413
   0.32276310  0.21554312  0.42245605
   0.47794479  0.26203640  0.47058174
   0.50054291  0.40330650  0.52334803
   0.35651844  0.44478815  0.50817508
   0.65660496  0.49798218  0.41509306
   0.60001503  0.60001392  0.65735022
   0.20000000  0.80000000  0.21911674
   0.20000302  0.60000200  0.65735022
   0.60000000  0.80000000  0.21911674
   0.20000000  0.60000000  0.21911674
   0.60000314  0.80000681  0.65735022
   0.20000000  0.40000000  0.21911674
   0.80000000  0.00000000  0.21911674
   0.20001322  0.20001127  0.65735022
   0.80000034  0.00000249  0.65735022
   0.20000000  0.20000000  0.21911674
   0.19999819  0.79999857  0.65735022
   0.19999912  0.39999178  0.65735022
   0.60000000  0.60000000  0.21911674
   0.40000000  0.60000000  0.21911674
   0.39999109  0.00000099  0.65735022
   0.59999737  0.39999421  0.65735022
   0.40000000  0.20000000  0.21911674
   0.60000000  0.40000000  0.21911674
   0.39999223  0.20001010  0.65735022
   0.40000000  0.40000000  0.21911674
   0.60000732  0.20000735  0.65735022
   0.39998082  0.39997211  0.65735022
   0.60000000  0.20000000  0.21911674
   0.39999945  0.79999745  0.65735022
   0.39999889  0.59999960  0.65735022
   0.60001057 -0.00000097  0.65735022
   0.40000000  0.80000000  0.21911674
   0.60000000  0.00000000  0.21911674
   0.40000000  0.00000000  0.21911674
   0.80000000  0.20000000  0.21911674
   0.20000120  0.00000286  0.65735022
   0.20000000  0.00000000  0.21911674
   0.00000000  0.00000000  0.21911674
   0.80000233  0.80000155  0.65735022
  -0.00000109 -0.00000173  0.65735022
   0.80000000  0.80000000  0.21911674
   0.00000000  0.20000000  0.21911674
  -0.00000250  0.20000211  0.65735022
   0.79999932  0.60000500  0.65735022
   0.00000000  0.40000000  0.21911674
  -0.00000436  0.39999028  0.65735022
   0.00000000  0.60000000  0.21911674
   0.79999784  0.39999420  0.65735022
  -0.00000009  0.60000731  0.65735022
   0.80000000  0.60000000  0.21911674
   0.80000000  0.40000000  0.21911674
  -0.00000271  0.79999684  0.65735022
   0.00000000  0.80000000  0.21911674
   0.80000394  0.19999866  0.65735022
   0.93333333  0.06666667  0.16985794
   0.73333217  0.26666477  0.60809141
   0.73333256  0.26666600  0.70660902
   0.93333349  0.66666658  0.70660902
   0.93333446  0.66666748  0.60809141
   0.73333333  0.26666667  0.16985794
   0.73333333  0.26666667  0.26837554
   0.93333333  0.46666667  0.26837554
   0.73333440  0.06666737  0.60809141
   0.73333384  0.06666723  0.70660902
   0.93333347  0.06666725  0.70660902
   0.93333333  0.86666667  0.16985794
   0.73333333  0.06666667  0.16985794
   0.93333663  0.06666898  0.60809141
   0.73333333  0.06666667  0.26837554
   0.93333333  0.26666667  0.16985794
   0.93333383  0.26666672  0.70660902
   0.93333333  0.86666667  0.26837554
   0.73333333  0.46666667  0.26837554
   0.73333333  0.46666667  0.16985794
   0.73333333  0.86666667  0.16985794
   0.73333283  0.86666579  0.70660902
   0.73333333  0.86666667  0.26837554
   0.93333333  0.46666667  0.16985794
   0.73333413  0.86666746  0.60809141