  93  93   0   0
  0.3967126E+02  0.9570947E-09  0.1276126E-08  0.3488026E-08  0.5000000E-15
  1.000000000000000E-004
  CAR 
 basalPlane                              
      2.56923252    -20.65033371  301      0.29834512      1.00000000
    -20.650  0.0000E+00  0.0000E+00
    -20.573  0.0000E+00  0.0000E+00
    -20.496  0.0000E+00  0.0000E+00
    -20.418  0.0000E+00  0.0000E+00
    -20.341  0.0000E+00  0.0000E+00
    -20.263  0.0000E+00  0.0000E+00
    -20.186  0.1434E-18  0.1110E-19
    -20.109  0.4853E-15  0.3757E-16
    -20.031  0.8849E-12  0.6853E-13
    -19.954  0.5001E-09  0.3878E-10
    -19.876  0.8843E-07  0.6883E-08
    -19.799  0.4957E-05  0.3905E-06
    -19.722  0.8962E-04  0.7327E-05
    -19.644  0.5334E-03  0.4861E-04
    -19.567  0.1064E-02  0.1309E-03
    -19.489  0.7172E-03  0.1864E-03
    -19.412  0.1639E-03  0.1991E-03
    -19.335  0.4734E-04  0.2028E-03
    -19.257  0.3145E-03  0.2271E-03
    -19.180  0.9359E-03  0.2996E-03
    -19.102  0.9408E-03  0.3724E-03
    -19.025  0.3192E-03  0.3971E-03
    -18.948  0.3608E-04  0.3999E-03
    -18.870  0.1333E-05  0.4000E-03
    -18.793  0.1577E-07  0.4000E-03
    -18.715  0.5886E-10  0.4000E-03
    -18.638  0.6847E-13  0.4000E-03
    -18.561  0.2467E-16  0.4000E-03
    -18.483  0.0000E+00  0.4000E-03
    -18.406  0.0000E+00  0.4000E-03
    -18.328  0.0000E+00  0.4000E-03
    -18.251  0.0000E+00  0.4000E-03
    -18.174  0.0000E+00  0.4000E-03
    -18.096  0.0000E+00  0.4000E-03
    -18.019  0.0000E+00  0.4000E-03
    -17.941  0.0000E+00  0.4000E-03
    -17.864  0.0000E+00  0.4000E-03
    -17.787  0.0000E+00  0.4000E-03
    -17.709  0.0000E+00  0.4000E-03
    -17.632  0.0000E+00  0.4000E-03
    -17.554  0.0000E+00  0.4000E-03
    -17.477  0.0000E+00  0.4000E-03
    -17.400  0.0000E+00  0.4000E-03
    -17.322  0.0000E+00  0.4000E-03
    -17.245  0.0000E+00  0.4000E-03
    -17.167  0.0000E+00  0.4000E-03
    -17.090  0.0000E+00  0.4000E-03
    -17.013  0.0000E+00  0.4000E-03
    -16.935  0.0000E+00  0.4000E-03
    -16.858  0.0000E+00  0.4000E-03
    -16.780  0.0000E+00  0.4000E-03
    -16.703  0.0000E+00  0.4000E-03
    -16.626  0.0000E+00  0.4000E-03
    -16.548  0.0000E+00  0.4000E-03
    -16.471  0.0000E+00  0.4000E-03
    -16.393  0.0000E+00  0.4000E-03
    -16.316  0.0000E+00  0.4000E-03
    -16.239  0.0000E+00  0.4000E-03
    -16.161  0.1434E-18  0.4000E-03
    -16.084  0.4913E-15  0.4000E-03
    -16.006  0.9226E-12  0.4000E-03
    -15.929  0.5433E-09  0.4000E-03
    -15.852  0.1017E-06  0.4000E-03
    -15.774  0.6168E-05  0.4005E-03
    -15.697  0.1239E-03  0.4101E-03
    -15.619  0.8449E-03  0.4755E-03
    -15.542  0.1999E-02  0.6302E-03
    -15.465  0.1661E-02  0.7587E-03
    -15.387  0.4831E-03  0.7961E-03
    -15.310  0.4842E-04  0.7999E-03
    -15.232  0.1666E-05  0.8000E-03
    -15.155  0.2752E-05  0.8002E-03
    -15.078  0.7540E-04  0.8060E-03
    -15.000  0.7173E-03  0.8616E-03
    -14.923  0.2686E-02  0.1069E-02
    -14.845  0.5174E-02  0.1470E-02
    -14.768  0.6366E-02  0.1963E-02
    -14.691  0.4309E-02  0.2296E-02
    -14.613  0.1619E-02  0.2421E-02
    -14.536  0.2306E-02  0.2600E-02
    -14.458  0.4510E-02  0.2949E-02
    -14.381  0.5163E-02  0.3349E-02
    -14.304  0.6513E-02  0.3853E-02
    -14.226  0.5254E-02  0.4259E-02
    -14.149  0.1666E-02  0.4388E-02
    -14.071  0.6580E-03  0.4439E-02
    -13.994  0.2542E-02  0.4636E-02
    -13.917  0.5840E-02  0.5088E-02
    -13.839  0.1003E-01  0.5864E-02
    -13.762  0.1420E-01  0.6963E-02
    -13.684  0.1119E-01  0.7829E-02
    -13.607  0.7352E-02  0.8398E-02
    -13.530  0.8708E-02  0.9072E-02
    -13.452  0.9660E-02  0.9819E-02
    -13.375  0.7618E-02  0.1041E-01
    -13.297  0.3959E-02  0.1072E-01
    -13.220  0.9962E-03  0.1079E-01
    -13.143  0.9510E-04  0.1080E-01
    -13.065  0.3116E-05  0.1080E-01
    -12.988  0.3361E-07  0.1080E-01
    -12.910  0.1165E-09  0.1080E-01
    -12.833  0.1276E-12  0.1080E-01
    -12.756  0.4361E-16  0.1080E-01
    -12.678  0.0000E+00  0.1080E-01
    -12.601  0.0000E+00  0.1080E-01
    -12.523  0.0000E+00  0.1080E-01
    -12.446  0.0000E+00  0.1080E-01
    -12.369  0.0000E+00  0.1080E-01
    -12.291  0.0000E+00  0.1080E-01
    -12.214  0.0000E+00  0.1080E-01
    -12.136  0.0000E+00  0.1080E-01
    -12.059  0.0000E+00  0.1080E-01
    -11.982  0.0000E+00  0.1080E-01
    -11.904  0.0000E+00  0.1080E-01
    -11.827  0.0000E+00  0.1080E-01
    -11.749  0.0000E+00  0.1080E-01
    -11.672  0.0000E+00  0.1080E-01
    -11.595  0.0000E+00  0.1080E-01
    -11.517  0.0000E+00  0.1080E-01
    -11.440  0.0000E+00  0.1080E-01
    -11.363  0.0000E+00  0.1080E-01
    -11.285  0.0000E+00  0.1080E-01
    -11.208  0.2354E-15  0.1080E-01
    -11.130  0.4995E-12  0.1080E-01
    -11.053  0.3320E-09  0.1080E-01
    -10.976  0.6990E-07  0.1080E-01
    -10.898  0.4732E-05  0.1080E-01
    -10.821  0.1049E-03  0.1081E-01
    -10.743  0.7793E-03  0.1087E-01
    -10.666  0.1983E-02  0.1102E-01
    -10.589  0.1896E-02  0.1117E-01
    -10.511  0.1663E-02  0.1130E-01
    -10.434  0.2900E-02  0.1152E-01
    -10.356  0.2616E-02  0.1172E-01
    -10.279  0.8800E-03  0.1179E-01
    -10.202  0.2633E-03  0.1181E-01
    -10.124  0.7207E-03  0.1187E-01
    -10.047  0.1064E-02  0.1195E-01
     -9.969  0.5338E-03  0.1199E-01
     -9.892  0.8976E-04  0.1200E-01
     -9.815  0.4968E-05  0.1200E-01
     -9.737  0.8869E-07  0.1200E-01
     -9.660  0.5019E-09  0.1200E-01
     -9.582  0.8888E-12  0.1200E-01
     -9.505  0.4880E-15  0.1200E-01
     -9.428  0.0000E+00  0.1200E-01
     -9.350  0.0000E+00  0.1200E-01
     -9.273  0.0000E+00  0.1200E-01
     -9.195  0.0000E+00  0.1200E-01
     -9.118  0.0000E+00  0.1200E-01
     -9.041  0.0000E+00  0.1200E-01
     -8.963  0.0000E+00  0.1200E-01
     -8.886  0.0000E+00  0.1200E-01
     -8.808  0.0000E+00  0.1200E-01
     -8.731  0.0000E+00  0.1200E-01
     -8.654  0.0000E+00  0.1200E-01
     -8.576  0.0000E+00  0.1200E-01
     -8.499  0.0000E+00  0.1200E-01
     -8.421  0.0000E+00  0.1200E-01
     -8.344  0.0000E+00  0.1200E-01
     -8.267  0.4303E-18  0.1200E-01
     -8.189  0.2352E-14  0.1200E-01
     -8.112  0.3399E-11  0.1200E-01
     -8.034  0.1525E-08  0.1200E-01
     -7.957  0.2147E-06  0.1200E-01
     -7.880  0.9606E-05  0.1200E-01
     -7.802  0.1392E-03  0.1201E-01
     -7.725  0.6665E-03  0.1206E-01
     -7.647  0.1072E-02  0.1215E-01
     -7.570  0.5833E-03  0.1219E-01
     -7.493  0.1087E-03  0.1220E-01
     -7.415  0.7718E-04  0.1221E-01
     -7.338  0.7527E-03  0.1226E-01
     -7.260  0.2876E-02  0.1249E-01
     -7.183  0.4301E-02  0.1282E-01
     -7.106  0.3438E-02  0.1309E-01
     -7.028  0.2824E-02  0.1330E-01
     -6.951  0.2711E-02  0.1351E-01
     -6.873  0.3349E-02  0.1377E-01
     -6.796  0.6194E-02  0.1425E-01
     -6.719  0.1120E-01  0.1512E-01
     -6.641  0.1040E-01  0.1592E-01
     -6.564  0.7314E-02  0.1649E-01
     -6.486  0.1228E-01  0.1744E-01
     -6.409  0.1652E-01  0.1872E-01
     -6.332  0.1362E-01  0.1977E-01
     -6.254  0.8655E-02  0.2044E-01
     -6.177  0.3700E-02  0.2073E-01
     -6.099  0.8240E-03  0.2079E-01
     -6.022  0.7825E-04  0.2080E-01
     -5.945  0.2857E-05  0.2080E-01
     -5.867  0.7188E-05  0.2080E-01
     -5.790  0.1717E-03  0.2081E-01
     -5.712  0.1423E-02  0.2092E-01
     -5.635  0.4345E-02  0.2126E-01
     -5.558  0.5535E-02  0.2169E-01
     -5.480  0.4704E-02  0.2205E-01
     -5.403  0.9688E-02  0.2280E-01
     -5.325  0.2109E-01  0.2444E-01
     -5.248  0.2089E-01  0.2605E-01
     -5.171  0.8480E-02  0.2671E-01
     -5.093  0.2514E-02  0.2690E-01
     -5.016  0.3734E-02  0.2719E-01
     -4.938  0.3761E-02  0.2748E-01
     -4.861  0.1547E-02  0.2760E-01
     -4.784  0.2207E-02  0.2777E-01
     -4.706  0.7497E-02  0.2835E-01
     -4.629  0.1063E-01  0.2918E-01
     -4.551  0.7923E-02  0.2979E-01
     -4.474  0.7556E-02  0.3037E-01
     -4.397  0.8906E-02  0.3106E-01
     -4.319  0.9165E-02  0.3177E-01
     -4.242  0.6370E-02  0.3227E-01
     -4.164  0.3597E-02  0.3254E-01
     -4.087  0.5044E-02  0.3294E-01
     -4.010  0.6512E-02  0.3344E-01
     -3.932  0.6192E-02  0.3392E-01
     -3.855  0.5547E-02  0.3435E-01
     -3.777  0.4304E-02  0.3468E-01
     -3.700  0.2436E-02  0.3487E-01
     -3.623  0.2331E-02  0.3505E-01
     -3.545  0.2177E-02  0.3522E-01
     -3.468  0.3223E-02  0.3547E-01
     -3.390  0.5760E-02  0.3591E-01
     -3.313  0.9046E-02  0.3661E-01
     -3.236  0.1401E-01  0.3770E-01
     -3.158  0.1446E-01  0.3882E-01
     -3.081  0.1076E-01  0.3965E-01
     -3.003  0.8206E-02  0.4029E-01
     -2.926  0.7021E-02  0.4083E-01
     -2.849  0.8807E-02  0.4151E-01
     -2.771  0.1122E-01  0.4238E-01
     -2.694  0.8358E-02  0.4303E-01
     -2.616  0.3631E-02  0.4331E-01
     -2.539  0.2843E-02  0.4353E-01
     -2.462  0.6301E-02  0.4401E-01
     -2.384  0.9727E-02  0.4477E-01
     -2.307  0.8415E-02  0.4542E-01
     -2.229  0.5266E-02  0.4583E-01
     -2.152  0.5179E-02  0.4623E-01
     -2.075  0.6213E-02  0.4671E-01
     -1.997  0.5530E-02  0.4714E-01
     -1.920  0.5055E-02  0.4753E-01
     -1.842  0.2898E-02  0.4775E-01
     -1.765  0.1233E-02  0.4785E-01
     -1.688  0.2787E-02  0.4806E-01
     -1.610  0.4308E-02  0.4840E-01
     -1.533  0.2870E-02  0.4862E-01
     -1.455  0.2229E-02  0.4879E-01
     -1.378  0.1923E-02  0.4894E-01
     -1.301  0.6922E-03  0.4899E-01
     -1.223  0.8679E-04  0.4900E-01
     -1.146  0.3668E-05  0.4900E-01
     -1.068  0.5101E-07  0.4900E-01
     -0.991  0.2287E-09  0.4900E-01
     -0.914  0.3251E-12  0.4900E-01
     -0.836  0.1446E-15  0.4900E-01
     -0.759  0.0000E+00  0.4900E-01
     -0.682  0.0000E+00  0.4900E-01
     -0.604  0.0000E+00  0.4900E-01
     -0.527  0.0000E+00  0.4900E-01
     -0.449  0.0000E+00  0.4900E-01
     -0.372  0.0000E+00  0.4900E-01
     -0.295  0.0000E+00  0.4900E-01
     -0.217  0.2869E-18  0.4900E-01
     -0.140  0.1205E-14  0.4900E-01
     -0.062  0.2179E-11  0.4900E-01
      0.015  0.1241E-08  0.4900E-01
      0.092  0.2268E-06  0.4900E-01
      0.170  0.1367E-04  0.4900E-01
      0.247  0.2819E-03  0.4902E-01
      0.325  0.2063E-02  0.4918E-01
      0.402  0.5541E-02  0.4961E-01
      0.479  0.5918E-02  0.5007E-01
      0.557  0.4681E-02  0.5043E-01
      0.634  0.7564E-02  0.5102E-01
      0.712  0.1379E-01  0.5208E-01
      0.789  0.1666E-01  0.5337E-01
      0.866  0.1417E-01  0.5447E-01
      0.944  0.1266E-01  0.5545E-01
      1.021  0.7456E-02  0.5603E-01
      1.099  0.2256E-02  0.5620E-01
      1.176  0.2276E-02  0.5638E-01
      1.253  0.6956E-02  0.5692E-01
      1.331  0.1125E-01  0.5779E-01
      1.408  0.1145E-01  0.5867E-01
      1.486  0.9433E-02  0.5940E-01
      1.563  0.5713E-02  0.5985E-01
      1.640  0.1765E-02  0.5998E-01
      1.718  0.2173E-03  0.6000E-01
      1.795  0.9591E-05  0.6000E-01
      1.873  0.1443E-06  0.6000E-01
      1.950  0.7178E-09  0.6000E-01
      2.027  0.1153E-11  0.6000E-01
      2.105  0.5887E-15  0.6000E-01
      2.182  0.0000E+00  0.6000E-01
      2.260  0.0000E+00  0.6000E-01
      2.337  0.0000E+00  0.6000E-01
      2.414  0.0000E+00  0.6000E-01
      2.492  0.0000E+00  0.6000E-01
      2.569  0.0000E+00  0.6000E-01
