 running on   36 total cores
 distrk:  each k-point on   36 cores,    1 groups
 distr:  one band on    3 cores,   12 groups
 using from now: INCAR     
 vasp.5.4.1 05Feb16 (build Apr 21 2017 13:36:42) gamma-only                     
  
 POSCAR found :  5 types and      93 ions
 scaLAPACK will be used
 LDA part: xc-table for Pade appr. of Perdew
 POSCAR found :  5 types and      93 ions
 POSCAR, INCAR and KPOINTS ok, starting setup
 FFT: planning ...
 WAVECAR not read
 entering main loop
       N       E                     dE             d eps       ncg     rms          rms(c)
DAV:   1     0.436085588778E+04    0.43609E+04   -0.18212E+05   612   0.112E+03
DAV:   2    -0.222917341993E+02   -0.43831E+04   -0.42307E+04   948   0.266E+02
DAV:   3    -0.678201968423E+03   -0.65591E+03   -0.64821E+03   720   0.113E+02
DAV:   4    -0.709716999911E+03   -0.31515E+02   -0.31340E+02   828   0.269E+01
DAV:   5    -0.710799699573E+03   -0.10827E+01   -0.10780E+01   888   0.528E+00    0.122E+02
DAV:   6    -0.690966841598E+03    0.19833E+02   -0.57675E+02   780   0.353E+01    0.780E+01
DAV:   7    -0.712219966419E+03   -0.21253E+02   -0.33460E+02   816   0.495E+01    0.636E+01
DAV:   8    -0.734677049791E+03   -0.22457E+02   -0.28367E+02   864   0.192E+01    0.680E+01
DAV:   9    -0.780404729160E+03   -0.45728E+02   -0.91178E+02   816   0.163E+01    0.862E+01
DAV:  10    -0.687508971507E+03    0.92896E+02   -0.37721E+02   840   0.151E+01    0.343E+01
DAV:  11    -0.664724070138E+03    0.22785E+02   -0.97848E+01   840   0.160E+01    0.250E+01
DAV:  12    -0.659081186310E+03    0.56429E+01   -0.41896E+01   840   0.938E+00    0.263E+01
DAV:  13    -0.659324292101E+03   -0.24311E+00   -0.23421E+00   792   0.181E+00    0.256E+01
DAV:  14    -0.659497682384E+03   -0.17339E+00   -0.15578E-01   900   0.739E-01    0.243E+01
DAV:  15    -0.659482103658E+03    0.15579E-01   -0.66118E-02   840   0.472E-01    0.225E+01
DAV:  16    -0.662181554734E+03   -0.26995E+01   -0.27941E+01   840   0.271E+00    0.208E+01
DAV:  17    -0.660351484413E+03    0.18301E+01   -0.10956E+01   828   0.367E+00    0.233E+01
DAV:  18    -0.658493868814E+03    0.18576E+01   -0.50738E+00   900   0.473E+00    0.168E+01
DAV:  19    -0.658875390905E+03   -0.38152E+00   -0.77999E+00   840   0.200E+00    0.306E+01
DAV:  20    -0.657302596362E+03    0.15728E+01   -0.33599E+01   876   0.192E+00    0.143E+01
DAV:  21    -0.656942962383E+03    0.35963E+00   -0.10790E+00   828   0.107E+00    0.114E+01
DAV:  22    -0.656744551685E+03    0.19841E+00   -0.12619E-01   876   0.524E-01    0.919E+00
DAV:  23    -0.656693235207E+03    0.51316E-01   -0.14690E-01   792   0.275E-01    0.908E+00
DAV:  24    -0.656629712770E+03    0.63522E-01   -0.69738E-01   768   0.627E-01    0.651E+00
DAV:  25    -0.656619676341E+03    0.10036E-01   -0.24831E-02   708   0.204E-01    0.636E+00
DAV:  26    -0.656627035385E+03   -0.73590E-02   -0.65592E-03   744   0.141E-01    0.689E+00
DAV:  27    -0.656692902414E+03   -0.65867E-01   -0.17548E-02   792   0.223E-01    0.655E+00
DAV:  28    -0.656651555626E+03    0.41347E-01   -0.45447E-03   804   0.145E-01    0.633E+00
DAV:  29    -0.656574943066E+03    0.76613E-01   -0.32999E-02   852   0.278E-01    0.555E+00
DAV:  30    -0.656488827606E+03    0.86115E-01   -0.68161E-01   852   0.670E-01    0.285E+00
DAV:  31    -0.656476164074E+03    0.12664E-01   -0.14325E-01   792   0.275E-01    0.323E+00
DAV:  32    -0.656457766295E+03    0.18398E-01   -0.13631E-02   744   0.175E-01    0.263E+00
DAV:  33    -0.656445644714E+03    0.12122E-01   -0.36976E-02   864   0.261E-01    0.265E+00
DAV:  34    -0.656426475508E+03    0.19169E-01   -0.21364E-02   780   0.163E-01    0.151E+00
DAV:  35    -0.656421061679E+03    0.54138E-02   -0.35525E-03   828   0.893E-02    0.153E+00
DAV:  36    -0.656411192578E+03    0.98691E-02   -0.21731E-02   804   0.706E-02    0.917E-01
DAV:  37    -0.656405331274E+03    0.58613E-02   -0.92837E-03   792   0.891E-02    0.979E-01
DAV:  38    -0.656400762846E+03    0.45684E-02   -0.82982E-03   876   0.128E-01    0.112E+00
DAV:  39    -0.656399854398E+03    0.90845E-03   -0.35920E-03   840   0.851E-02    0.122E+00
DAV:  40    -0.656399408409E+03    0.44599E-03   -0.56025E-04   660   0.373E-02    0.130E+00
DAV:  41    -0.656394450745E+03    0.49577E-02   -0.54198E-03   804   0.889E-02    0.481E-01
DAV:  42    -0.656393942841E+03    0.50790E-03   -0.98543E-04   708   0.453E-02    0.600E-01
DAV:  43    -0.656392956107E+03    0.98673E-03   -0.14056E-04   492   0.217E-02    0.535E-01
DAV:  44    -0.656390757312E+03    0.21988E-02   -0.97434E-04   636   0.403E-02    0.327E-01
DAV:  45    -0.656390450568E+03    0.30674E-03   -0.20253E-04   552   0.245E-02    0.388E-01
DAV:  46    -0.656389612917E+03    0.83765E-03   -0.29190E-04   420   0.196E-02    0.256E-01
DAV:  47    -0.656389302341E+03    0.31058E-03   -0.10786E-04   432   0.189E-02    0.225E-01
DAV:  48    -0.656389644290E+03   -0.34195E-03   -0.20071E-04   432   0.222E-02    0.334E-01
DAV:  49    -0.656389534116E+03    0.11017E-03   -0.18958E-04   420   0.204E-02    0.288E-01
DAV:  50    -0.656389523060E+03    0.11056E-04   -0.73948E-04   660   0.427E-02
   1 F= -.67141558E+03 E0= -.67135516E+03  d E =-.671416E+03
 curvature:   0.00 expect dE= 0.000E+00 dE for cont linesearch  0.000E+00
 trial: gam= 0.00000 g(F)=  0.158E+00 g(S)=  0.000E+00 ort = 0.000E+00 (trialstep = 0.100E+01)
 search vector abs. value=  0.158E+00
 bond charge predicted
       N       E                     dE             d eps       ncg     rms          rms(c)
DAV:   1    -0.656408413569E+03   -0.18879E-01   -0.12050E+01   600   0.525E+00    0.278E+00
DAV:   2    -0.656738654330E+03   -0.33024E+00   -0.10989E+00   780   0.196E+00    0.525E+00
DAV:   3    -0.656531784412E+03    0.20687E+00   -0.19599E+00   840   0.219E+00    0.456E+00
DAV:   4    -0.656520208360E+03    0.11576E-01   -0.21313E+00   828   0.843E-01    0.295E+00
DAV:   5    -0.656455505668E+03    0.64703E-01   -0.39547E-02   816   0.438E-01    0.850E-01
DAV:   6    -0.656466112144E+03   -0.10606E-01   -0.56741E-01   780   0.349E-01    0.116E+00
DAV:   7    -0.656462748524E+03    0.33636E-02   -0.19647E-01   780   0.401E-01    0.274E+00
DAV:   8    -0.656450080118E+03    0.12668E-01   -0.24293E-02   816   0.131E-01    0.160E+00
DAV:   9    -0.656442743125E+03    0.73370E-02   -0.16085E-02   828   0.969E-02    0.222E-01
DAV:  10    -0.656442668992E+03    0.74133E-04   -0.16204E-03   660   0.551E-02    0.122E-01
DAV:  11    -0.656442741138E+03   -0.72146E-04   -0.14760E-04   456   0.207E-02
   2 F= -.67149010E+03 E0= -.67142889E+03  d E =-.745257E-01
 trial-energy change:   -0.074526  1 .order   -0.072535   -0.158216    0.013145
 step:   0.9279(harm=  0.9233)  dis= 0.00933  next Energy=  -671.490576 (dE=-0.750E-01)
 bond charge predicted
       N       E                     dE             d eps       ncg     rms          rms(c)
DAV:   1    -0.656444588392E+03   -0.19194E-02   -0.61936E-02   624   0.377E-01    0.201E-01
DAV:   2    -0.656453727805E+03   -0.91394E-02   -0.57143E-02   792   0.175E-01    0.195E+00
DAV:   3    -0.656446193746E+03    0.75341E-02   -0.67200E-02   708   0.178E-01    0.571E-01
DAV:   4    -0.656445079068E+03    0.11147E-02   -0.20850E-03   540   0.598E-02    0.255E-01
DAV:   5    -0.656444936488E+03    0.14258E-03   -0.93378E-04   516   0.396E-02    0.104E-01
DAV:   6    -0.656444820969E+03    0.11552E-03   -0.22557E-04   516   0.296E-02    0.199E-01
DAV:   7    -0.656444853599E+03   -0.32630E-04   -0.85640E-05   384   0.167E-02
   3 F= -.67149063E+03 E0= -.67142990E+03  d E =-.750546E-01
 curvature:  -0.46 expect dE=-0.960E-02 dE for cont linesearch -0.431E-05
 trial: gam= 0.13966 g(F)=  0.209E-01 g(S)=  0.000E+00 ort =-0.122E-02 (trialstep = 0.986E+00)
 search vector abs. value=  0.236E-01
 bond charge predicted
       N       E                     dE             d eps       ncg     rms          rms(c)
DAV:   1    -0.656429692498E+03    0.15128E-01   -0.21777E+00   600   0.203E+00    0.884E-01
DAV:   2    -0.656515900497E+03   -0.86208E-01   -0.17574E-01   852   0.723E-01    0.335E+00
DAV:   3    -0.656443064123E+03    0.72836E-01   -0.18722E-01   852   0.859E-01    0.166E+00
DAV:   4    -0.656443678508E+03   -0.61438E-03   -0.69627E-02   792   0.214E-01    0.167E+00
DAV:   5    -0.656435653477E+03    0.80250E-02   -0.92947E-03   840   0.123E-01    0.396E-01
DAV:   6    -0.656440833506E+03   -0.51800E-02   -0.33414E-02   756   0.127E-01    0.168E+00
DAV:   7    -0.656439469276E+03    0.13642E-02   -0.40021E-03   636   0.522E-02    0.144E+00
DAV:   8    -0.656438255861E+03    0.12134E-02   -0.80300E-04   600   0.359E-02    0.128E+00
DAV:   9    -0.656434855388E+03    0.34005E-02   -0.10147E-02   576   0.505E-02    0.492E-01
DAV:  10    -0.656434257716E+03    0.59767E-03   -0.10059E-03   612   0.352E-02    0.812E-02
DAV:  11    -0.656434370669E+03   -0.11295E-03   -0.93979E-05   420   0.168E-02    0.135E-01
DAV:  12    -0.656434353199E+03    0.17470E-04   -0.21657E-05   336   0.828E-03
   4 F= -.67148813E+03 E0= -.67142621E+03  d E =0.250603E-02
 trial-energy change:    0.002506  1 .order    0.002947   -0.020410    0.026303
 step:   0.4444(harm=  0.4306)  dis= 0.00402  next Energy=  -671.495274 (dE=-0.464E-02)
 bond charge predicted
       N       E                     dE             d eps       ncg     rms          rms(c)
DAV:   1    -0.656444860185E+03   -0.10490E-01   -0.65489E-01   600   0.111E+00    0.523E-01
DAV:   2    -0.656505657700E+03   -0.60798E-01   -0.59549E-01   840   0.463E-01    0.389E+00
DAV:   3    -0.656452814925E+03    0.52843E-01   -0.45693E-01   816   0.435E-01    0.117E+00
DAV:   4    -0.656447731635E+03    0.50833E-02   -0.10055E-02   732   0.122E-01    0.685E-01
DAV:   5    -0.656446569327E+03    0.11623E-02   -0.52884E-03   780   0.671E-02    0.180E-01
DAV:   6    -0.656447101125E+03   -0.53180E-03   -0.20260E-03   732   0.720E-02    0.344E-01
DAV:   7    -0.656446887576E+03    0.21355E-03   -0.15034E-03   720   0.607E-02    0.630E-01
DAV:   8    -0.656446727571E+03    0.16000E-03   -0.15923E-04   444   0.204E-02    0.574E-01
DAV:   9    -0.656446235290E+03    0.49228E-03   -0.11446E-04   360   0.153E-02    0.369E-01
DAV:  10    -0.656445977562E+03    0.25773E-03   -0.13860E-04   408   0.132E-02    0.161E-01
DAV:  11    -0.656445955922E+03    0.21640E-04   -0.47388E-05   372   0.865E-03
   5 F= -.67149532E+03 E0= -.67143401E+03  d E =-.468903E-02
 curvature:  -0.25 expect dE=-0.401E-02 dE for cont linesearch -0.155E-05
 trial: gam= 0.80166 g(F)=  0.163E-01 g(S)=  0.000E+00 ort =-0.386E-03 (trialstep = 0.671E+00)
 search vector abs. value=  0.309E-01
 bond charge predicted
       N       E                     dE             d eps       ncg     rms          rms(c)
DAV:   1    -0.656441852654E+03    0.41249E-02   -0.13500E+00   600   0.168E+00    0.617E-01
DAV:   2    -0.656479035587E+03   -0.37183E-01   -0.75473E-02   804   0.441E-01    0.286E+00
DAV:   3    -0.656450817077E+03    0.28219E-01   -0.96595E-02   816   0.434E-01    0.137E+00
DAV:   4    -0.656451002961E+03   -0.18588E-03   -0.44364E-02   756   0.173E-01    0.150E+00
DAV:   5    -0.656445695030E+03    0.53079E-02   -0.53118E-03   756   0.996E-02    0.229E-01
DAV:   6    -0.656446739393E+03   -0.10444E-02   -0.87500E-03   720   0.104E-01    0.797E-01
DAV:   7    -0.656445807167E+03    0.93223E-03   -0.26604E-03   684   0.514E-02    0.687E-01
DAV:   8    -0.656445473420E+03    0.33375E-03   -0.11930E-04   384   0.211E-02    0.612E-01
DAV:   9    -0.656444715309E+03    0.75811E-03   -0.77474E-04   492   0.250E-02    0.206E-01
DAV:  10    -0.656444631643E+03    0.83666E-04   -0.12361E-04   396   0.142E-02
   6 F= -.67149963E+03 E0= -.67143766E+03  d E =-.431031E-02
 trial-energy change:   -0.004310  1 .order   -0.004155   -0.010754    0.002444
 step:   0.5464(harm=  0.5464)  dis= 0.00333  next Energy=  -671.499703 (dE=-0.438E-02)
 bond charge predicted
       N       E                     dE             d eps       ncg     rms          rms(c)
DAV:   1    -0.656445827663E+03   -0.11124E-02   -0.46147E-02   600   0.311E-01    0.993E-02
DAV:   2    -0.656445943131E+03   -0.11547E-03   -0.14082E-03   720   0.639E-02    0.109E-01
DAV:   3    -0.656446502866E+03   -0.55973E-03   -0.88743E-04   480   0.407E-02    0.490E-01
DAV:   4    -0.656446032356E+03    0.47051E-03   -0.11743E-03   480   0.439E-02    0.196E-01
DAV:   5    -0.656446026472E+03    0.58833E-05   -0.41860E-04   408   0.243E-02
   7 F= -.67149997E+03 E0= -.67143856E+03  d E =-.465308E-02
 curvature:  -0.53 expect dE=-0.168E-02 dE for cont linesearch -0.650E-05
 trial: gam= 0.16864 g(F)=  0.318E-02 g(S)=  0.000E+00 ort =-0.618E-03 (trialstep = 0.646E+00)
 search vector abs. value=  0.385E-02
 bond charge predicted
       N       E                     dE             d eps       ncg     rms          rms(c)
DAV:   1    -0.656446880028E+03   -0.84767E-03   -0.16570E-01   600   0.441E-01    0.113E-01
DAV:   2    -0.656447731454E+03   -0.85143E-03   -0.48684E-03   804   0.108E-01    0.447E-01
DAV:   3    -0.656447599934E+03    0.13152E-03   -0.20973E-03   576   0.577E-02    0.452E-01
DAV:   4    -0.656447365313E+03    0.23462E-03   -0.41685E-04   492   0.301E-02    0.250E-01
DAV:   5    -0.656447455492E+03   -0.90179E-04   -0.32174E-04   444   0.287E-02
   8 F= -.67150193E+03 E0= -.67144135E+03  d E =-.195347E-02
 trial-energy change:   -0.001953  1 .order   -0.001716   -0.001988   -0.001444
 step:   2.3609(harm=  2.3609)  dis= 0.00716  next Energy=  -671.503609 (dE=-0.363E-02)
 bond charge predicted
       N       E                     dE             d eps       ncg     rms          rms(c)
DAV:   1    -0.656445424865E+03    0.19404E-02   -0.11520E+00   600   0.117E+00    0.360E-01
DAV:   2    -0.656467410668E+03   -0.21986E-01   -0.21530E-01   840   0.384E-01    0.267E+00
DAV:   3    -0.656451886104E+03    0.15525E-01   -0.25558E-01   804   0.258E-01    0.120E+00
DAV:   4    -0.656448912608E+03    0.29735E-02   -0.33846E-03   648   0.788E-02    0.843E-01
DAV:   5    -0.656450085224E+03   -0.11726E-02   -0.11627E-03   768   0.510E-02    0.115E+00
DAV:   6    -0.656450813420E+03   -0.72820E-03   -0.74130E-04   660   0.467E-02    0.123E+00
DAV:   7    -0.656449436409E+03    0.13770E-02   -0.36108E-04   648   0.355E-02    0.101E+00
DAV:   8    -0.656447501462E+03    0.19349E-02   -0.59192E-04   492   0.389E-02    0.501E-01
DAV:   9    -0.656447130827E+03    0.37063E-03   -0.24999E-04   492   0.257E-02    0.325E-01
DAV:  10    -0.656447066537E+03    0.64291E-04   -0.52029E-05   396   0.131E-02
   9 F= -.67150297E+03 E0= -.67144209E+03  d E =-.299287E-02
 curvature:  -1.48 expect dE=-0.242E-01 dE for cont linesearch -0.232E-03
 ZBRENT: interpolating
 opt :   1.9184  next Energy=  -671.503139 (dE=-0.316E-02)
 bond charge predicted
       N       E                     dE             d eps       ncg     rms          rms(c)
DAV:   1    -0.656447540624E+03   -0.40980E-03   -0.77489E-02   600   0.304E-01    0.284E-01
DAV:   2    -0.656494807714E+03   -0.47267E-01   -0.45974E-01   864   0.320E-01    0.372E+00
DAV:   3    -0.656450563839E+03    0.44244E-01   -0.30596E-01   792   0.351E-01    0.321E-01
DAV:   4    -0.656448834238E+03    0.17296E-02   -0.55180E-03   672   0.800E-02    0.794E-01
DAV:   5    -0.656447968227E+03    0.86601E-03   -0.86285E-04   468   0.271E-02    0.481E-01
DAV:   6    -0.656447667876E+03    0.30035E-03   -0.15160E-04   408   0.149E-02    0.327E-01
DAV:   7    -0.656447566526E+03    0.10135E-03   -0.59762E-04   504   0.289E-02    0.668E-02
DAV:   8    -0.656447465685E+03    0.10084E-03   -0.10912E-04   396   0.194E-02    0.211E-02
DAV:   9    -0.656447476336E+03   -0.10651E-04   -0.58521E-05   360   0.132E-02
  10 F= -.67150300E+03 E0= -.67144150E+03  d E =-.302925E-02
 curvature:  -1.10 expect dE=-0.119E-01 dE for cont linesearch -0.606E-07
 trial: gam= 3.40032 g(F)=  0.108E-01 g(S)=  0.000E+00 ort =-0.146E-04 (trialstep = 0.628E-01)
 search vector abs. value=  0.553E-01
 bond charge predicted
       N       E                     dE             d eps       ncg     rms          rms(c)
DAV:   1    -0.656447859734E+03   -0.39405E-03   -0.21257E-02   564   0.152E-01    0.358E-02
DAV:   2    -0.656447939425E+03   -0.79691E-04   -0.52856E-04   540   0.306E-02
  11 F= -.67150368E+03 E0= -.67144231E+03  d E =-.680950E-03
 ZBRENT: can't locate minimum, use default step
 trial-energy change:   -0.000681  1 .order   -0.000620   -0.000676   -0.000563
 step:   0.2510(harm=  0.3758)  dis= 0.00280  next Energy=  -671.505028 (dE=-0.202E-02)
 bond charge predicted
       N       E                     dE             d eps       ncg     rms          rms(c)
DAV:   1    -0.656448401429E+03   -0.54169E-03   -0.19120E-01   600   0.456E-01    0.180E-01
DAV:   2    -0.656460981929E+03   -0.12581E-01   -0.16567E-02   912   0.177E-01    0.208E+00
DAV:   3    -0.656449303735E+03    0.11678E-01   -0.11362E-02   756   0.176E-01    0.121E-01
DAV:   4    -0.656449730141E+03   -0.42641E-03   -0.16603E-03   504   0.610E-02    0.733E-01
DAV:   5    -0.656448956708E+03    0.77343E-03   -0.39370E-04   420   0.325E-02    0.411E-01
DAV:   6    -0.656448682539E+03    0.27417E-03   -0.95543E-04   588   0.485E-02    0.194E-01
DAV:   7    -0.656448591179E+03    0.91360E-04   -0.15052E-04   468   0.245E-02
  12 F= -.67150499E+03 E0= -.67144340E+03  d E =-.199129E-02
 curvature:  -0.81 expect dE=-0.225E-02 dE for cont linesearch -0.327E-03
 ZBRENT: increasing intervall
 opt :   0.6275  next Energy=  -671.505171 (dE=-0.217E-02)
 bond charge predicted
       N       E                     dE             d eps       ncg     rms          rms(c)
DAV:   1    -0.656446059562E+03    0.26230E-02   -0.75943E-01   600   0.913E-01    0.289E-01
DAV:   2    -0.656466917002E+03   -0.20857E-01   -0.35851E-02   852   0.267E-01    0.248E+00
DAV:   3    -0.656448577058E+03    0.18340E-01   -0.24413E-02   816   0.283E-01    0.352E-01
DAV:   4    -0.656449724620E+03   -0.11476E-02   -0.55079E-03   600   0.997E-02    0.108E+00
DAV:   5    -0.656447507997E+03    0.22166E-02   -0.14174E-03   684   0.553E-02    0.359E-01
DAV:   6    -0.656447452654E+03    0.55343E-04   -0.16252E-03   684   0.613E-02    0.272E-01
DAV:   7    -0.656447205446E+03    0.24721E-03   -0.41127E-04   612   0.382E-02    0.673E-02
DAV:   8    -0.656447096498E+03    0.10895E-03   -0.77382E-05   396   0.208E-02    0.101E-01
DAV:   9    -0.656447074728E+03    0.21769E-04   -0.28710E-05   324   0.105E-02
  13 F= -.67150482E+03 E0= -.67144285E+03  d E =-.181430E-02
 curvature:  -0.44 expect dE=-0.413E-02 dE for cont linesearch -0.213E-03
 ZBRENT: bracketing found
 ZBRENT: interpolating
 opt :   0.4304  next Energy=  -671.505418 (dE=-0.241E-02)
 bond charge predicted
       N       E                     dE             d eps       ncg     rms          rms(c)
DAV:   1    -0.656448030217E+03   -0.93372E-03   -0.20775E-01   600   0.478E-01    0.138E-01
DAV:   2    -0.656452432712E+03   -0.44025E-02   -0.21298E-02   840   0.125E-01    0.138E+00
DAV:   3    -0.656448791757E+03    0.36410E-02   -0.18879E-02   648   0.109E-01    0.229E-01
DAV:   4    -0.656448992459E+03   -0.20070E-03   -0.18696E-03   468   0.557E-02    0.566E-01
DAV:   5    -0.656448478930E+03    0.51353E-03   -0.37923E-04   456   0.269E-02    0.243E-01
DAV:   6    -0.656448461369E+03    0.17561E-04   -0.47957E-04   492   0.316E-02
  14 F= -.67150550E+03 E0= -.67144310E+03  d E =-.249590E-02
 curvature:  -0.87 expect dE=-0.271E-02 dE for cont linesearch -0.596E-06
 trial: gam= 0.33460 g(F)=  0.311E-02 g(S)=  0.000E+00 ort =-0.195E-03 (trialstep = 0.136E+00)
 search vector abs. value=  0.917E-02
 bond charge predicted
       N       E                     dE             d eps       ncg     rms          rms(c)
DAV:   1    -0.656448336754E+03    0.14218E-03   -0.11353E-02   612   0.124E-01    0.907E-02
DAV:   2    -0.656451691205E+03   -0.33545E-02   -0.48200E-03   828   0.994E-02    0.116E+00
DAV:   3    -0.656448733306E+03    0.29579E-02   -0.44504E-03   552   0.971E-02    0.248E-01
DAV:   4    -0.656448450322E+03    0.28298E-03   -0.38959E-04   504   0.362E-02    0.140E-01
DAV:   5    -0.656448383415E+03    0.66907E-04   -0.88718E-05   312   0.195E-02
  15 F= -.67150577E+03 E0= -.67144430E+03  d E =-.274538E-03
 ZBRENT: can't locate minimum, use default step
 trial-energy change:   -0.000275  1 .order   -0.000389   -0.000416   -0.000362
 step:   0.5451(harm=  1.0488)  dis= 0.00250  next Energy=  -671.507099 (dE=-0.160E-02)
 bond charge predicted
       N       E                     dE             d eps       ncg     rms          rms(c)
DAV:   1    -0.656447984764E+03    0.46556E-03   -0.96540E-02   600   0.360E-01    0.109E-01
DAV:   2    -0.656448250690E+03   -0.26593E-03   -0.29586E-03   840   0.908E-02    0.190E-01
DAV:   3    -0.656449332853E+03   -0.10822E-02   -0.25420E-03   552   0.716E-02    0.736E-01
DAV:   4    -0.656448288174E+03    0.10447E-02   -0.47065E-04   456   0.371E-02    0.228E-01
DAV:   5    -0.656448489139E+03   -0.20097E-03   -0.10296E-04   360   0.193E-02    0.395E-01
DAV:   6    -0.656448327449E+03    0.16169E-03   -0.98875E-05   348   0.234E-02    0.298E-01
DAV:   7    -0.656448176034E+03    0.15141E-03   -0.10445E-04   312   0.160E-02    0.174E-01
DAV:   8    -0.656448131197E+03    0.44837E-04   -0.42049E-05   324   0.963E-03
  16 F= -.67150658E+03 E0= -.67144499E+03  d E =-.108212E-02
 curvature:  -1.10 expect dE=-0.224E-02 dE for cont linesearch -0.236E-03
 ZBRENT: increasing intervall
 opt :   1.3628  next Energy=  -671.506711 (dE=-0.121E-02)
 bond charge predicted
       N       E                     dE             d eps       ncg     rms          rms(c)
DAV:   1    -0.656445620834E+03    0.25552E-02   -0.38894E-01   600   0.718E-01    0.244E-01
DAV:   2    -0.656452619669E+03   -0.69988E-02   -0.16588E-02   852   0.178E-01    0.160E+00
DAV:   3    -0.656447662744E+03    0.49569E-02   -0.15152E-02   768   0.185E-01    0.614E-01
DAV:   4    -0.656447814465E+03   -0.15172E-03   -0.62774E-03   600   0.943E-02    0.816E-01
DAV:   5    -0.656446366810E+03    0.14477E-02   -0.88686E-04   540   0.450E-02    0.184E-01
DAV:   6    -0.656446249732E+03    0.11708E-03   -0.41491E-04   504   0.283E-02    0.162E-01
DAV:   7    -0.656446217152E+03    0.32580E-04   -0.96133E-05   312   0.142E-02
  17 F= -.67150680E+03 E0= -.67144498E+03  d E =-.129801E-02
 curvature:  -0.60 expect dE=-0.493E-02 dE for cont linesearch -0.608E-04
 ZBRENT: bracketing found
 ZBRENT: interpolating
 opt :   1.0303  next Energy=  -671.506958 (dE=-0.146E-02)
 bond charge predicted
       N       E                     dE             d eps       ncg     rms          rms(c)
DAV:   1    -0.656447163049E+03   -0.91332E-03   -0.64539E-02   600   0.295E-01    0.125E-01
DAV:   2    -0.656451258169E+03   -0.40951E-02   -0.13888E-02   864   0.105E-01    0.134E+00
DAV:   3    -0.656447782014E+03    0.34762E-02   -0.14899E-02   588   0.116E-01    0.297E-01
DAV:   4    -0.656447705962E+03    0.76052E-04   -0.20471E-03   552   0.557E-02    0.395E-01
DAV:   5    -0.656447409049E+03    0.29691E-03   -0.39534E-04   348   0.272E-02    0.281E-01
DAV:   6    -0.656447331515E+03    0.77534E-04   -0.86553E-05   324   0.153E-02
  18 F= -.67150704E+03 E0= -.67144451E+03  d E =-.154453E-02
 curvature:  -1.58 expect dE=-0.785E-02 dE for cont linesearch -0.195E-05
 trial: gam= 1.52290 g(F)=  0.496E-02 g(S)=  0.000E+00 ort = 0.106E-03 (trialstep = 0.109E+00)
 search vector abs. value=  0.266E-01
 bond charge predicted
       N       E                     dE             d eps       ncg     rms          rms(c)
DAV:   1    -0.656447140206E+03    0.26884E-03   -0.15607E-02   576   0.142E-01    0.122E-01
DAV:   2    -0.656453879031E+03   -0.67388E-02   -0.88511E-03   780   0.130E-01    0.160E+00
DAV:   3    -0.656447795019E+03    0.60840E-02   -0.91877E-03   624   0.146E-01    0.308E-01
DAV:   4    -0.656447355439E+03    0.43958E-03   -0.12092E-03   444   0.415E-02    0.255E-01
DAV:   5    -0.656447187601E+03    0.16784E-03   -0.16975E-04   324   0.193E-02    0.113E-01
DAV:   6    -0.656447152684E+03    0.34917E-04   -0.48010E-05   312   0.121E-02
  19 F= -.67150744E+03 E0= -.67144552E+03  d E =-.393736E-03
 ZBRENT: can't locate minimum, use default step
 trial-energy change:   -0.000394  1 .order   -0.000508   -0.000557   -0.000459
 step:   0.4353(harm=  0.6180)  dis= 0.00391  next Energy=  -671.508626 (dE=-0.158E-02)
 bond charge predicted
       N       E                     dE             d eps       ncg     rms          rms(c)
DAV:   1    -0.656446301738E+03    0.88586E-03   -0.13646E-01   600   0.416E-01    0.183E-01
DAV:   2    -0.656456465018E+03   -0.10163E-01   -0.13755E-02   888   0.167E-01    0.191E+00
DAV:   3    -0.656447441960E+03    0.90231E-02   -0.13528E-02   780   0.196E-01    0.399E-01
DAV:   4    -0.656447150009E+03    0.29195E-03   -0.19698E-03   612   0.629E-02    0.498E-01
DAV:   5    -0.656446647406E+03    0.50260E-03   -0.30221E-04   468   0.357E-02    0.242E-01
DAV:   6    -0.656446485423E+03    0.16198E-03   -0.70787E-04   396   0.365E-02    0.136E-01
DAV:   7    -0.656446465029E+03    0.20395E-04   -0.13280E-04   360   0.163E-02
  20 F= -.67150847E+03 E0= -.67144631E+03  d E =-.142594E-02
 curvature:  -1.40 expect dE=-0.484E-02 dE for cont linesearch -0.264E-03
 ZBRENT: increasing intervall
 opt :   1.0883  next Energy=  -671.508644 (dE=-0.160E-02)
 bond charge predicted
       N       E                     dE             d eps       ncg     rms          rms(c)
DAV:   1    -0.656442493107E+03    0.39923E-02   -0.54774E-01   600   0.838E-01    0.445E-01
DAV:   2    -0.656497489928E+03   -0.54997E-01   -0.80372E-02   900   0.428E-01    0.319E+00
DAV:   3    -0.656445397249E+03    0.52093E-01   -0.67993E-02   828   0.493E-01    0.544E-01
DAV:   4    -0.656445810083E+03   -0.41283E-03   -0.75953E-03   780   0.115E-01    0.106E+00
DAV:   5    -0.656443344352E+03    0.24657E-02   -0.14055E-03   660   0.534E-02    0.310E-01
DAV:   6    -0.656443530384E+03   -0.18603E-03   -0.32899E-03   624   0.647E-02    0.454E-01
DAV:   7    -0.656443221161E+03    0.30922E-03   -0.10090E-03   552   0.354E-02    0.288E-01
DAV:   8    -0.656443385723E+03   -0.16456E-03   -0.36465E-04   384   0.219E-02    0.425E-01
DAV:   9    -0.656443049149E+03    0.33657E-03   -0.32711E-04   372   0.197E-02    0.201E-01
DAV:  10    -0.656442955590E+03    0.93560E-04   -0.14401E-04   348   0.143E-02
  21 F= -.67150841E+03 E0= -.67144646E+03  d E =-.136582E-02
 curvature:  -0.92 expect dE=-0.160E-01 dE for cont linesearch -0.162E-03
 ZBRENT: bracketing found
 ZBRENT: interpolating
 opt :   0.7678  next Energy=  -671.508756 (dE=-0.171E-02)
 bond charge predicted
       N       E                     dE             d eps       ncg     rms          rms(c)
DAV:   1    -0.656444875126E+03   -0.18260E-02   -0.13200E-01   600   0.412E-01    0.148E-01
DAV:   2    -0.656449133563E+03   -0.42584E-02   -0.20204E-02   864   0.118E-01    0.136E+00
DAV:   3    -0.656445826592E+03    0.33070E-02   -0.22898E-02   636   0.133E-01    0.443E-01
DAV:   4    -0.656445334183E+03    0.49241E-03   -0.16831E-03   456   0.550E-02    0.331E-01
DAV:   5    -0.656445070735E+03    0.26345E-03   -0.56981E-04   384   0.271E-02    0.497E-02
DAV:   6    -0.656445079218E+03   -0.84825E-05   -0.19676E-04   348   0.232E-02
  22 F= -.67150884E+03 E0= -.67144718E+03  d E =-.179467E-02
 curvature:  -1.97 expect dE=-0.168E-01 dE for cont linesearch -0.620E-05
 trial: gam= 1.75774 g(F)=  0.851E-02 g(S)=  0.000E+00 ort =-0.289E-03 (trialstep = 0.714E-01)
 search vector abs. value=  0.896E-01
 bond charge predicted
       N       E                     dE             d eps       ncg     rms          rms(c)
DAV:   1    -0.656444940878E+03    0.12986E-03   -0.19369E-02   600   0.168E-01    0.425E-02
DAV:   2    -0.656445065421E+03   -0.12454E-03   -0.64771E-04   492   0.416E-02    0.153E-01
DAV:   3    -0.656445014819E+03    0.50602E-04   -0.32042E-04   360   0.241E-02
  23 F= -.67150940E+03 E0= -.67144796E+03  d E =-.558721E-03
 ZBRENT: can't locate minimum, use default step
 trial-energy change:   -0.000559  1 .order   -0.000540   -0.000571   -0.000509
 step:   0.2854(harm=  0.6553)  dis= 0.00500  next Energy=  -671.511462 (dE=-0.262E-02)
 bond charge predicted
       N       E                     dE             d eps       ncg     rms          rms(c)
DAV:   1    -0.656444332685E+03    0.73274E-03   -0.17149E-01   600   0.498E-01    0.194E-01
DAV:   2    -0.656455108641E+03   -0.10776E-01   -0.14012E-02   876   0.173E-01    0.194E+00
DAV:   3    -0.656445565313E+03    0.95433E-02   -0.15036E-02   768   0.184E-01    0.344E-01
DAV:   4    -0.656444993628E+03    0.57169E-03   -0.35420E-03   684   0.703E-02    0.393E-01
DAV:   5    -0.656444740108E+03    0.25352E-03   -0.51502E-04   576   0.373E-02    0.377E-01
DAV:   6    -0.656444434271E+03    0.30584E-03   -0.52061E-04   540   0.335E-02    0.485E-02
DAV:   7    -0.656444435763E+03   -0.14927E-05   -0.84225E-05   408   0.147E-02
  24 F= -.67151069E+03 E0= -.67144878E+03  d E =-.185146E-02
 curvature:  -2.20 expect dE=-0.881E-02 dE for cont linesearch -0.613E-03
 ZBRENT: increasing intervall
 opt :   0.7136  next Energy=  -671.511919 (dE=-0.308E-02)
 bond charge predicted
       N       E                     dE             d eps       ncg     rms          rms(c)
DAV:   1    -0.656441071635E+03    0.33626E-02   -0.68679E-01   600   0.991E-01    0.366E-01
DAV:   2    -0.656470925964E+03   -0.29854E-01   -0.46650E-02   864   0.319E-01    0.280E+00
DAV:   3    -0.656444404936E+03    0.26521E-01   -0.41878E-02   840   0.354E-01    0.688E-01
DAV:   4    -0.656444376466E+03    0.28471E-04   -0.76530E-03   792   0.113E-01    0.985E-01
DAV:   5    -0.656442444132E+03    0.19323E-02   -0.12930E-03   720   0.616E-02    0.357E-01
DAV:   6    -0.656442380714E+03    0.63419E-04   -0.40272E-03   780   0.840E-02    0.409E-01
DAV:   7    -0.656441953127E+03    0.42759E-03   -0.10315E-03   528   0.338E-02    0.213E-01
DAV:   8    -0.656441927428E+03    0.25699E-04   -0.80271E-05   360   0.150E-02
  25 F= -.67151194E+03 E0= -.67144935E+03  d E =-.309745E-02
 curvature:  -4.40 expect dE=-0.146E-01 dE for cont linesearch -0.213E-04
 trial: gam= 0.32042 g(F)=  0.332E-02 g(S)=  0.000E+00 ort = 0.658E-03 (trialstep = 0.200E+00)
 search vector abs. value=  0.129E-01
 bond charge predicted
       N       E                     dE             d eps       ncg     rms          rms(c)
DAV:   1    -0.656442109284E+03   -0.15616E-03   -0.21993E-02   600   0.198E-01    0.107E-01
DAV:   2    -0.656446618974E+03   -0.45097E-02   -0.65659E-03   792   0.117E-01    0.135E+00
DAV:   3    -0.656442587568E+03    0.40314E-02   -0.65906E-03   624   0.125E-01    0.272E-01
DAV:   4    -0.656442344969E+03    0.24260E-03   -0.91447E-04   456   0.386E-02    0.281E-01
DAV:   5    -0.656442156895E+03    0.18807E-03   -0.11758E-04   384   0.180E-02    0.842E-02
DAV:   6    -0.656442137946E+03    0.18949E-04   -0.59438E-05   348   0.123E-02
  26 F= -.67151244E+03 E0= -.67145059E+03  d E =-.501275E-03
 trial-energy change:   -0.000501  1 .order   -0.000611   -0.000706   -0.000517
 step:   0.7457(harm=  0.7457)  dis= 0.00494  next Energy=  -671.513253 (dE=-0.132E-02)
 bond charge predicted
       N       E                     dE             d eps       ncg     rms          rms(c)
DAV:   1    -0.656441829342E+03    0.32755E-03   -0.16299E-01   600   0.539E-01    0.146E-01
DAV:   2    -0.656442668534E+03   -0.83919E-03   -0.47816E-03   840   0.100E-01    0.491E-01
DAV:   3    -0.656442861361E+03   -0.19283E-03   -0.42540E-03   624   0.843E-02    0.578E-01
DAV:   4    -0.656442329099E+03    0.53226E-03   -0.30295E-03   600   0.629E-02    0.188E-01
DAV:   5    -0.656442083990E+03    0.24511E-03   -0.52680E-04   552   0.347E-02    0.592E-02
DAV:   6    -0.656442038365E+03    0.45625E-04   -0.13780E-04   432   0.191E-02
  27 F= -.67151314E+03 E0= -.67145112E+03  d E =-.119897E-02
 curvature:  -1.37 expect dE=-0.395E-02 dE for cont linesearch -0.102E-05
 trial: gam= 0.88897 g(F)=  0.289E-02 g(S)=  0.000E+00 ort = 0.983E-04 (trialstep = 0.301E+00)
 search vector abs. value=  0.133E-01
 bond charge predicted
       N       E                     dE             d eps       ncg     rms          rms(c)
DAV:   1    -0.656442623852E+03   -0.53986E-03   -0.48416E-02   600   0.304E-01    0.134E-01
DAV:   2    -0.656447268822E+03   -0.46450E-02   -0.25712E-02   828   0.129E-01    0.142E+00
DAV:   3    -0.656443321424E+03    0.39474E-02   -0.28460E-02   624   0.118E-01    0.358E-01
DAV:   4    -0.656442862194E+03    0.45923E-03   -0.79241E-04   432   0.421E-02    0.196E-01
DAV:   5    -0.656442766982E+03    0.95212E-04   -0.13584E-04   336   0.225E-02
  28 F= -.67151382E+03 E0= -.67145197E+03  d E =-.684307E-03
 trial-energy change:   -0.000684  1 .order   -0.000639   -0.000896   -0.000382
 step:   0.5241(harm=  0.5241)  dis= 0.00344  next Energy=  -671.513916 (dE=-0.781E-03)
 bond charge predicted
       N       E                     dE             d eps       ncg     rms          rms(c)
DAV:   1    -0.656442866924E+03   -0.47302E-05   -0.26813E-02   600   0.227E-01    0.125E-01
DAV:   2    -0.656447452488E+03   -0.45856E-02   -0.31937E-02   816   0.122E-01    0.140E+00
DAV:   3    -0.656443596184E+03    0.38563E-02   -0.35386E-02   636   0.119E-01    0.387E-01
DAV:   4    -0.656443135082E+03    0.46110E-03   -0.72293E-04   660   0.508E-02    0.135E-01
DAV:   5    -0.656442888078E+03    0.24700E-03   -0.18065E-04   372   0.260E-02    0.456E-02
DAV:   6    -0.656442885717E+03    0.23608E-05   -0.86098E-05   300   0.161E-02
  29 F= -.67151391E+03 E0= -.67145190E+03  d E =-.771175E-03
 curvature:  -1.17 expect dE=-0.210E-02 dE for cont linesearch -0.179E-05
 trial: gam= 0.50508 g(F)=  0.180E-02 g(S)=  0.000E+00 ort = 0.142E-03 (trialstep = 0.345E+00)
 search vector abs. value=  0.533E-02
 bond charge predicted
       N       E                     dE             d eps       ncg     rms          rms(c)
DAV:   1    -0.656443457315E+03   -0.56924E-03   -0.33767E-02   600   0.234E-01    0.149E-01
DAV:   2    -0.656450919655E+03   -0.74623E-02   -0.55605E-02   816   0.147E-01    0.179E+00
DAV:   3    -0.656444438777E+03    0.64809E-02   -0.61587E-02   648   0.151E-01    0.413E-01
DAV:   4    -0.656443799996E+03    0.63878E-03   -0.13875E-03   516   0.520E-02    0.316E-01
DAV:   5    -0.656443539076E+03    0.26092E-03   -0.20523E-04   360   0.229E-02    0.972E-02
DAV:   6    -0.656443495985E+03    0.43090E-04   -0.12820E-04   312   0.174E-02
  30 F= -.67151433E+03 E0= -.67145220E+03  d E =-.426143E-03
 trial-energy change:   -0.000426  1 .order   -0.000434   -0.000645   -0.000223
 step:   0.5273(harm=  0.5273)  dis= 0.00188  next Energy=  -671.514399 (dE=-0.492E-03)
 reached required accuracy - stopping structural energy minimisation
