 vasp.5.4.1 05Feb16 (build Apr 21 2017 13:36:42) gamma-only                     
  
 executed on           IFC91_ompi date 2020.09.15  09:38:10
 running on   36 total cores
 distrk:  each k-point on   36 cores,    1 groups
 distr:  one band on NCORES_PER_BAND=   3 cores,   12 groups


--------------------------------------------------------------------------------------------------------


 INCAR:
 POTCAR:    PAW_PBE C 08Apr2002                   
 POTCAR:    PAW_PBE Co 02Aug2007                  
 POTCAR:    PAW_PBE H 15Jun2001                   
 POTCAR:    PAW_PBE Mo 08Apr2002                  
 POTCAR:    PAW_PBE S 06Sep2000                   
 POTCAR:    PAW_PBE C 08Apr2002                   
   VRHFIN =C: s2p2                                                              
   LEXCH  = PE                                                                  
   EATOM  =   147.1560 eV,   10.8157 Ry                                         
                                                                                
   TITEL  = PAW_PBE C 08Apr2002                                                 
   LULTRA =        F    use ultrasoft PP ?                                      
   IUNSCR =        1    unscreen: 0-lin 1-nonlin 2-no                           
   RPACOR =    1.200    partial core radius                                     
   POMASS =   12.011; ZVAL   =    4.000    mass and valenz                      
   RCORE  =    1.500    outmost cutoff radius                                   
   RWIGS  =    1.630; RWIGS  =    0.863    wigner-seitz radius (au A)           
   ENMAX  =  400.000; ENMIN  =  300.000 eV                                      
   ICORE  =        2    local potential                                         
   LCOR   =        T    correct aug charges                                     
   LPAW   =        T    paw PP                                                  
   EAUG   =  644.873                                                            
   DEXC   =    0.000                                                            
   RMAX   =    1.529    core radius for proj-oper                               
   RAUG   =    1.300    factor for augmentation sphere                          
   RDEP   =    1.501    radius for radial grids                                 
   RDEPT  =    1.300    core radius for aug-charge                              
                                                                                
   Atomic configuration                                                         
    4 entries                                                                   
     n  l   j            E        occ.                                          
     1  0  0.50      -273.3789   2.0000                                         
     2  0  0.50       -13.7508   2.0000                                         
     2  1  0.50        -5.2854   2.0000                                         
     3  2  1.50        -5.4423   0.0000                                         
   Description                                                                  
     l       E           TYP  RCUT    TYP  RCUT                                 
     0    -13.7508458     23  1.200                                             
     0     -8.2022199     23  1.200                                             
     1     -5.2854383     23  1.500                                             
     1     34.0145650     23  1.500                                             
     2     -5.4423304      7  1.500                                             
  local pseudopotential read in
  partial core-charges read in
  partial kinetic energy density read in
  atomic valenz-charges read in
  non local Contribution for L=           0  read in
    real space projection operators read in
  non local Contribution for L=           0  read in
    real space projection operators read in
  non local Contribution for L=           1  read in
    real space projection operators read in
  non local Contribution for L=           1  read in
    real space projection operators read in
    PAW grid and wavefunctions read in
 
   number of l-projection  operators is LMAX  =           4
   number of lm-projection operators is LMMAX =           8
 
 POTCAR:    PAW_PBE Co 02Aug2007                  
   VRHFIN =Co: d8 s1                                                            
   LEXCH  = PE                                                                  
   EATOM  =   813.3670 eV,   59.7808 Ry                                         
                                                                                
   TITEL  = PAW_PBE Co 02Aug2007                                                
   LULTRA =        F    use ultrasoft PP ?                                      
   IUNSCR =        1    unscreen: 0-lin 1-nonlin 2-no                           
   RPACOR =    2.000    partial core radius                                     
   POMASS =   58.933; ZVAL   =    9.000    mass and valenz                      
   RCORE  =    2.300    outmost cutoff radius                                   
   RWIGS  =    2.460; RWIGS  =    1.302    wigner-seitz radius (au A)           
   ENMAX  =  267.968; ENMIN  =  200.976 eV                                      
   RCLOC  =    1.203    cutoff for local pot                                    
   LCOR   =        T    correct aug charges                                     
   LPAW   =        T    paw PP                                                  
   EAUG   =  477.818                                                            
   DEXC   =    0.000                                                            
   RMAX   =    2.360    core radius for proj-oper                               
   RAUG   =    1.300    factor for augmentation sphere                          
   RDEP   =    2.393    radius for radial grids                                 
   RDEPT  =    1.864    core radius for aug-charge                              
                                                                                
   Atomic configuration                                                         
    9 entries                                                                   
     n  l   j            E        occ.                                          
     1  0  0.50     -7587.6674   2.0000                                         
     2  0  0.50      -893.6084   2.0000                                         
     2  1  1.50      -764.5805   6.0000                                         
     3  0  0.50       -97.5973   2.0000                                         
     3  1  1.50       -60.9648   6.0000                                         
     3  2  2.50        -4.2382   8.0000                                         
     4  0  0.50        -4.3746   1.0000                                         
     4  1  1.50        -4.0817   0.0000                                         
     4  3  2.50        -1.3606   0.0000                                         
   Description                                                                  
     l       E           TYP  RCUT    TYP  RCUT                                 
     2     -4.2382362     23  2.300                                             
     2     -5.5988188     23  2.300                                             
     0     -4.3745797     23  2.300                                             
     0      5.7660125     23  2.300                                             
     1     -2.7211652     23  2.300                                             
     1     16.9860234     23  2.300                                             
  local pseudopotential read in
  partial core-charges read in
  partial kinetic energy density read in
  atomic valenz-charges read in
  non local Contribution for L=           2  read in
    real space projection operators read in
  non local Contribution for L=           2  read in
    real space projection operators read in
  non local Contribution for L=           0  read in
    real space projection operators read in
  non local Contribution for L=           0  read in
    real space projection operators read in
  non local Contribution for L=           1  read in
    real space projection operators read in
  non local Contribution for L=           1  read in
    real space projection operators read in
    PAW grid and wavefunctions read in
 
   number of l-projection  operators is LMAX  =           6
   number of lm-projection operators is LMMAX =          18
 
 POTCAR:    PAW_PBE H 15Jun2001                   
   VRHFIN =H: ultrasoft test                                                    
   LEXCH  = PE                                                                  
   EATOM  =    12.4884 eV,    0.9179 Ry                                         
                                                                                
   TITEL  = PAW_PBE H 15Jun2001                                                 
   LULTRA =        F    use ultrasoft PP ?                                      
   IUNSCR =        0    unscreen: 0-lin 1-nonlin 2-no                           
   RPACOR =    0.000    partial core radius                                     
   POMASS =    1.000; ZVAL   =    1.000    mass and valenz                      
   RCORE  =    1.100    outmost cutoff radius                                   
   RWIGS  =    0.700; RWIGS  =    0.370    wigner-seitz radius (au A)           
   ENMAX  =  250.000; ENMIN  =  200.000 eV                                      
   RCLOC  =    0.701    cutoff for local pot                                    
   LCOR   =        T    correct aug charges                                     
   LPAW   =        T    paw PP                                                  
   EAUG   =  400.000                                                            
   RMAX   =    1.123    core radius for proj-oper                               
   RAUG   =    1.200    factor for augmentation sphere                          
   RDEP   =    1.112    radius for radial grids                                 
   RDEPT  =    0.926    core radius for aug-charge                              
                                                                                
   Atomic configuration                                                         
    2 entries                                                                   
     n  l   j            E        occ.                                          
     1  0  0.50        -6.4927   1.0000                                         
     2  1  0.50        -3.4015   0.0000                                         
   Description                                                                  
     l       E           TYP  RCUT    TYP  RCUT                                 
     0     -6.4927494     23  1.100                                             
     0      6.8029130     23  1.100                                             
     1     -4.0817478     23  1.100                                             
  local pseudopotential read in
  atomic valenz-charges read in
  non local Contribution for L=           0  read in
    real space projection operators read in
  non local Contribution for L=           0  read in
    real space projection operators read in
  non local Contribution for L=           1  read in
    real space projection operators read in
    PAW grid and wavefunctions read in
 
   number of l-projection  operators is LMAX  =           3
   number of lm-projection operators is LMMAX =           5
 
 POTCAR:    PAW_PBE Mo 08Apr2002                  
   VRHFIN =Mo: 4p5s4d                                                           
   LEXCH  = PE                                                                  
   EATOM  =   217.5176 eV,   15.9871 Ry                                         
                                                                                
   TITEL  = PAW_PBE Mo 08Apr2002                                                
   LULTRA =        F    use ultrasoft PP ?                                      
   IUNSCR =        1    unscreen: 0-lin 1-nonlin 2-no                           
   RPACOR =    2.200    partial core radius                                     
   POMASS =   95.940; ZVAL   =    6.000    mass and valenz                      
   RCORE  =    2.750    outmost cutoff radius                                   
   RWIGS  =    2.750; RWIGS  =    1.455    wigner-seitz radius (au A)           
   ENMAX  =  224.584; ENMIN  =  168.438 eV                                      
   RCLOC  =    2.111    cutoff for local pot                                    
   LCOR   =        T    correct aug charges                                     
   LPAW   =        T    paw PP                                                  
   EAUG   =  345.278                                                            
   DEXC   =    0.000                                                            
   RMAX   =    2.821    core radius for proj-oper                               
   RAUG   =    1.300    factor for augmentation sphere                          
   RDEP   =    2.815    radius for radial grids                                 
   RDEPT  =    2.211    core radius for aug-charge                              
                                                                                
   Atomic configuration                                                         
   12 entries                                                                   
     n  l   j            E        occ.                                          
     1  0  0.50    -19819.0341   2.0000                                         
     2  0  0.50     -2799.0127   2.0000                                         
     2  1  1.50     -2502.0276   6.0000                                         
     3  0  0.50      -476.4448   2.0000                                         
     3  1  1.50      -379.1496   6.0000                                         
     3  2  2.50      -220.9367  10.0000                                         
     4  0  0.50       -64.3378   2.0000                                         
     4  1  1.50       -38.4773   6.0000                                         
     4  2  2.50        -3.7535   5.0000                                         
     5  0  0.50        -4.0862   1.0000                                         
     5  1  0.50        -2.7701   0.0000                                         
     4  3  2.50        -1.3606   0.0000                                         
   Description                                                                  
     l       E           TYP  RCUT    TYP  RCUT                                 
     2     -3.7534765     23  2.500                                             
     2     -5.1140591     23  2.500                                             
     0     -4.0861560     23  2.600                                             
     0     13.6058260     23  2.600                                             
     1      5.4423304     23  2.750                                             
     1     27.2116520     23  2.750                                             
  local pseudopotential read in
  partial core-charges read in
  partial kinetic energy density read in
  atomic valenz-charges read in
  non local Contribution for L=           2  read in
    real space projection operators read in
  non local Contribution for L=           2  read in
    real space projection operators read in
  non local Contribution for L=           0  read in
    real space projection operators read in
  non local Contribution for L=           0  read in
    real space projection operators read in
  non local Contribution for L=           1  read in
    real space projection operators read in
  non local Contribution for L=           1  read in
    real space projection operators read in
    PAW grid and wavefunctions read in
 
   number of l-projection  operators is LMAX  =           6
   number of lm-projection operators is LMMAX =          18
 
 POTCAR:    PAW_PBE S 06Sep2000                   
   VRHFIN =S : s2p4                                                             
   LEXCH  = PE                                                                  
   EATOM  =   276.8230 eV,   20.3459 Ry                                         
                                                                                
   TITEL  = PAW_PBE S 06Sep2000                                                 
   LULTRA =        F    use ultrasoft PP ?                                      
   IUNSCR =        1    unscreen: 0-lin 1-nonlin 2-no                           
   RPACOR =    1.500    partial core radius                                     
   POMASS =   32.066; ZVAL   =    6.000    mass and valenz                      
   RCORE  =    1.900    outmost cutoff radius                                   
   RWIGS  =    2.200; RWIGS  =    1.164    wigner-seitz radius (au A)           
   ENMAX  =  258.689; ENMIN  =  194.016 eV                                      
   ICORE  =        2    local potential                                         
   LCOR   =        T    correct aug charges                                     
   LPAW   =        T    paw PP                                                  
   EAUG   =  335.092                                                            
   DEXC   =    0.000                                                            
   RMAX   =    1.942    core radius for proj-oper                               
   RAUG   =    1.300    factor for augmentation sphere                          
   RDEP   =    1.954    radius for radial grids                                 
   RDEPT  =    1.744    core radius for aug-charge                              
                                                                                
   Atomic configuration                                                         
    6 entries                                                                   
     n  l   j            E        occ.                                          
     1  0  0.50     -2405.8406   2.0000                                         
     2  0  0.50      -211.7007   2.0000                                         
     2  1  1.50      -156.4958   6.0000                                         
     3  0  0.50       -17.2562   2.0000                                         
     3  1  0.50        -7.0085   4.0000                                         
     3  2  1.50        -6.8029   0.0000                                         
   Description                                                                  
     l       E           TYP  RCUT    TYP  RCUT                                 
     0    -17.2561641     23  1.900                                             
     0    -15.8743224     23  1.900                                             
     1     -7.0085400     23  1.900                                             
     1     -2.7779785     23  1.900                                             
     2     -6.8029130     23  1.900                                             
  local pseudopotential read in
  partial core-charges read in
  partial kinetic energy density read in
  atomic valenz-charges read in
  non local Contribution for L=           0  read in
    real space projection operators read in
  non local Contribution for L=           0  read in
    real space projection operators read in
  non local Contribution for L=           1  read in
    real space projection operators read in
  non local Contribution for L=           1  read in
    real space projection operators read in
    PAW grid and wavefunctions read in
 
   number of l-projection  operators is LMAX  =           4
   number of lm-projection operators is LMMAX =           8
 
 Optimization of the real space projectors (new method)

 maximal supplied QI-value         = 25.13
 optimisation between [QCUT,QGAM] = [ 10.05, 20.36] = [ 28.30,116.06] Ry 
 Optimized for a Real-space Cutoff    1.51 Angstroem

   l    n(q)    QCUT    max X(q) W(low)/X(q) W(high)/X(q)  e(spline) 
   0      9    10.053   115.676    0.19E-03    0.21E-03    0.38E-06
   0      9    10.053    87.132    0.19E-03    0.21E-03    0.38E-06
   1      9    10.053     4.429    0.87E-04    0.11E-03    0.39E-06
   1      9    10.053     2.733    0.59E-04    0.62E-04    0.43E-06
 Optimization of the real space projectors (new method)

 maximal supplied QI-value         = 16.25
 optimisation between [QCUT,QGAM] = [ 10.24, 20.48] = [ 29.35,117.42] Ry 
 Optimized for a Real-space Cutoff    1.51 Angstroem

   l    n(q)    QCUT    max X(q) W(low)/X(q) W(high)/X(q)  e(spline) 
   2      8    10.239    65.824    0.20E-03    0.32E-03    0.24E-06
   2      8    10.239    61.429    0.20E-03    0.32E-03    0.24E-06
   0      9    10.239    56.174    0.11E-03    0.60E-04    0.77E-07
   0      9    10.239    31.263    0.96E-04    0.56E-04    0.69E-07
   1      9    10.239    19.828    0.36E-04    0.15E-03    0.11E-06
   1      9    10.239    15.139    0.28E-04    0.12E-03    0.10E-06
 Optimization of the real space projectors (new method)

 maximal supplied QI-value         = 34.20
 optimisation between [QCUT,QGAM] = [  9.92, 20.18] = [ 27.55,114.04] Ry 
 Optimized for a Real-space Cutoff    1.34 Angstroem

   l    n(q)    QCUT    max X(q) W(low)/X(q) W(high)/X(q)  e(spline) 
   0      8     9.919    19.460    0.16E-03    0.20E-03    0.36E-06
   0      8     9.919    12.209    0.16E-03    0.20E-03    0.35E-06
   1      8     9.919     4.655    0.19E-03    0.46E-03    0.40E-06
 Optimization of the real space projectors (new method)

 maximal supplied QI-value         = 13.61
 optimisation between [QCUT,QGAM] = [ 10.20, 20.41] = [ 29.16,116.64] Ry 
 Optimized for a Real-space Cutoff    1.65 Angstroem

   l    n(q)    QCUT    max X(q) W(low)/X(q) W(high)/X(q)  e(spline) 
   2      9    10.205    80.908    0.21E-03    0.30E-03    0.60E-06
   2      9    10.205    79.000    0.21E-03    0.30E-03    0.60E-06
   0     10    10.205    52.066    0.39E-04    0.38E-04    0.19E-06
   0     10    10.205    24.514    0.33E-04    0.32E-04    0.16E-06
   1     10    10.205    16.033    0.64E-04    0.17E-03    0.19E-06
   1     10    10.205    11.179    0.49E-04    0.13E-03    0.15E-06
 Optimization of the real space projectors (new method)

 maximal supplied QI-value         = 19.84
 optimisation between [QCUT,QGAM] = [ 10.12, 20.44] = [ 28.68,116.96] Ry 
 Optimized for a Real-space Cutoff    1.42 Angstroem

   l    n(q)    QCUT    max X(q) W(low)/X(q) W(high)/X(q)  e(spline) 
   0      9    10.119   187.594    0.52E-04    0.93E-04    0.64E-07
   0      9    10.119   164.243    0.51E-04    0.92E-04    0.63E-07
   1      8    10.119    67.533    0.16E-03    0.17E-03    0.23E-06
   1      8    10.119    50.729    0.16E-03    0.16E-03    0.23E-06
  PAW_PBE C 08Apr2002                   :
 energy of atom  1       EATOM= -147.1560
 kinetic energy error for atom=    0.0288 (will be added to EATOM!!)
  PAW_PBE Co 02Aug2007                  :
 energy of atom  2       EATOM= -813.3670
 kinetic energy error for atom=    0.0093 (will be added to EATOM!!)
  PAW_PBE H 15Jun2001                   :
 energy of atom  3       EATOM=  -12.4884
 kinetic energy error for atom=    0.0098 (will be added to EATOM!!)
  PAW_PBE Mo 08Apr2002                  :
 energy of atom  4       EATOM= -217.5176
 kinetic energy error for atom=    0.0025 (will be added to EATOM!!)
  PAW_PBE S 06Sep2000                   :
 energy of atom  5       EATOM= -276.8230
 kinetic energy error for atom=    0.0046 (will be added to EATOM!!)
 
 
 POSCAR:  C Co  H Mo  S                          
  positions in cartesian coordinates
  No initial velocities read in
 exchange correlation table for  LEXCH =        8
   RHO(1)=    0.500       N(1)  =     2000
   RHO(2)=  100.500       N(2)  =     4000

 VTST: version 3.1, (03/28/14)

 CHAIN: initializing optimizer
 
 OPT: Using VASP Conjugate-Gradient optimizer
 CHAIN: Read ICHAIN            0
 
 POSCAR:  C Co  H Mo  S                          
  positions in cartesian coordinates
  No initial velocities read in
 


--------------------------------------------------------------------------------------------------------


 ion  position               nearest neighbor table
   1  0.899  0.450  0.471-  18 1.09   2 1.43   3 1.43  11 2.09
   2  0.731  0.372  0.463-  17 1.09   1 1.43   5 1.43  11 2.09
   3  0.913  0.532  0.501-  19 1.09   1 1.43   4 1.43  11 2.09
   4  0.753  0.505  0.511-  20 1.09   5 1.43   3 1.43  11 2.09
   5  0.641  0.406  0.488-  12 1.09   4 1.43   2 1.43  11 2.08
   6  0.799  0.582  0.394-  16 1.09  10 1.43   8 1.43  11 2.09
   7  0.714  0.671  0.440-  15 1.09   8 1.43   9 1.43  11 2.09
   8  0.660  0.578  0.411-  13 1.09   7 1.43   6 1.43  11 2.08
   9  0.887  0.734  0.440-  14 1.09   7 1.43  10 1.43  11 2.09
  10  0.939  0.678  0.412-  21 1.09   6 1.43   9 1.43  11 2.09
  11  0.794  0.551  0.453-   8 2.08   5 2.08   2 2.09   7 2.09   4 2.09   9 2.09   3 2.09   6 2.09
                            10 2.09   1 2.09
  12  0.511  0.365  0.489-   5 1.09
  13  0.535  0.513  0.405-   8 1.09
  14  0.965  0.808  0.459-   9 1.09
  15  0.638  0.690  0.458-   7 1.09
  16  0.798  0.521  0.372-   6 1.09
  17  0.681  0.301  0.442-   2 1.09
  18  0.999  0.448  0.457-   1 1.09
  19  0.024  0.604  0.513-   3 1.09
  20  0.722  0.553  0.532-   4 1.09
  21  0.063  0.704  0.406-  10 1.09
  22  0.556  0.083  0.250-  46 2.42  67 2.42  48 2.42  66 2.42  76 2.42  78 2.42  23 3.19  27 3.19
                            37 3.19  43 3.19  29 3.19  38 3.19
  23  0.556  0.333  0.250-  52 2.42  76 2.42  65 2.42  78 2.42  80 2.42  82 2.42  22 3.19  25 3.19
                            29 3.19  42 3.19  32 3.19  43 3.19
  24  0.444  0.417  0.750-  90 2.42  87 2.42  84 2.42  89 2.42  81 2.42  83 2.42  26 3.19  39 3.19
                            31 3.19  41 3.19  33 3.19  44 3.19
  25  0.556  0.583  0.250-  59 2.42  80 2.42  61 2.42  82 2.42  86 2.42  88 2.42  23 3.19  27 3.19
                            32 3.19  40 3.19  34 3.19  42 3.19
  26  0.444  0.667  0.750-  69 2.42  92 2.42  68 2.42  55 2.42  87 2.42  89 2.42  24 3.19  28 3.19
                            33 3.19  45 3.19  35 3.19  41 3.19
  27  0.556  0.833  0.250-  63 2.42  86 2.42  75 2.42  88 2.42  67 2.42  66 2.42  22 3.19  25 3.19
                            34 3.19  38 3.19  37 3.19  40 3.19
  28  0.444  0.917  0.750-  71 2.42  77 2.42  73 2.42  79 2.42  92 2.42  55 2.42  26 3.19  39 3.19
                            35 3.19  36 3.19  30 3.19  45 3.19
  29  0.889  0.333  0.250-  91 2.42  46 2.42  85 2.42  48 2.42  52 2.42  65 2.42  32 3.19  37 3.19
                            23 3.19  42 3.19  22 3.19  40 3.19
  30  0.778  0.167  0.750-  77 2.42  53 2.42  79 2.42  56 2.42  47 2.42  49 2.42  31 3.19  35 3.19
                            39 3.19  44 3.19  28 3.19  41 3.19
  31  0.778  0.417  0.750-  81 2.42  60 2.42  83 2.42  62 2.42  53 2.42  56 2.42  30 3.19  33 3.19
                            24 3.19  41 3.19  39 3.19  45 3.19
  32  0.889  0.583  0.250-  74 2.42  52 2.42  54 2.42  65 2.42  59 2.42  61 2.42  29 3.19  34 3.19
                            25 3.19  40 3.19  23 3.19  38 3.19
  33  0.778  0.667  0.750-  87 2.42  64 2.42  89 2.42  93 2.42  60 2.42  62 2.42  31 3.19  35 3.19
                            26 3.19  45 3.19  24 3.19  36 3.19
  34  0.889  0.833  0.250-  70 2.42  59 2.42  72 2.42  61 2.42  63 2.42  75 2.42  32 3.19  37 3.19
                            27 3.19  38 3.19  25 3.19  43 3.19
  35  0.778  0.917  0.750-  92 2.42  47 2.42  55 2.42  49 2.42  64 2.42  93 2.42  30 3.19  33 3.19
                            28 3.19  36 3.19  26 3.19  44 3.19
  36  0.111  0.917  0.750-  64 2.42  57 2.42  93 2.42  50 2.42  71 2.42  73 2.42  44 3.19  45 3.19
                            28 3.19  35 3.19  33 3.19  39 3.19
  37  0.889  0.083  0.250-  58 2.42  63 2.42  51 2.42  75 2.42  46 2.42  48 2.42  29 3.19  34 3.19
                            22 3.19  43 3.19  27 3.19  42 3.19
  38  0.222  0.833  0.250-  67 2.42  74 2.42  66 2.42  54 2.42  70 2.42  72 2.42  40 3.19  43 3.19
                            27 3.19  34 3.19  32 3.19  22 3.19
  39  0.444  0.167  0.750-  57 2.42  81 2.42  50 2.42  83 2.42  77 2.42  79 2.42  24 3.19  28 3.19
                            30 3.19  44 3.19  31 3.19  36 3.19
  40  0.222  0.583  0.250-  86 2.42  91 2.42  88 2.42  85 2.42  74 2.42  54 2.42  38 3.19  42 3.19
                            25 3.19  32 3.19  29 3.19  27 3.19
  41  0.111  0.417  0.750-  53 2.42  69 2.42  56 2.42  68 2.42  90 2.42  84 2.42  44 3.19  45 3.19
                            24 3.19  31 3.19  30 3.19  26 3.19
  42  0.222  0.333  0.250-  80 2.42  58 2.42  82 2.42  51 2.42  91 2.42  85 2.42  40 3.19  43 3.19
                            23 3.19  29 3.19  25 3.19  37 3.19
  43  0.222  0.083  0.250-  76 2.42  70 2.42  78 2.42  72 2.42  58 2.42  51 2.42  38 3.19  42 3.19
                            22 3.19  37 3.19  34 3.19  23 3.19
  44  0.111  0.167  0.750-  47 2.42  90 2.42  49 2.42  84 2.42  57 2.42  50 2.42  36 3.19  41 3.19
                            39 3.19  30 3.19  35 3.19  24 3.19
  45  0.111  0.667  0.750-  60 2.42  71 2.42  62 2.42  73 2.42  69 2.42  68 2.42  36 3.19  41 3.19
                            26 3.19  33 3.19  31 3.19  28 3.19
  46  0.778  0.167  0.295-  22 2.42  29 2.42  37 2.42
  47  0.889  0.083  0.795-  44 2.42  35 2.42  30 2.42
  48  0.778  0.167  0.205-  22 2.42  29 2.42  37 2.42
  49  0.889  0.083  0.705-  44 2.42  35 2.42  30 2.42
  50  0.222  0.083  0.705-  39 2.42  36 2.42  44 2.42
  51  0.111  0.167  0.205-  37 2.42  42 2.42  43 2.42
  52  0.778  0.417  0.295-  23 2.42  32 2.42  29 2.42
  53  0.889  0.333  0.795-  41 2.42  30 2.42  31 2.42
  54  0.111  0.667  0.205-  32 2.42  38 2.42  40 2.42
  55  0.556  0.833  0.705-  35 2.42  26 2.42  28 2.42
  56  0.889  0.333  0.705-  41 2.42  30 2.42  31 2.42
  57  0.222  0.083  0.795-  39 2.42  36 2.42  44 2.42
  58  0.111  0.167  0.295-  37 2.42  42 2.42  43 2.42
  59  0.778  0.667  0.295-  25 2.42  34 2.42  32 2.42
  60  0.889  0.583  0.795-  45 2.42  31 2.42  33 2.42
  61  0.778  0.667  0.205-  25 2.42  34 2.42  32 2.42
  62  0.889  0.583  0.705-  45 2.42  31 2.42  33 2.42
  63  0.778  0.917  0.295-  27 2.42  37 2.42  34 2.42
  64  0.889  0.833  0.795-  36 2.42  33 2.42  35 2.42
  65  0.778  0.417  0.205-  23 2.42  32 2.42  29 2.42
  66  0.444  0.917  0.205-  38 2.42  22 2.42  27 2.42
  67  0.444  0.917  0.295-  38 2.42  22 2.42  27 2.42
  68  0.222  0.583  0.705-  26 2.42  41 2.42  45 2.42
  69  0.222  0.583  0.795-  26 2.42  41 2.42  45 2.42
  70  0.111  0.917  0.295-  34 2.42  43 2.42  38 2.42
  71  0.222  0.833  0.795-  28 2.42  45 2.42  36 2.42
  72  0.111  0.917  0.205-  34 2.42  43 2.42  38 2.42
  73  0.222  0.833  0.705-  28 2.42  45 2.42  36 2.42
  74  0.111  0.667  0.295-  32 2.42  38 2.42  40 2.42
  75  0.778  0.917  0.205-  27 2.42  37 2.42  34 2.42
  76  0.444  0.167  0.295-  43 2.42  23 2.42  22 2.42
  77  0.556  0.083  0.795-  30 2.42  28 2.42  39 2.42
  78  0.444  0.167  0.205-  43 2.42  23 2.42  22 2.42
  79  0.556  0.083  0.705-  30 2.42  28 2.42  39 2.42
  80  0.444  0.417  0.295-  42 2.42  25 2.42  23 2.42
  81  0.556  0.333  0.795-  31 2.42  39 2.42  24 2.42
  82  0.444  0.417  0.205-  42 2.42  25 2.42  23 2.42
  83  0.556  0.333  0.705-  31 2.42  39 2.42  24 2.42
  84  0.222  0.333  0.705-  24 2.42  44 2.42  41 2.42
  85  0.111  0.417  0.205-  29 2.42  40 2.42  42 2.42
  86  0.444  0.667  0.295-  40 2.42  27 2.42  25 2.42
  87  0.556  0.583  0.795-  33 2.42  24 2.42  26 2.42
  88  0.444  0.667  0.205-  40 2.42  27 2.42  25 2.42
  89  0.556  0.583  0.705-  33 2.42  24 2.42  26 2.42
  90  0.222  0.333  0.795-  24 2.42  44 2.42  41 2.42
  91  0.111  0.417  0.295-  29 2.42  40 2.42  42 2.42
  92  0.556  0.833  0.795-  35 2.42  26 2.42  28 2.42
  93  0.889  0.833  0.705-  36 2.42  33 2.42  35 2.42
 
  LATTYP: Found a simple monoclinic cell.
 ALAT       =    16.8815660915
 B/A-ratio  =     2.0661745669
 C/A-ratio  =     1.4759983605
 COS(beta)  =    -0.9678678488
  
  Lattice vectors:
  
 A1 = ( -12.7612648832, -11.0515787236,   0.0000000000)
 A2 = (   0.0000000000,   0.0000000000, -34.8802625070)
 A3 = (  22.3322113382,  11.0515787236,   0.0000000000)


Analysis of symmetry for initial positions (statically):
=====================================================================
 Subroutine PRICEL returns:
 Original cell was already a primitive cell.
 

 Routine SETGRP: Setting up the symmetry group for a 
 simple monoclinic supercell.


 Subroutine GETGRP returns: Found  1 space group operations
 (whereof  1 operations were pure point group operations)
 out of a pool of  4 trial point group operations.


The static configuration has the point symmetry C_1 .


Analysis of symmetry for dynamics (positions and initial velocities):
=====================================================================
 Subroutine PRICEL returns:
 Original cell was already a primitive cell.
 

 Routine SETGRP: Setting up the symmetry group for a 
 simple monoclinic supercell.


 Subroutine GETGRP returns: Found  1 space group operations
 (whereof  1 operations were pure point group operations)
 out of a pool of  4 trial point group operations.


The dynamic configuration has the point symmetry C_1 .


 Subroutine INISYM returns: Found  1 space group operations
 (whereof  1 operations are pure point group operations),
 and found     1 'primitive' translations

 
 
 KPOINTS: Gamma-point only                        
  k-points in reciprocal lattice
Space group operators:
 irot       det(A)        alpha          n_x          n_y          n_z        tau_x        tau_y        tau_z
    1     1.000000     0.000000     1.000000     0.000000     0.000000     0.000000     0.000000     0.000000


--------------------------------------------------------------------------------------------------------




 Dimension of arrays:
   k-points           NKPTS =      1   k-points in BZ     NKDIM =      1   number of bands    NBANDS=    300
   number of dos      NEDOS =    301   number of ions     NIONS =     93
   non local maximal  LDIM  =      6   non local SUM 2l+1 LMDIM =     18
   total plane-waves  NPLWV = ******
   max r-space proj   IRMAX =   6611   max aug-charges    IRDMAX=  22650
   dimension x,y,z NGX =    64 NGY =   84 NGZ =  240
   dimension x,y,z NGXF=   128 NGYF=  168 NGZF=  480
   support grid    NGXF=   128 NGYF=  168 NGZF=  480
   ions per type =              10   1  10  24  48
 NGX,Y,Z   is equivalent  to a cutoff of  11.12, 10.94, 11.44 a.u.
 NGXF,Y,Z  is equivalent  to a cutoff of  22.23, 21.89, 22.88 a.u.


 I would recommend the setting:
   dimension x,y,z NGX =    62 NGY =   83 NGZ =  228
 SYSTEM =  basalPlane                              
 POSCAR =   C Co  H Mo  S                          

 Startparameter for this run:
   NWRITE =      2    write-flag & timer
   PREC   = accura    normal or accurate (medium, high low for compatibility)
   ISTART =      0    job   : 0-new  1-cont  2-samecut
   ICHARG =      2    charge: 1-file 2-atom 10-const
   ISPIN  =      1    spin polarized calculation?
   LNONCOLLINEAR =      F non collinear calculations
   LSORBIT =      F    spin-orbit coupling
   INIWAV =      1    electr: 0-lowe 1-rand  2-diag
   LASPH  =      F    aspherical Exc in radial PAW
   METAGGA=      F    non-selfconsistent MetaGGA calc.

 Electronic Relaxation 1
   ENCUT  =  400.0 eV  29.40 Ry    5.42 a.u.  15.61 20.81 56.88*2*pi/ulx,y,z
   ENINI  =  400.0     initial cutoff
   ENAUG  =  645.0 eV  augmentation charge cutoff
   NELM   =    200;   NELMIN=  2; NELMDL= -5     # of ELM steps 
   EDIFF  = 0.1E-03   stopping-criterion for ELM
   LREAL  =      T    real-space projection
   NLSPLINE    = F    spline interpolate recip. space projectors
   LCOMPAT=      F    compatible to vasp.4.4
   GGA_COMPAT  = T    GGA compatible to vasp.4.4-vasp.4.6
   LMAXPAW     = -100 max onsite density
   LMAXMIX     =    2 max onsite mixed and CHGCAR
   VOSKOWN=      0    Vosko Wilk Nusair interpolation
   ROPT   =   -0.00025  -0.00025  -0.00025  -0.00025
   ROPT   =   -0.00025
 Ionic relaxation
   EDIFFG = -.2E-01   stopping-criterion for IOM
   NSW    =  10000    number of steps for IOM
   NBLOCK =      1;   KBLOCK =  10000    inner block; outer block 
   IBRION =      2    ionic relax: 0-MD 1-quasi-New 2-CG
   NFREE  =      1    steps in history (QN), initial steepest desc. (CG)
   ISIF   =      2    stress and relaxation
   IWAVPR =     11    prediction:  0-non 1-charg 2-wave 3-comb
   ISYM   =      2    0-nonsym 1-usesym 2-fastsym
   LCORR  =      T    Harris-Foulkes like correction to forces

   POTIM  = 0.5000    time-step for ionic-motion
   TEIN   =    0.0    initial temperature
   TEBEG  =    0.0;   TEEND  =   0.0 temperature during run
   SMASS  =  -3.00    Nose mass-parameter (am)
   estimated Nose-frequenzy (Omega)   =  0.10E-29 period in steps =****** mass=  -0.209E-26a.u.
   SCALEE = 1.0000    scale energy and forces
   NPACO  =    256;   APACO  = 16.0  distance and # of slots for P.C.
   PSTRESS=    0.0 pullay stress

  Mass of Ions in am
   POMASS =  12.01 58.93  1.00 95.94 32.07
  Ionic Valenz
   ZVAL   =   4.00  9.00  1.00  6.00  6.00
  Atomic Wigner-Seitz radii
   RWIGS  =  -1.00 -1.00 -1.00 -1.00 -1.00
  virtual crystal weights 
   VCA    =   1.00  1.00  1.00  1.00  1.00
   NELECT =     491.0000    total number of electrons
   NUPDOWN=      -1.0000    fix difference up-down

 DOS related values:
   EMIN   =  10.00;   EMAX   =-10.00  energy-range for DOS
   EFERMI =   0.00
   ISMEAR =     0;   SIGMA  =   0.10  broadening in eV -4-tet -1-fermi 0-gaus

 Electronic relaxation 2 (details)
   IALGO  =     38    algorithm
   LDIAG  =      T    sub-space diagonalisation (order eigenvalues)
   LSUBROT=      F    optimize rotation matrix (better conditioning)
   TURBO    =      0    0=normal 1=particle mesh
   IRESTART =      0    0=no restart 2=restart with 2 vectors
   NREBOOT  =      0    no. of reboots
   NMIN     =      0    reboot dimension
   EREF     =   0.00    reference energy to select bands
   IMIX   =      4    mixing-type and parameters
     AMIX     =   0.40;   BMIX     =  1.00
     AMIX_MAG =   1.60;   BMIX_MAG =  1.00
     AMIN     =   0.10
     WC   =   100.;   INIMIX=   1;  MIXPRE=   1;  MAXMIX= -45

 Intra band minimization:
   WEIMIN = 0.0010     energy-eigenvalue tresh-hold
   EBREAK =  0.83E-07  absolut break condition
   DEPER  =   0.30     relativ break condition  

   TIME   =   0.40     timestep for ELM

  volume/ion in A,a.u.               =      39.67       267.71
  Fermi-wavevector in a.u.,A,eV,Ry     =   0.835826  1.579481  9.505091  0.698604
  Thomas-Fermi vector in A             =   1.949448
 
 Write flags
   LWAVE  =      F    write WAVECAR
   LCHARG =      F    write CHGCAR
   LVTOT  =      F    write LOCPOT, total local potential
   LVHAR  =      F    write LOCPOT, Hartree potential only
   LELF   =      F    write electronic localiz. function (ELF)
   LORBIT =      0    0 simple, 1 ext, 2 COOP (PROOUT)


 Dipole corrections
   LMONO  =      F    monopole corrections only (constant potential shift)
   LDIPOL =      F    correct potential (dipole corrections)
   IDIPOL =      0    1-x, 2-y, 3-z, 4-all directions 
   EPSILON=  1.0000000 bulk dielectric constant

 Exchange correlation treatment:
   GGA     =    --    GGA type
   LEXCH   =     8    internal setting for exchange type
   VOSKOWN=      0    Vosko Wilk Nusair interpolation
   LHFCALC =     F    Hartree Fock is set to
   LHFONE  =     F    Hartree Fock one center treatment
   AEXX    =    0.0000 exact exchange contribution

 Linear response parameters
   LEPSILON=     F    determine dielectric tensor
   LRPA    =     F    only Hartree local field effects (RPA)
   LNABLA  =     F    use nabla operator in PAW spheres
   LVEL    =     F    velocity operator in full k-point grid
   LINTERFAST=   F  fast interpolation
   KINTER  =     0    interpolate to denser k-point grid
   CSHIFT  =0.1000    complex shift for real part using Kramers Kronig
   OMEGAMAX=  -1.0    maximum frequency
   DEG_THRESHOLD= 0.2000000E-02 threshold for treating states as degnerate
   RTIME   =    0.100 relaxation time in fs

 Orbital magnetization related:
   ORBITALMAG=     F  switch on orbital magnetization
   LCHIMAG   =     F  perturbation theory with respect to B field
   DQ        =  0.001000  dq finite difference perturbation B field



--------------------------------------------------------------------------------------------------------


 conjugate gradient relaxation of ions
 charge density and potential will be updated during run
 non-spin polarized calculation
 Variant of blocked Davidson
 Davidson routine will perform the subspace rotation
 perform sub-space diagonalisation
    after iterative eigenvector-optimisation
 modified Broyden-mixing scheme, WC =      100.0
 initial mixing is a Kerker type mixing with AMIX =  0.4000 and BMIX =      1.0000
 Hartree-type preconditioning will be used
 using additional bands           54
 real space projection scheme for non local part
 use partial core corrections
 calculate Harris-corrections to forces 
   (improved forces if not selfconsistent)
 use gradient corrections 
 use of overlap-Matrix (Vanderbilt PP)
 Gauss-broadening in eV      SIGMA  =   0.10


--------------------------------------------------------------------------------------------------------


  energy-cutoff  :      400.00
  volume of cell :     3689.43
      direct lattice vectors                 reciprocal lattice vectors
     9.570946455  0.000000000  0.000000000     0.104482875  0.060323179  0.000000000
    -6.380628027 11.051578724  0.000000000     0.000000000  0.090484810  0.000000000
     0.000000000  0.000000000 34.880262507     0.000000000  0.000000000  0.028669509

  length of vectors
     9.570946455 12.761261940 34.880262507     0.120646413  0.090484810  0.028669509


 
 k-points in units of 2pi/SCALE and weight: Gamma-point only                        
   0.00000000  0.00000000  0.00000000       1.000
 
 k-points in reciprocal lattice and weights: Gamma-point only                        
   0.00000000  0.00000000  0.00000000       1.000
 
 position of ions in fractional coordinates (direct lattice) 
   0.89912236  0.44979638  0.47128739
   0.73132921  0.37162004  0.46334586
   0.91256670  0.53234702  0.50080121
   0.75299340  0.50488742  0.51119057
   0.64104108  0.40570672  0.48800710
   0.79887412  0.58214959  0.39435749
   0.71415589  0.67147124  0.43959549
   0.65979215  0.57767754  0.41136895
   0.88687765  0.73367113  0.44011914
   0.93917177  0.67849341  0.41212607
   0.79445075  0.55112436  0.45323647
   0.51052773  0.36530823  0.48851271
   0.53479781  0.51283665  0.40454973
   0.96459940  0.80847298  0.45887890
   0.63751720  0.69008732  0.45802868
   0.79808725  0.52138432  0.37239488
   0.68136769  0.30052284  0.44180394
   0.99877917  0.44833741  0.45682949
   0.02446575  0.60443984  0.51277173
   0.72207313  0.55262975  0.53231950
   0.06347517  0.70373573  0.40597285
   0.55555566  0.08333325  0.25000928
   0.55555566  0.33333325  0.25000928
   0.44444432  0.41666674  0.74999076
   0.55555566  0.58333325  0.25000928
   0.44444432  0.66666674  0.74999076
   0.55555566  0.83333325  0.25000928
   0.44444432  0.91666674  0.74999076
   0.88888899  0.33333325  0.25000928
   0.77777765  0.16666674  0.74999076
   0.77777765  0.41666674  0.74999076
   0.88888899  0.58333325  0.25000928
   0.77777765  0.66666674  0.74999076
   0.88888899  0.83333325  0.25000928
   0.77777765  0.91666674  0.74999076
   0.11111099  0.91666674  0.74999076
   0.88888899  0.08333325  0.25000928
   0.22222233  0.83333325  0.25000928
   0.44444432  0.16666674  0.74999076
   0.22222233  0.58333325  0.25000928
   0.11111099  0.41666674  0.74999076
   0.22222233  0.33333325  0.25000928
   0.22222233  0.08333325  0.25000928
   0.11111099  0.16666674  0.74999076
   0.11111099  0.66666674  0.74999076
   0.77777765  0.16666674  0.29487388
   0.88888899  0.08333325  0.79485533
   0.77777765  0.16666674  0.20514467
   0.88888899  0.08333325  0.70512613
   0.22222233  0.08333325  0.70512613
   0.11111099  0.16666674  0.20514467
   0.77777765  0.41666674  0.29487388
   0.88888899  0.33333325  0.79485533
   0.11111099  0.66666674  0.20514467
   0.55555566  0.83333325  0.70512613
   0.88888899  0.33333325  0.70512613
   0.22222233  0.08333325  0.79485533
   0.11111099  0.16666674  0.29487388
   0.77777765  0.66666674  0.29487388
   0.88888899  0.58333325  0.79485533
   0.77777765  0.66666674  0.20514467
   0.88888899  0.58333325  0.70512613
   0.77777765  0.91666674  0.29487388
   0.88888899  0.83333325  0.79485533
   0.77777765  0.41666674  0.20514467
   0.44444432  0.91666674  0.20514467
   0.44444432  0.91666674  0.29487388
   0.22222233  0.58333325  0.70512613
   0.22222233  0.58333325  0.79485533
   0.11111099  0.91666674  0.29487388
   0.22222233  0.83333325  0.79485533
   0.11111099  0.91666674  0.20514467
   0.22222233  0.83333325  0.70512613
   0.11111099  0.66666674  0.29487388
   0.77777765  0.91666674  0.20514467
   0.44444432  0.16666674  0.29487388
   0.55555566  0.08333325  0.79485533
   0.44444432  0.16666674  0.20514467
   0.55555566  0.08333325  0.70512613
   0.44444432  0.41666674  0.29487388
   0.55555566  0.33333325  0.79485533
   0.44444432  0.41666674  0.20514467
   0.55555566  0.33333325  0.70512613
   0.22222233  0.33333325  0.70512613
   0.11111099  0.41666674  0.20514467
   0.44444432  0.66666674  0.29487388
   0.55555566  0.58333325  0.79485533
   0.44444432  0.66666674  0.20514467
   0.55555566  0.58333325  0.70512613
   0.22222233  0.33333325  0.79485533
   0.11111099  0.41666674  0.29487388
   0.55555566  0.83333325  0.79485533
   0.88888899  0.83333325  0.70512613
 
 position of ions in cartesian coordinates  (Angst):
   5.73546857  4.97096013 16.43862780
   4.62834344  4.10698813 16.16162509
   5.33741871  5.88327497 17.46807755
   3.98536070  5.57980312 17.83046132
   3.54670623  4.48369972 17.02181564
   3.93150140  6.43367205 13.75529288
   2.55073959  7.42081725 15.33320612
   2.62888986  6.38424882 14.34865707
   3.80697592  8.10822426 15.35147120
   4.65954870  7.49842334 14.37506535
   4.08712609  6.09079420 15.80900693
   2.55533762  4.03723262 17.03945173
   1.84630134  5.66765460 14.11080069
   4.07356384  8.93490282 16.00581637
   1.69845251  7.62655431 15.97616067
   4.31169099  5.76211981 12.98923107
   4.60380928  3.32125178 15.41023731
   6.69858773  4.95483622 15.93433247
  -3.62254541  6.68001450 17.88561262
   3.38479840  6.10743118 18.56744380
  -3.88275848  7.77739087 14.16043948
   4.78547502  0.92096394  8.72038942
   3.19031801  3.68385862  8.72038942
   1.59515729  4.60482531 26.15987450
   1.59516100  6.44675330  8.72038942
   0.00000028  7.36771999 26.15987450
   0.00000400  9.20964798  8.72038942
  -1.59515673 10.13061467 26.15987450
   6.38063349  3.68385862  8.72038942
   6.38062978  1.84193063 26.15987450
   4.78547277  4.60482531 26.15987450
   4.78547649  6.44675330  8.72038942
   3.19031576  7.36771999 26.15987450
   3.19031948  9.20964798  8.72038942
   1.59515876 10.13061467 26.15987450
  -4.78547221 10.13061467 26.15987450
   7.97579050  0.92096394  8.72038942
  -3.19031149  9.20964798  8.72038942
   3.19031429  1.84193063 26.15987450
  -1.59515448  6.44675330  8.72038942
  -1.59515820  4.60482531 26.15987450
   0.00000252  3.68385862  8.72038942
   1.59515953  0.92096394  8.72038942
  -0.00000119  1.84193063 26.15987450
  -3.19031521  7.36771999 26.15987450
   6.38062978  1.84193063 10.28527839
   7.97579050  0.92096394 27.72476251
   6.38062978  1.84193063  7.15550000
   7.97579050  0.92096394 24.59498459
   1.59515953  0.92096394 24.59498459
  -0.00000119  1.84193063  7.15550000
   4.78547277  4.60482531 10.28527839
   6.38063349  3.68385862 27.72476251
  -3.19031521  7.36771999  7.15550000
   0.00000400  9.20964798 24.59498459
   6.38063349  3.68385862 24.59498459
   1.59515953  0.92096394 27.72476251
  -0.00000119  1.84193063 10.28527839
   3.19031576  7.36771999 10.28527839
   4.78547649  6.44675330 27.72476251
   3.19031576  7.36771999  7.15550000
   4.78547649  6.44675330 24.59498459
   1.59515876 10.13061467 10.28527839
   3.19031948  9.20964798 27.72476251
   4.78547277  4.60482531  7.15550000
  -1.59515673 10.13061467  7.15550000
  -1.59515673 10.13061467 10.28527839
  -1.59515448  6.44675330 24.59498459
  -1.59515448  6.44675330 27.72476251
  -4.78547221 10.13061467 10.28527839
  -3.19031149  9.20964798 27.72476251
  -4.78547221 10.13061467  7.15550000
  -3.19031149  9.20964798 24.59498459
  -3.19031521  7.36771999 10.28527839
   1.59515876 10.13061467  7.15550000
   3.19031429  1.84193063 10.28527839
   4.78547502  0.92096394 27.72476251
   3.19031429  1.84193063  7.15550000
   4.78547502  0.92096394 24.59498459
   1.59515729  4.60482531 10.28527839
   3.19031801  3.68385862 27.72476251
   1.59515729  4.60482531  7.15550000
   3.19031801  3.68385862 24.59498459
   0.00000252  3.68385862 24.59498459
  -1.59515820  4.60482531  7.15550000
   0.00000028  7.36771999 10.28527839
   1.59516100  6.44675330 27.72476251
   0.00000028  7.36771999  7.15550000
   1.59516100  6.44675330 24.59498459
   0.00000252  3.68385862 27.72476251
  -1.59515820  4.60482531 10.28527839
   0.00000400  9.20964798 27.72476251
   3.19031948  9.20964798 24.59498459
 


--------------------------------------------------------------------------------------------------------


 use parallel FFT for wavefunctions z direction half grid
 k-point  1 :   0.0000 0.0000 0.0000  plane waves:   33544

 maximum and minimum number of plane-waves per node :     11182    11180

 maximum number of plane-waves:     33544
 maximum index in each direction: 
   IXMAX=   15   IYMAX=   20   IZMAX=   56
   IXMIN=  -15   IYMIN=  -20   IZMIN=    0

 NGX is ok and might be reduce to  62
 NGY is ok and might be reduce to  82
 NGZ is ok and might be reduce to 226

 real space projection operators:
  total allocation   :      38859.62 KBytes
  max/ min on nodes  :      13323.85      12762.89


 parallel 3D FFT for wavefunctions:
    minimum data exchange during FFTs selected (reduces bandwidth)
 parallel 3D FFT for charge:
    minimum data exchange during FFTs selected (reduces bandwidth)


 total amount of memory used by VASP on root node   114595. kBytes
========================================================================

   base      :      30000. kBytes
   nonlr-proj:      16372. kBytes
   fftplans  :      19781. kBytes
   grid      :      43661. kBytes
   one-center:        241. kBytes
   wavefun   :       4540. kBytes
 
     INWAV:  cpu time    0.0000: real time    0.0002
 Broyden mixing: mesh for mixing (old mesh)
   NGX = 31   NGY = 41   NGZ =113
  (NGX  =128   NGY  =168   NGZ  =480)
  gives a total of 143623 points

 initial charge density was supplied:
 charge density of overlapping atoms calculated
 number of electron     491.0000000 magnetization 
 keeping initial charge density in first step


--------------------------------------------------------------------------------------------------------


 Maximum index for non-local projection operator         2301
 Maximum index for augmentation-charges         1165 (set IRDMAX)


--------------------------------------------------------------------------------------------------------


 First call to EWALD:  gamma=   0.115
 Maximum number of real-space cells 5x 4x 1
 Maximum number of reciprocal cells 2x 2x 6

 FEWALD executed in parallel
    FEWALD:  cpu time    0.0050: real time    0.0052


----------------------------------------- Iteration    1(   1)  ---------------------------------------


    POTLOK:  cpu time    0.3851: real time    0.3891
    SETDIJ:  cpu time    0.0120: real time    0.0122
     EDDAV:  cpu time    5.3379: real time    5.3519
       DOS:  cpu time    0.0009: real time    0.0009
    --------------------------------------------
      LOOP:  cpu time    5.7410: real time    5.7796

 eigenvalue-minimisations  :   612
 total energy-change (2. order) : 0.4360856E+04  (-0.1821200E+05)
 number of electron     491.0000000 magnetization 
 augmentation part      491.0000000 magnetization 

 Free energy of the ion-electron system (eV)
  ---------------------------------------------------
  alpha Z        PSCENC =       562.94535741
  Ewald energy   TEWEN  =     39132.44878261
  -Hartree energ DENC   =    -58548.58144060
  -exchange      EXHF   =         0.00000000
  -V(xc)+E(xc)   XCENC  =      -700.94356439
  PAW double counting   =     18640.80374730   -16838.49265242
  entropy T*S    EENTRO =        -0.17786675
  eigenvalues    EBANDS =      1195.79054228
  atomic energy  EATOM  =     20917.06298232
  Solvation  Ediel_sol  =         0.00000000
  ---------------------------------------------------
  free energy    TOTEN  =      4360.85588778 eV

  energy without entropy =     4361.03375453  energy(sigma->0) =     4360.94482115


--------------------------------------------------------------------------------------------------------




----------------------------------------- Iteration    1(   2)  ---------------------------------------


     EDDAV:  cpu time    7.5255: real time    7.5684
       DOS:  cpu time    0.0006: real time    0.0006
    --------------------------------------------
      LOOP:  cpu time    7.5269: real time    7.5716

 eigenvalue-minimisations  :   948
 total energy-change (2. order) :-0.4383148E+04  (-0.4230705E+04)
 number of electron     491.0000000 magnetization 
 augmentation part      491.0000000 magnetization 

 Free energy of the ion-electron system (eV)
  ---------------------------------------------------
  alpha Z        PSCENC =       562.94535741
  Ewald energy   TEWEN  =     39132.44878261
  -Hartree energ DENC   =    -58548.58144060
  -exchange      EXHF   =         0.00000000
  -V(xc)+E(xc)   XCENC  =      -700.94356439
  PAW double counting   =     18640.80374730   -16838.49265242
  entropy T*S    EENTRO =        -0.09464365
  eigenvalues    EBANDS =     -3187.44030280
  atomic energy  EATOM  =     20917.06298232
  Solvation  Ediel_sol  =         0.00000000
  ---------------------------------------------------
  free energy    TOTEN  =       -22.29173420 eV

  energy without entropy =      -22.19709055  energy(sigma->0) =      -22.24441238


--------------------------------------------------------------------------------------------------------




----------------------------------------- Iteration    1(   3)  ---------------------------------------


     EDDAV:  cpu time    6.0118: real time    6.0275
       DOS:  cpu time    0.0007: real time    0.0007
    --------------------------------------------
      LOOP:  cpu time    6.0132: real time    6.0320

 eigenvalue-minimisations  :   720
 total energy-change (2. order) :-0.6559102E+03  (-0.6482104E+03)
 number of electron     491.0000000 magnetization 
 augmentation part      491.0000000 magnetization 

 Free energy of the ion-electron system (eV)
  ---------------------------------------------------
  alpha Z        PSCENC =       562.94535741
  Ewald energy   TEWEN  =     39132.44878261
  -Hartree energ DENC   =    -58548.58144060
  -exchange      EXHF   =         0.00000000
  -V(xc)+E(xc)   XCENC  =      -700.94356439
  PAW double counting   =     18640.80374730   -16838.49265242
  entropy T*S    EENTRO =        -0.08986316
  eigenvalues    EBANDS =     -3843.35531752
  atomic energy  EATOM  =     20917.06298232
  Solvation  Ediel_sol  =         0.00000000
  ---------------------------------------------------
  free energy    TOTEN  =      -678.20196842 eV

  energy without entropy =     -678.11210526  energy(sigma->0) =     -678.15703684


--------------------------------------------------------------------------------------------------------




----------------------------------------- Iteration    1(   4)  ---------------------------------------


     EDDAV:  cpu time    6.6681: real time    6.7225
       DOS:  cpu time    0.0006: real time    0.0007
    --------------------------------------------
      LOOP:  cpu time    6.6695: real time    6.9027

 eigenvalue-minimisations  :   828
 total energy-change (2. order) :-0.3151503E+02  (-0.3133957E+02)
 number of electron     491.0000000 magnetization 
 augmentation part      491.0000000 magnetization 

 Free energy of the ion-electron system (eV)
  ---------------------------------------------------
  alpha Z        PSCENC =       562.94535741
  Ewald energy   TEWEN  =     39132.44878261
  -Hartree energ DENC   =    -58548.58144060
  -exchange      EXHF   =         0.00000000
  -V(xc)+E(xc)   XCENC  =      -700.94356439
  PAW double counting   =     18640.80374730   -16838.49265242
  entropy T*S    EENTRO =        -0.08980872
  eigenvalues    EBANDS =     -3874.87040344
  atomic energy  EATOM  =     20917.06298232
  Solvation  Ediel_sol  =         0.00000000
  ---------------------------------------------------
  free energy    TOTEN  =      -709.71699991 eV

  energy without entropy =     -709.62719119  energy(sigma->0) =     -709.67209555


--------------------------------------------------------------------------------------------------------




----------------------------------------- Iteration    1(   5)  ---------------------------------------


     EDDAV:  cpu time    7.0836: real time    7.1047
       DOS:  cpu time    0.0007: real time    0.0007
    CHARGE:  cpu time    0.5764: real time    0.5779
    MIXING:  cpu time    0.0118: real time    0.0119
    --------------------------------------------
      LOOP:  cpu time    7.6734: real time    7.7015

 eigenvalue-minimisations  :   888
 total energy-change (2. order) :-0.1082700E+01  (-0.1077973E+01)
 number of electron     491.0000093 magnetization 
 augmentation part      -17.4527253 magnetization 

 Broyden mixing:
  rms(total) = 0.12239E+02    rms(broyden)= 0.12239E+02
  rms(prec ) = 0.12306E+02
  weight for this iteration     100.00

 Free energy of the ion-electron system (eV)
  ---------------------------------------------------
  alpha Z        PSCENC =       562.94535741
  Ewald energy   TEWEN  =     39132.44878261
  -Hartree energ DENC   =    -58548.58144060
  -exchange      EXHF   =         0.00000000
  -V(xc)+E(xc)   XCENC  =      -700.94356439
  PAW double counting   =     18640.80374730   -16838.49265242
  entropy T*S    EENTRO =        -0.09337422
  eigenvalues    EBANDS =     -3875.94953761
  atomic energy  EATOM  =     20917.06298232
  Solvation  Ediel_sol  =         0.00000000
  ---------------------------------------------------
  free energy    TOTEN  =      -710.79969957 eV

  energy without entropy =     -710.70632535  energy(sigma->0) =     -710.75301246


--------------------------------------------------------------------------------------------------------




----------------------------------------- Iteration    1(   6)  ---------------------------------------


    POTLOK:  cpu time    0.3688: real time    0.3696
    SETDIJ:  cpu time    0.0106: real time    0.0107
     EDDAV:  cpu time    6.3845: real time    6.4008
       DOS:  cpu time    0.0008: real time    0.0008
    CHARGE:  cpu time    0.5512: real time    0.5527
    MIXING:  cpu time    0.0118: real time    0.0118
    --------------------------------------------
      LOOP:  cpu time    7.3284: real time    7.3489

 eigenvalue-minimisations  :   780
 total energy-change (2. order) : 0.1983286E+02  (-0.5767529E+02)
 number of electron     491.0000084 magnetization 
 augmentation part       -0.1190391 magnetization 

 Broyden mixing:
  rms(total) = 0.77996E+01    rms(broyden)= 0.77994E+01
  rms(prec ) = 0.78886E+01
  weight for this iteration     100.00

 eigenvalues of (default mixing * dielectric matrix)
  average eigenvalue GAMMA=   0.8488
  0.8488

 Free energy of the ion-electron system (eV)
  ---------------------------------------------------
  alpha Z        PSCENC =       562.94535741
  Ewald energy   TEWEN  =     39132.44878261
  -Hartree energ DENC   =    -58560.62358174
  -exchange      EXHF   =         0.00000000
  -V(xc)+E(xc)   XCENC  =      -676.71838502
  PAW double counting   =     26751.47880706   -24956.30510206
  entropy T*S    EENTRO =        -0.13712928
  eigenvalues    EBANDS =     -3861.11857291
  atomic energy  EATOM  =     20917.06298232
  Solvation  Ediel_sol  =         0.00000000
  ---------------------------------------------------
  free energy    TOTEN  =      -690.96684160 eV

  energy without entropy =     -690.82971232  energy(sigma->0) =     -690.89827696


--------------------------------------------------------------------------------------------------------




----------------------------------------- Iteration    1(   7)  ---------------------------------------


    POTLOK:  cpu time    0.3636: real time    0.3646
    SETDIJ:  cpu time    0.0105: real time    0.0105
     EDDAV:  cpu time    6.6624: real time    6.7082
       DOS:  cpu time    0.0008: real time    0.0008
    CHARGE:  cpu time    0.5996: real time    0.6012
    MIXING:  cpu time    0.0133: real time    0.0134
    --------------------------------------------
      LOOP:  cpu time    7.6514: real time    7.7034

 eigenvalue-minimisations  :   816
 total energy-change (2. order) :-0.2125312E+02  (-0.3345979E+02)
 number of electron     491.0000083 magnetization 
 augmentation part      -11.2220397 magnetization 

 Broyden mixing:
  rms(total) = 0.63621E+01    rms(broyden)= 0.63619E+01
  rms(prec ) = 0.67626E+01
  weight for this iteration     100.00

 eigenvalues of (default mixing * dielectric matrix)
  average eigenvalue GAMMA=   0.9782
  1.5257  0.4308

 Free energy of the ion-electron system (eV)
  ---------------------------------------------------
  alpha Z        PSCENC =       562.94535741
  Ewald energy   TEWEN  =     39132.44878261
  -Hartree energ DENC   =    -58805.54184747
  -exchange      EXHF   =         0.00000000
  -V(xc)+E(xc)   XCENC  =      -676.26689219
  PAW double counting   =     32831.13635186   -31075.10681866
  entropy T*S    EENTRO =        -0.18974033
  eigenvalues    EBANDS =     -3598.70814198
  atomic energy  EATOM  =     20917.06298232
  Solvation  Ediel_sol  =         0.00000000
  ---------------------------------------------------
  free energy    TOTEN  =      -712.21996642 eV

  energy without entropy =     -712.03022609  energy(sigma->0) =     -712.12509625


--------------------------------------------------------------------------------------------------------




----------------------------------------- Iteration    1(   8)  ---------------------------------------


    POTLOK:  cpu time    0.3672: real time    0.3682
    SETDIJ:  cpu time    0.0103: real time    0.0104
     EDDAV:  cpu time    6.9356: real time    6.9545
       DOS:  cpu time    0.0008: real time    0.0009
    CHARGE:  cpu time    0.5710: real time    0.5725
    MIXING:  cpu time    0.0127: real time    0.0127
    --------------------------------------------
      LOOP:  cpu time    7.8991: real time    7.9233

 eigenvalue-minimisations  :   864
 total energy-change (2. order) :-0.2245708E+02  (-0.2836706E+02)
 number of electron     491.0000083 magnetization 
 augmentation part       -6.7400478 magnetization 

 Broyden mixing:
  rms(total) = 0.68041E+01    rms(broyden)= 0.68038E+01
  rms(prec ) = 0.84972E+01
  weight for this iteration     100.00

 eigenvalues of (default mixing * dielectric matrix)
  average eigenvalue GAMMA=   0.9520
  2.0251  0.5716  0.2593

 Free energy of the ion-electron system (eV)
  ---------------------------------------------------
  alpha Z        PSCENC =       562.94535741
  Ewald energy   TEWEN  =     39132.44878261
  -Hartree energ DENC   =    -58785.26292594
  -exchange      EXHF   =         0.00000000
  -V(xc)+E(xc)   XCENC  =      -677.02234805
  PAW double counting   =     38534.58227421   -36758.01822667
  entropy T*S    EENTRO =        -0.40959492
  eigenvalues    EBANDS =     -3661.00335077
  atomic energy  EATOM  =     20917.06298232
  Solvation  Ediel_sol  =         0.00000000
  ---------------------------------------------------
  free energy    TOTEN  =      -734.67704979 eV

  energy without entropy =     -734.26745487  energy(sigma->0) =     -734.47225233


--------------------------------------------------------------------------------------------------------




----------------------------------------- Iteration    1(   9)  ---------------------------------------


    POTLOK:  cpu time    0.3652: real time    0.3663
    SETDIJ:  cpu time    0.0104: real time    0.0104
     EDDAV:  cpu time    6.5849: real time    6.6040
       DOS:  cpu time    0.0008: real time    0.0008
    CHARGE:  cpu time    0.5728: real time    0.5743
    MIXING:  cpu time    0.0120: real time    0.0121
    --------------------------------------------
      LOOP:  cpu time    7.5469: real time    7.5728

 eigenvalue-minimisations  :   816
 total energy-change (2. order) :-0.4572768E+02  (-0.9117767E+02)
 number of electron     491.0000083 magnetization 
 augmentation part       -1.7378169 magnetization 

 Broyden mixing:
  rms(total) = 0.86154E+01    rms(broyden)= 0.86152E+01
  rms(prec ) = 0.12844E+02
  weight for this iteration     100.00

 eigenvalues of (default mixing * dielectric matrix)
  average eigenvalue GAMMA=   0.7943
  2.2400  0.5881  0.2594  0.0897

 Free energy of the ion-electron system (eV)
  ---------------------------------------------------
  alpha Z        PSCENC =       562.94535741
  Ewald energy   TEWEN  =     39132.44878261
  -Hartree energ DENC   =    -58870.59539977
  -exchange      EXHF   =         0.00000000
  -V(xc)+E(xc)   XCENC  =      -673.07471490
  PAW double counting   =     41238.42540734   -39469.88068005
  entropy T*S    EENTRO =        -0.35840188
  eigenvalues    EBANDS =     -3617.37806224
  atomic energy  EATOM  =     20917.06298232
  Solvation  Ediel_sol  =         0.00000000
  ---------------------------------------------------
  free energy    TOTEN  =      -780.40472916 eV

  energy without entropy =     -780.04632728  energy(sigma->0) =     -780.22552822


--------------------------------------------------------------------------------------------------------




----------------------------------------- Iteration    1(  10)  ---------------------------------------


    POTLOK:  cpu time    0.3700: real time    0.3722
    SETDIJ:  cpu time    0.0113: real time    0.0115
     EDDAV:  cpu time    6.7529: real time    6.7707
       DOS:  cpu time    0.0008: real time    0.0008
    CHARGE:  cpu time    0.5502: real time    0.5518
    MIXING:  cpu time    0.0125: real time    0.0125
    --------------------------------------------
      LOOP:  cpu time    7.6985: real time    7.7227

 eigenvalue-minimisations  :   840
 total energy-change (2. order) : 0.9289576E+02  (-0.3772100E+02)
 number of electron     491.0000086 magnetization 
 augmentation part       -7.1303975 magnetization 

 Broyden mixing:
  rms(total) = 0.34313E+01    rms(broyden)= 0.34312E+01
  rms(prec ) = 0.36600E+01
  weight for this iteration     100.00

 eigenvalues of (default mixing * dielectric matrix)
  average eigenvalue GAMMA=   0.7514
  2.1878  0.6235  0.4244  0.4244  0.0970

 Free energy of the ion-electron system (eV)
  ---------------------------------------------------
  alpha Z        PSCENC =       562.94535741
  Ewald energy   TEWEN  =     39132.44878261
  -Hartree energ DENC   =    -58876.11991272
  -exchange      EXHF   =         0.00000000
  -V(xc)+E(xc)   XCENC  =      -670.36287034
  PAW double counting   =     44274.95238897   -42515.68096022
  entropy T*S    EENTRO =        -0.07022727
  eigenvalues    EBANDS =     -3512.68451228
  atomic energy  EATOM  =     20917.06298232
  Solvation  Ediel_sol  =         0.00000000
  ---------------------------------------------------
  free energy    TOTEN  =      -687.50897151 eV

  energy without entropy =     -687.43874424  energy(sigma->0) =     -687.47385787


--------------------------------------------------------------------------------------------------------




----------------------------------------- Iteration    1(  11)  ---------------------------------------


    POTLOK:  cpu time    0.3654: real time    0.3680
    SETDIJ:  cpu time    0.0101: real time    0.0101
     EDDAV:  cpu time    6.7631: real time    6.7844
       DOS:  cpu time    0.0009: real time    0.0009
    CHARGE:  cpu time    0.5516: real time    0.5529
    MIXING:  cpu time    0.0127: real time    0.0127
    --------------------------------------------
      LOOP:  cpu time    7.7047: real time    7.7327

 eigenvalue-minimisations  :   840
 total energy-change (2. order) : 0.2278490E+02  (-0.9784761E+01)
 number of electron     491.0000086 magnetization 
 augmentation part       -5.0061563 magnetization 

 Broyden mixing:
  rms(total) = 0.24996E+01    rms(broyden)= 0.24996E+01
  rms(prec ) = 0.27141E+01
  weight for this iteration     100.00

 eigenvalues of (default mixing * dielectric matrix)
  average eigenvalue GAMMA=   0.6831
  2.1482  0.6245  0.4670  0.4670  0.2920  0.1000

 Free energy of the ion-electron system (eV)
  ---------------------------------------------------
  alpha Z        PSCENC =       562.94535741
  Ewald energy   TEWEN  =     39132.44878261
  -Hartree energ DENC   =    -58870.65139699
  -exchange      EXHF   =         0.00000000
  -V(xc)+E(xc)   XCENC  =      -666.91875326
  PAW double counting   =     43849.33224182   -42096.81869856
  entropy T*S    EENTRO =        -0.11459575
  eigenvalues    EBANDS =     -3492.00998975
  atomic energy  EATOM  =     20917.06298232
  Solvation  Ediel_sol  =         0.00000000
  ---------------------------------------------------
  free energy    TOTEN  =      -664.72407014 eV

  energy without entropy =     -664.60947439  energy(sigma->0) =     -664.66677226


--------------------------------------------------------------------------------------------------------




----------------------------------------- Iteration    1(  12)  ---------------------------------------


    POTLOK:  cpu time    0.3675: real time    0.3686
    SETDIJ:  cpu time    0.0103: real time    0.0103
     EDDAV:  cpu time    6.7808: real time    6.7988
       DOS:  cpu time    0.0009: real time    0.0009
    CHARGE:  cpu time    0.5523: real time    0.5538
    MIXING:  cpu time    0.0130: real time    0.0130
    --------------------------------------------
      LOOP:  cpu time    7.7257: real time    7.7499

 eigenvalue-minimisations  :   840
 total energy-change (2. order) : 0.5642884E+01  (-0.4189582E+01)
 number of electron     491.0000085 magnetization 
 augmentation part       -6.1776208 magnetization 

 Broyden mixing:
  rms(total) = 0.26327E+01    rms(broyden)= 0.26325E+01
  rms(prec ) = 0.26609E+01
  weight for this iteration     100.00

 eigenvalues of (default mixing * dielectric matrix)
  average eigenvalue GAMMA=   0.5919
  2.1241  0.5785  0.3968  0.3968  0.2738  0.2738  0.0998

 Free energy of the ion-electron system (eV)
  ---------------------------------------------------
  alpha Z        PSCENC =       562.94535741
  Ewald energy   TEWEN  =     39132.44878261
  -Hartree energ DENC   =    -58893.71057034
  -exchange      EXHF   =         0.00000000
  -V(xc)+E(xc)   XCENC  =      -667.20042522
  PAW double counting   =     43791.27115279   -42041.17211236
  entropy T*S    EENTRO =        -0.08944219
  eigenvalues    EBANDS =     -3460.63691134
  atomic energy  EATOM  =     20917.06298232
  Solvation  Ediel_sol  =         0.00000000
  ---------------------------------------------------
  free energy    TOTEN  =      -659.08118631 eV

  energy without entropy =     -658.99174412  energy(sigma->0) =     -659.03646522


--------------------------------------------------------------------------------------------------------




----------------------------------------- Iteration    1(  13)  ---------------------------------------


    POTLOK:  cpu time    0.3673: real time    0.3682
    SETDIJ:  cpu time    0.0103: real time    0.0103
     EDDAV:  cpu time    6.4672: real time    6.4848
       DOS:  cpu time    0.0008: real time    0.0008
    CHARGE:  cpu time    0.5472: real time    0.5487
    MIXING:  cpu time    0.0139: real time    0.0139
    --------------------------------------------
      LOOP:  cpu time    7.4074: real time    7.4318

 eigenvalue-minimisations  :   792
 total energy-change (2. order) :-0.2431058E+00  (-0.2342141E+00)
 number of electron     491.0000085 magnetization 
 augmentation part       -6.3798881 magnetization 

 Broyden mixing:
  rms(total) = 0.25585E+01    rms(broyden)= 0.25585E+01
  rms(prec ) = 0.25874E+01
  weight for this iteration     100.00

 eigenvalues of (default mixing * dielectric matrix)
  average eigenvalue GAMMA=   0.6100
  2.1353  0.4376  0.4376  0.5720  0.4486  0.4486  0.3004  0.0999

 Free energy of the ion-electron system (eV)
  ---------------------------------------------------
  alpha Z        PSCENC =       562.94535741
  Ewald energy   TEWEN  =     39132.44878261
  -Hartree energ DENC   =    -58894.44898862
  -exchange      EXHF   =         0.00000000
  -V(xc)+E(xc)   XCENC  =      -667.48333562
  PAW double counting   =     43693.17169842   -41942.56279075
  entropy T*S    EENTRO =        -0.08972420
  eigenvalues    EBANDS =     -3460.36827367
  atomic energy  EATOM  =     20917.06298232
  Solvation  Ediel_sol  =         0.00000000
  ---------------------------------------------------
  free energy    TOTEN  =      -659.32429210 eV

  energy without entropy =     -659.23456790  energy(sigma->0) =     -659.27943000


--------------------------------------------------------------------------------------------------------




----------------------------------------- Iteration    1(  14)  ---------------------------------------


    POTLOK:  cpu time    0.3684: real time    0.3693
    SETDIJ:  cpu time    0.0105: real time    0.0106
     EDDAV:  cpu time    7.1266: real time    7.1456
       DOS:  cpu time    0.0008: real time    0.0008
    CHARGE:  cpu time    0.5481: real time    0.5505
    MIXING:  cpu time    0.0132: real time    0.0133
    --------------------------------------------
      LOOP:  cpu time    8.0685: real time    8.0926

 eigenvalue-minimisations  :   900
 total energy-change (2. order) :-0.1733903E+00  (-0.1557835E-01)
 number of electron     491.0000085 magnetization 
 augmentation part       -6.3746024 magnetization 

 Broyden mixing:
  rms(total) = 0.24321E+01    rms(broyden)= 0.24321E+01
  rms(prec ) = 0.24643E+01
  weight for this iteration     100.00

 eigenvalues of (default mixing * dielectric matrix)
  average eigenvalue GAMMA=   0.6715
  2.1242  0.7718  0.7718  0.4925  0.4925  0.5641  0.4035  0.3231  0.0999

 Free energy of the ion-electron system (eV)
  ---------------------------------------------------
  alpha Z        PSCENC =       562.94535741
  Ewald energy   TEWEN  =     39132.44878261
  -Hartree energ DENC   =    -58898.64874652
  -exchange      EXHF   =         0.00000000
  -V(xc)+E(xc)   XCENC  =      -667.49113706
  PAW double counting   =     43611.29123370   -41860.10846988
  entropy T*S    EENTRO =        -0.08939852
  eigenvalues    EBANDS =     -3456.90828646
  atomic energy  EATOM  =     20917.06298232
  Solvation  Ediel_sol  =         0.00000000
  ---------------------------------------------------
  free energy    TOTEN  =      -659.49768238 eV

  energy without entropy =     -659.40828386  energy(sigma->0) =     -659.45298312


--------------------------------------------------------------------------------------------------------




----------------------------------------- Iteration    1(  15)  ---------------------------------------


    POTLOK:  cpu time    0.3612: real time    0.3642
    SETDIJ:  cpu time    0.0101: real time    0.0102
     EDDAV:  cpu time    6.8039: real time    6.8741
       DOS:  cpu time    0.0009: real time    0.0009
    CHARGE:  cpu time    0.5432: real time    0.5517
    MIXING:  cpu time    0.0136: real time    0.0139
    --------------------------------------------
      LOOP:  cpu time    7.7339: real time    7.8192

 eigenvalue-minimisations  :   840
 total energy-change (2. order) : 0.1557873E-01  (-0.6611845E-02)
 number of electron     491.0000085 magnetization 
 augmentation part       -6.3634285 magnetization 

 Broyden mixing:
  rms(total) = 0.22506E+01    rms(broyden)= 0.22506E+01
  rms(prec ) = 0.22849E+01
  weight for this iteration     100.00

 eigenvalues of (default mixing * dielectric matrix)
  average eigenvalue GAMMA=   0.8257
  2.1280  1.4903  1.4903  0.5764  0.5764  0.5655  0.5093  0.5093  0.3120  0.0999

 Free energy of the ion-electron system (eV)
  ---------------------------------------------------
  alpha Z        PSCENC =       562.94535741
  Ewald energy   TEWEN  =     39132.44878261
  -Hartree energ DENC   =    -58905.01779918
  -exchange      EXHF   =         0.00000000
  -V(xc)+E(xc)   XCENC  =      -667.48627754
  PAW double counting   =     43472.64356195   -41720.85226133
  entropy T*S    EENTRO =        -0.08970653
  eigenvalues    EBANDS =     -3451.13674337
  atomic energy  EATOM  =     20917.06298232
  Solvation  Ediel_sol  =         0.00000000
  ---------------------------------------------------
  free energy    TOTEN  =      -659.48210366 eV

  energy without entropy =     -659.39239713  energy(sigma->0) =     -659.43725039


--------------------------------------------------------------------------------------------------------




----------------------------------------- Iteration    1(  16)  ---------------------------------------


    POTLOK:  cpu time    0.3627: real time    0.3671
    SETDIJ:  cpu time    0.0100: real time    0.0101
     EDDAV:  cpu time    6.7386: real time    6.7746
       DOS:  cpu time    0.0008: real time    0.0008
    CHARGE:  cpu time    0.5469: real time    0.5494
    MIXING:  cpu time    0.0137: real time    0.0137
    --------------------------------------------
      LOOP:  cpu time    7.6738: real time    7.7201

 eigenvalue-minimisations  :   840
 total energy-change (2. order) :-0.2699451E+01  (-0.2794056E+01)
 number of electron     491.0000086 magnetization 
 augmentation part       -5.9311502 magnetization 

 Broyden mixing:
  rms(total) = 0.20848E+01    rms(broyden)= 0.20846E+01
  rms(prec ) = 0.22712E+01
  weight for this iteration     100.00

 eigenvalues of (default mixing * dielectric matrix)
  average eigenvalue GAMMA=   0.7948
  2.0741  1.5924  1.5924  0.6242  0.6242  0.5449  0.4844  0.4844  0.0999  0.3107
  0.3107

 Free energy of the ion-electron system (eV)
  ---------------------------------------------------
  alpha Z        PSCENC =       562.94535741
  Ewald energy   TEWEN  =     39132.44878261
  -Hartree energ DENC   =    -58961.93857451
  -exchange      EXHF   =         0.00000000
  -V(xc)+E(xc)   XCENC  =      -667.29092964
  PAW double counting   =     42833.60348526   -41077.70142978
  entropy T*S    EENTRO =        -0.16024639
  eigenvalues    EBANDS =     -3401.15098202
  atomic energy  EATOM  =     20917.06298232
  Solvation  Ediel_sol  =         0.00000000
  ---------------------------------------------------
  free energy    TOTEN  =      -662.18155473 eV

  energy without entropy =     -662.02130834  energy(sigma->0) =     -662.10143154


--------------------------------------------------------------------------------------------------------




----------------------------------------- Iteration    1(  17)  ---------------------------------------


[...]
   0.272E+01 -.890E+01 0.175E+03   -.273E+01 0.885E+01 -.175E+03   0.595E-02 0.445E-01 0.643E-01   0.190E-02 -.291E-02 0.217E-02
   -.401E+00 -.129E+01 -.122E+03   0.419E+00 0.135E+01 0.122E+03   -.920E-02 -.538E-01 -.361E-01   0.523E-03 -.250E-04 -.938E-03
   -.531E+01 0.119E+02 0.180E+03   0.532E+01 -.120E+02 -.180E+03   -.146E-01 0.699E-01 0.874E-01   -.276E-02 0.427E-02 0.246E-02
   -.467E+00 0.106E+01 -.122E+03   0.483E+00 -.100E+01 0.122E+03   -.107E-01 -.482E-01 -.351E-01   0.334E-03 0.118E-03 -.832E-03
   -.325E+00 0.742E+00 -.126E+03   0.342E+00 -.686E+00 0.126E+03   -.113E-01 -.458E-01 -.371E-01   0.342E-03 0.215E-03 -.101E-02
   -.511E+01 0.478E+00 0.200E+03   0.509E+01 -.508E+00 -.200E+03   0.239E-01 0.238E-01 0.799E-01   0.177E-02 -.332E-02 0.297E-02
   0.464E+00 -.201E+01 -.125E+03   -.447E+00 0.207E+01 0.125E+03   -.112E-01 -.495E-01 -.397E-01   0.344E-03 0.133E-03 -.117E-02
   0.310E+01 -.137E+02 0.185E+03   -.311E+01 0.137E+02 -.186E+03   0.136E-01 0.346E-01 0.673E-01   -.211E-02 0.106E-02 0.235E-02
   0.254E+00 -.159E+01 -.122E+03   -.238E+00 0.166E+01 0.122E+03   -.103E-01 -.508E-01 -.371E-01   0.369E-03 0.561E-04 -.982E-03
   -.400E-01 -.178E+01 -.122E+03   0.592E-01 0.184E+01 0.122E+03   -.910E-02 -.500E-01 -.361E-01   0.505E-03 0.159E-03 -.921E-03
   0.110E+01 -.483E+00 0.169E+03   -.111E+01 0.417E+00 -.169E+03   0.895E-02 0.575E-01 0.584E-01   0.132E-02 -.296E-02 0.151E-02
   -.571E+01 -.103E+02 0.180E+03   0.570E+01 0.103E+02 -.180E+03   0.198E-01 0.321E-01 0.675E-01   0.181E-03 -.285E-02 0.223E-02
   0.992E-01 0.105E+01 -.123E+03   -.811E-01 -.993E+00 0.123E+03   -.933E-02 -.501E-01 -.352E-01   0.492E-03 0.107E-03 -.863E-03
   -.356E+01 0.190E+00 0.183E+03   0.355E+01 -.246E+00 -.183E+03   0.734E-02 0.455E-01 0.746E-01   -.116E-02 0.717E-03 0.286E-02
   -.564E+00 0.521E+00 -.124E+03   0.582E+00 -.464E+00 0.124E+03   -.811E-02 -.458E-01 -.353E-01   0.511E-03 0.299E-03 -.884E-03
   0.326E+01 0.948E+01 0.176E+03   -.328E+01 -.956E+01 -.176E+03   0.206E-01 0.640E-01 0.736E-01   0.113E-03 0.312E-03 0.231E-02
   0.101E+01 -.434E+00 0.171E+03   -.103E+01 0.369E+00 -.171E+03   0.206E-01 0.551E-01 0.635E-01   -.692E-03 0.706E-03 0.179E-02
   0.180E+00 0.622E+00 -.122E+03   -.162E+00 -.563E+00 0.122E+03   -.801E-02 -.473E-01 -.345E-01   0.555E-03 0.150E-03 -.788E-03
   -.791E+00 -.190E+01 -.125E+03   0.810E+00 0.196E+01 0.125E+03   -.887E-02 -.493E-01 -.371E-01   0.532E-03 0.164E-03 -.101E-02
   -.605E+01 0.141E+02 -.327E+03   0.597E+01 -.144E+02 0.331E+03   0.764E-01 0.306E+00 -.426E+01   0.652E-04 0.370E-02 -.392E-01
   0.115E+00 0.813E+00 -.606E+03   -.400E-01 -.514E+00 0.611E+03   -.776E-01 -.304E+00 -.445E+01   -.413E-03 -.407E-04 0.448E-01
   -.891E+00 0.201E+01 0.660E+03   0.812E+00 -.231E+01 -.664E+03   0.783E-01 0.299E+00 0.445E+01   0.470E-03 0.276E-02 0.420E-01
   0.491E-01 0.181E+01 0.365E+03   0.253E-01 -.151E+01 -.369E+03   -.779E-01 -.307E+00 0.435E+01   -.354E-03 -.153E-03 -.482E-01
   0.880E+00 0.173E+01 0.364E+03   -.807E+00 -.143E+01 -.368E+03   -.774E-01 -.306E+00 0.435E+01   -.373E-03 -.182E-04 -.483E-01
   0.782E+00 0.862E+00 0.660E+03   -.860E+00 -.116E+01 -.664E+03   0.752E-01 0.303E+00 0.445E+01   0.266E-02 -.488E-02 0.426E-01
   -.134E+02 0.330E+02 -.270E+03   0.133E+02 -.334E+02 0.274E+03   0.853E-01 0.319E+00 -.407E+01   -.715E-03 -.387E-03 -.416E-01
   -.114E+00 0.127E+01 -.607E+03   0.188E+00 -.969E+00 0.612E+03   -.775E-01 -.304E+00 -.445E+01   -.517E-03 0.209E-04 0.448E-01
   -.290E+01 -.276E+01 0.667E+03   0.282E+01 0.247E+01 -.672E+03   0.744E-01 0.303E+00 0.445E+01   0.280E-02 -.565E-02 0.445E-01
   0.335E+00 -.274E+01 0.363E+03   -.260E+00 0.304E+01 -.367E+03   -.774E-01 -.304E+00 0.434E+01   -.348E-03 -.213E-03 -.486E-01
   -.190E+01 0.481E+01 0.358E+03   0.197E+01 -.451E+01 -.363E+03   -.782E-01 -.306E+00 0.435E+01   -.534E-03 0.224E-03 -.483E-01
   0.215E+00 0.796E+00 -.606E+03   -.141E+00 -.498E+00 0.611E+03   -.777E-01 -.304E+00 -.446E+01   -.346E-03 0.136E-03 0.449E-01
   0.476E+01 0.587E+01 -.329E+03   -.484E+01 -.617E+01 0.334E+03   0.759E-01 0.311E+00 -.427E+01   0.289E-02 -.430E-02 -.396E-01
   0.133E+02 -.225E+02 -.252E+03   -.134E+02 0.223E+02 0.256E+03   0.973E-01 0.270E+00 -.428E+01   0.767E-03 0.817E-03 -.384E-01
   0.347E-01 0.274E+00 -.608E+03   0.396E-01 0.249E-01 0.612E+03   -.774E-01 -.304E+00 -.445E+01   -.398E-03 -.498E-04 0.447E-01
   0.118E+01 -.329E+01 0.671E+03   -.125E+01 0.299E+01 -.675E+03   0.747E-01 0.300E+00 0.445E+01   0.565E-03 0.177E-02 0.435E-01
   -.670E+00 -.131E+01 0.354E+03   0.744E+00 0.161E+01 -.358E+03   -.779E-01 -.307E+00 0.433E+01   -.450E-03 0.111E-03 -.488E-01
   0.103E+02 -.244E+02 -.319E+03   -.104E+02 0.241E+02 0.323E+03   0.742E-01 0.307E+00 -.430E+01   -.255E-03 -.345E-02 -.431E-01
   0.259E+00 -.176E+00 -.607E+03   -.184E+00 0.475E+00 0.611E+03   -.775E-01 -.304E+00 -.445E+01   -.505E-03 0.553E-04 0.447E-01
   -.163E+01 0.414E+01 0.668E+03   0.155E+01 -.443E+01 -.672E+03   0.790E-01 0.298E+00 0.446E+01   -.610E-03 -.100E-02 0.471E-01
   -.104E+01 -.361E+01 0.660E+03   0.954E+00 0.331E+01 -.665E+03   0.756E-01 0.307E+00 0.446E+01   0.464E-02 -.315E-02 0.411E-01
   -.602E+01 -.149E+02 -.326E+03   0.594E+01 0.146E+02 0.330E+03   0.738E-01 0.303E+00 -.427E+01   0.448E-02 -.355E-02 -.379E-01
   -.147E+01 -.837E+00 0.358E+03   0.154E+01 0.114E+01 -.362E+03   -.777E-01 -.306E+00 0.434E+01   -.365E-03 0.237E-03 -.487E-01
   -.699E-01 0.317E+00 -.607E+03   0.144E+00 -.194E-01 0.612E+03   -.778E-01 -.303E+00 -.446E+01   -.341E-03 0.150E-03 0.448E-01
   -.458E+01 -.295E+02 -.309E+03   0.450E+01 0.292E+02 0.314E+03   0.802E-01 0.300E+00 -.428E+01   -.517E-02 0.222E-02 -.406E-01
   -.477E-01 -.782E-01 -.607E+03   0.121E+00 0.377E+00 0.611E+03   -.776E-01 -.304E+00 -.446E+01   -.334E-03 0.662E-04 0.449E-01
   -.642E+00 -.517E+01 0.663E+03   0.570E+00 0.487E+01 -.668E+03   0.744E-01 0.305E+00 0.445E+01   -.504E-02 0.301E-02 0.441E-01
   -.118E+01 -.330E+01 0.361E+03   0.126E+01 0.360E+01 -.366E+03   -.775E-01 -.306E+00 0.434E+01   -.424E-03 -.119E-03 -.487E-01
   -.263E+02 -.151E+02 -.282E+03   0.263E+02 0.149E+02 0.286E+03   0.611E-01 0.294E+00 -.418E+01   0.244E-02 -.657E-02 -.394E-01
   0.136E+01 -.484E+01 0.662E+03   -.144E+01 0.455E+01 -.666E+03   0.784E-01 0.304E+00 0.446E+01   -.542E-03 -.273E-02 0.462E-01
   0.969E+00 0.172E+02 -.321E+03   -.105E+01 -.175E+02 0.325E+03   0.800E-01 0.309E+00 -.424E+01   -.403E-02 0.423E-02 -.421E-01
   0.141E-01 0.932E+00 -.606E+03   0.603E-01 -.634E+00 0.611E+03   -.776E-01 -.302E+00 -.446E+01   -.488E-03 0.149E-04 0.448E-01
   -.212E+00 0.230E+01 0.661E+03   0.139E+00 -.260E+01 -.666E+03   0.778E-01 0.301E+00 0.445E+01   -.422E-02 0.332E-02 0.455E-01
   -.586E+00 0.295E+01 0.363E+03   0.661E+00 -.265E+01 -.368E+03   -.775E-01 -.304E+00 0.435E+01   -.507E-03 -.685E-04 -.483E-01
   0.211E+02 0.250E+02 -.290E+03   -.212E+02 -.253E+02 0.294E+03   0.749E-01 0.311E+00 -.418E+01   0.572E-02 -.543E-03 -.367E-01
   0.251E+00 0.126E+01 -.607E+03   -.177E+00 -.957E+00 0.612E+03   -.776E-01 -.302E+00 -.446E+01   -.394E-03 -.458E-04 0.447E-01
   0.225E+01 0.345E+01 0.666E+03   -.233E+01 -.374E+01 -.671E+03   0.742E-01 0.296E+00 0.445E+01   0.515E-02 -.116E-02 0.414E-01
   0.134E+01 0.496E+01 0.357E+03   -.126E+01 -.466E+01 -.361E+03   -.772E-01 -.304E+00 0.434E+01   -.409E-03 0.188E-03 -.484E-01
   0.901E+00 0.396E+01 0.360E+03   -.827E+00 -.366E+01 -.365E+03   -.774E-01 -.306E+00 0.435E+01   -.287E-03 0.203E-03 -.484E-01
   -.990E+00 0.292E+01 0.664E+03   0.913E+00 -.321E+01 -.669E+03   0.809E-01 0.290E+00 0.445E+01   -.555E-02 0.530E-02 0.448E-01
   0.130E+02 -.124E+02 -.302E+03   -.131E+02 0.122E+02 0.306E+03   0.782E-01 0.298E+00 -.425E+01   -.432E-02 0.136E-02 -.428E-01
   0.379E+00 0.267E+00 -.607E+03   -.304E+00 0.309E-01 0.612E+03   -.777E-01 -.302E+00 -.446E+01   -.504E-03 0.152E-04 0.447E-01
   0.139E+01 -.270E+01 0.665E+03   -.147E+01 0.241E+01 -.670E+03   0.807E-01 0.296E+00 0.445E+01   -.453E-02 0.213E-02 0.470E-01
   0.248E+01 -.113E+01 0.357E+03   -.240E+01 0.143E+01 -.361E+03   -.775E-01 -.304E+00 0.433E+01   -.419E-03 0.142E-03 -.489E-01
   0.205E+00 0.118E+01 -.607E+03   -.131E+00 -.880E+00 0.611E+03   -.776E-01 -.304E+00 -.446E+01   -.327E-03 0.468E-04 0.449E-01
   -.840E+01 0.169E+02 -.310E+03   0.833E+01 -.172E+02 0.314E+03   0.766E-01 0.306E+00 -.422E+01   -.605E-02 0.584E-02 -.404E-01
   0.132E+00 -.447E-01 -.606E+03   -.573E-01 0.342E+00 0.611E+03   -.778E-01 -.301E+00 -.446E+01   -.402E-03 -.299E-04 0.447E-01
   0.119E+01 -.405E+01 0.361E+03   -.112E+01 0.435E+01 -.365E+03   -.779E-01 -.307E+00 0.433E+01   -.461E-03 -.153E-03 -.488E-01
 -----------------------------------------------------------------------------------------------
   0.171E+00 -.439E+00 -.315E+01   0.307E-12 -.646E-12 -.102E-11   -.155E+00 0.426E+00 0.353E+01   -.149E-01 0.156E-01 -.392E+00
 
 
 POSITION                                       TOTAL-FORCE (eV/Angst)
 -----------------------------------------------------------------------------------
      5.72163      5.00187     16.40647         0.010752     -0.000659     -0.004142
      4.61663      4.13342     16.12853         0.002418     -0.002764     -0.003695
      5.32270      5.90855     17.44109        -0.003162     -0.000589     -0.003030
      3.97179      5.60098     17.80361         0.009525     -0.004456     -0.009825
      3.53597      4.50315     16.99386        -0.005950     -0.013444     -0.004252
      3.94270      6.40807     13.76139        -0.010313      0.000124     -0.012558
      2.56649      7.39423     15.34470        -0.008152      0.013193     -0.011978
      2.64055      6.36154     14.35430        -0.007759      0.009400     -0.012945
      3.82553      8.07965     15.36243        -0.005463      0.003475     -0.017751
      4.67343      7.47041     14.38152         0.002496      0.015758     -0.010330
      4.08358      6.09044     15.80086         0.003323     -0.006403     -0.004375
      2.54625      4.05333     17.00778         0.007210      0.001849     -0.003632
      1.86053      5.64475     14.10984        -0.008195      0.004981      0.000064
      4.09744      8.89389     16.02975         0.006482      0.004159     -0.015539
      1.72121      7.59954     15.99739        -0.000399     -0.002120     -0.018821
      4.31841      5.73655     12.99251         0.001004     -0.001551     -0.012764
      4.58839      3.35954     15.36583         0.007896     -0.010110     -0.006599
      6.67889      4.99764     15.89167         0.005337      0.002888     -0.003643
     -3.64552      6.71063     17.86000         0.001223     -0.000077     -0.013782
      3.37675      6.12989     18.54420        -0.009183     -0.011763     -0.011101
     -3.86938      7.74649     14.16189         0.004596     -0.006149     -0.004025
      4.78598      0.92712      8.72651         0.000384     -0.004703      0.006061
      3.18973      3.68907      8.72984        -0.003113     -0.005757      0.007448
      1.59451      4.59903     26.15886         0.009098      0.005761     -0.002066
      1.59553      6.45307      8.72904        -0.000751     -0.003923      0.010546
     -0.00070      7.36204     26.15877         0.009072      0.005333     -0.001792
      0.00055      9.21541      8.72652        -0.003854     -0.005800      0.010730
     -1.59582     10.12497     26.15882         0.009255      0.005125     -0.001570
      6.38228      3.68935      8.72871        -0.005879     -0.006029      0.004224
      6.38042      1.83568     26.15896         0.005645      0.009191     -0.002678
      4.78528      4.59852     26.15882         0.005838      0.009191     -0.002742
      4.78429      6.45421      8.73117        -0.000219     -0.009527      0.005007
      3.19014      7.36151     26.15881         0.005409      0.008824     -0.002965
      3.19101      9.21557      8.72632        -0.004246     -0.008543      0.009112
      1.59495     10.12441     26.15890         0.005501      0.009101     -0.002663
     -4.78606     10.12450     26.15891         0.010468      0.010526     -0.000708
      7.97625      0.92720      8.72570        -0.003627     -0.010540      0.004380
     -3.19075      9.21655      8.72812         0.005454     -0.008722      0.008998
      3.18966      1.83620     26.15888         0.009085      0.005643     -0.001967
     -1.59552      6.45279      8.72899         0.002110     -0.008198      0.010133
     -1.59579      4.59859     26.15894         0.010480      0.010984     -0.001066
      0.00014      3.69017      8.72864         0.002352     -0.007190      0.007216
      1.59497      0.92700      8.72647         0.000440     -0.008065      0.007631
     -0.00062      1.83573     26.15903         0.010833      0.010593     -0.000994
     -3.19094      7.36160     26.15880         0.011173      0.010028     -0.000644
      6.38050      1.83713     10.27972        -0.000867      0.003314      0.006992
      7.97667      0.92377     27.71333        -0.003326     -0.004408     -0.000260
      6.37982      1.84002      7.17218        -0.000670      0.003374      0.005861
      7.97675      0.92397     24.60523        -0.003752     -0.004602      0.001131
      1.59594      0.92419     24.60520        -0.003922     -0.004313      0.002727
     -0.00051      1.84019      7.17255        -0.000551      0.004173      0.002511
      4.78458      4.60047     10.28228         0.000817      0.004263      0.004032
      6.38151      3.68671     27.71327        -0.003355     -0.004449     -0.000314
     -3.19277      7.36449      7.17604         0.000534      0.003291      0.001249
      0.00070      9.21312     24.60511        -0.003367     -0.003186      0.002426
      6.38163      3.68671     24.60513        -0.003862     -0.004473      0.001318
      1.59607      0.92408     27.71337        -0.004380     -0.004532     -0.002869
     -0.00123      1.83772     10.27951         0.000465      0.004320      0.007174
      3.18758      7.36727     10.28306         0.000365      0.002434      0.003548
      4.78640      6.44958     27.71309        -0.003359     -0.004300     -0.000024
      3.18962      7.36367      7.17393        -0.000181      0.002742      0.003582
      4.78645      6.44967     24.60503        -0.003908     -0.004477      0.001224
      1.59437     10.12791     10.27885         0.000615      0.003870      0.004864
      3.19125      9.21246     27.71319        -0.003271     -0.004305     -0.000156
      4.78392      4.60283      7.17701         0.002373      0.003047      0.004267
     -1.59637     10.12718      7.17279        -0.001110      0.003891      0.004731
     -1.59506     10.12821     10.27970        -0.002696      0.001380      0.003243
     -1.59436      6.44986     24.60512        -0.003929     -0.004272      0.002973
     -1.59431      6.44991     27.71322        -0.004325     -0.004436     -0.002814
     -4.78728     10.12804     10.28045         0.000026      0.004306      0.006071
     -3.18942      9.21277     27.71324        -0.004288     -0.004438     -0.002733
     -4.78586     10.12748      7.17251        -0.002126      0.005077      0.002038
     -3.18949      9.21295     24.60513        -0.003954     -0.004364      0.002584
     -3.19144      7.36635     10.28383        -0.000432      0.003522      0.005173
      1.59440     10.12708      7.17171         0.001605      0.005360      0.005773
      3.18918      1.83650     10.28035        -0.000599      0.005465      0.006716
      4.78616      0.92424     27.71327        -0.003584     -0.003344     -0.001494
      3.18924      1.83984      7.17328         0.000759      0.004376      0.003247
      4.78620      0.92439     24.60513        -0.003442     -0.003102      0.002363
      1.59404      4.60212     10.28306        -0.001203      0.002080      0.004657
      3.19106      3.68714     27.71318        -0.003701     -0.003324     -0.001328
      1.59498      4.60213      7.17521        -0.001670      0.002594      0.004599
      3.19101      3.68714     24.60505        -0.003371     -0.003155      0.002498
      0.00079      3.68691     24.60522        -0.003875     -0.004212      0.002579
     -1.59592      4.60269      7.17462        -0.001221      0.003231      0.002079
     -0.00105      7.36562     10.28149         0.000092      0.003409      0.005071
      1.59587      6.45006     27.71309        -0.003662     -0.003308     -0.001494
     -0.00132      7.36356      7.17410         0.000669      0.003728      0.003054
      1.59586      6.45007     24.60506        -0.003258     -0.003149      0.002705
      0.00088      3.68699     27.71334        -0.004268     -0.004515     -0.002673
     -1.59571      4.60144     10.28163        -0.000055      0.004306      0.006541
      0.00070      9.21292     27.71317        -0.003666     -0.003285     -0.001523
      3.19129      9.21271     24.60513        -0.003708     -0.004652      0.001176
 -----------------------------------------------------------------------------------
    total drift:                                0.001290      0.002088     -0.013325


--------------------------------------------------------------------------------------------------------



  FREE ENERGIE OF THE ION-ELECTRON SYSTEM (eV)
  ---------------------------------------------------
  free  energy   TOTEN  =      -671.51433234 eV

  energy  without entropy=     -671.39007685  energy(sigma->0) =     -671.45220459
 
 d Force = 0.4338848E-03[ 0.223E-03, 0.645E-03]  d Energy = 0.4261428E-03 0.774E-05
 d Force = 0.1863057E+01[ 0.186E+01, 0.186E+01]  d Ewald  = 0.1863056E+01 0.174E-05


--------------------------------------------------------------------------------------------------------


    POTLOK:  cpu time    0.3837: real time    0.3848


--------------------------------------------------------------------------------------------------------


 stress matrix after NEB project (eV)
     11.43614      0.76636     -0.00391
      0.76636     -8.80363      0.03498
     -0.00391      0.03498     -4.74185
  FORCES: max atom, RMS     0.019596    0.010057
  FORCE total and by dimension    0.096983    0.018821
  Stress total and by dimension   15.229951   11.436144
 Conjugate gradient step on ions:
 trial-energy change:   -0.000426  1 .order   -0.000434   -0.000645   -0.000223
  (g-gl).g = 0.146E-02      g.g   = 0.180E-02  gl.gl    = 0.289E-02
 g(Force)  = 0.180E-02   g(Stress)= 0.000E+00 ortho     = 0.142E-03
 gamma     =   0.50508
 trial     =   0.34543
 opt step  =   0.52732  (harmonic =   0.52732) maximal distance =0.00187672
 next E    =  -671.514399   (d E  =  -0.00049)


--------------------------------------------------------------------------------------------------------


  
 reached required accuracy - stopping structural energy minimisation
     LOOP+:  cpu time   42.9781: real time   43.4655
    4ORBIT:  cpu time    0.0000: real time    0.0000

 total amount of memory used by VASP on root node   114595. kBytes
========================================================================

   base      :      30000. kBytes
   nonlr-proj:      16372. kBytes
   fftplans  :      19781. kBytes
   grid      :      43661. kBytes
   one-center:        241. kBytes
   wavefun   :       4540. kBytes
 
  
  
 General timing and accounting informations for this job:
 ========================================================
  
                  Total CPU time used (sec):     1901.694
                            User time (sec):     1845.911
                          System time (sec):       55.783
                         Elapsed time (sec):     1917.460
  
                   Maximum memory used (kb):      160724.
                   Average memory used (kb):           0.
  
                          Minor page faults:      6941493
                          Major page faults:            0
                 Voluntary context switches:         8232
