<?xml version="1.0" encoding="ISO-8859-1"?>
<modeling>
 <generator>
  <i name="program" type="string">vasp </i>
  <i name="version" type="string">5.4.1  </i>
  <i name="subversion" type="string">05Feb16 (build Apr 21 2017 13:36:42) gamma-only                       parallel </i>
  <i name="platform" type="string">IFC91_ompi </i>
  <i name="date" type="string">2020 09 15 </i>
  <i name="time" type="string">09:38:10 </i>
 </generator>
 <incar>
  <i type="string" name="SYSTEM"> basalPlane</i>
  <i type="int" name="ISTART">     0</i>
  <i type="string" name="PREC">accurate  !=accurate, max(enmax) no wra</i>
  <i type="string" name="ALGO"> Normal    !=Normal, blocked Davidson it</i>
  <i type="int" name="NSIM">     4</i>
  <i type="int" name="ISPIN">     1</i>
  <i type="int" name="ICHARG">     2</i>
  <i type="int" name="INIWAV">     1</i>
  <i type="int" name="NELM">   200</i>
  <i type="int" name="NELMDL">    -5</i>
  <i type="int" name="NELMIN">     2</i>
  <i type="int" name="IBRION">     2</i>
  <i name="EDIFF">      0.00010000</i>
  <i name="EDIFFG">     -0.02000000</i>
  <i type="int" name="NSW"> 10000</i>
  <i type="int" name="ISIF">     2</i>
  <i type="int" name="ISYM">     2</i>
  <i name="ENCUT">    400.00000000</i>
  <i name="ENAUG">    645.00000000</i>
  <i type="string" name="LREAL"> Auto     !=Auto projection operators ev</i>
  <i type="logical" name="LPLANE"> T  </i>
  <i type="int" name="ISMEAR">     0</i>
  <i name="SIGMA">      0.10000000</i>
  <i type="int" name="NWRITE">     2</i>
  <i type="logical" name="LWAVE"> F  </i>
  <i type="logical" name="LCHARG"> F  </i>
  <i type="logical" name="LORBIT"> F  </i>
  <i type="logical" name="LELF"> F  </i>
  <i type="logical" name="LSCALU"> F  </i>
  <v type="int" name="KPOINT_BSE">    -1     0     0     0</v>
  <i type="int" name="NELM">   200</i>
 </incar>
 <kpoints>
  <varray name="kpointlist" >
   <v>       0.00000000       0.00000000       0.00000000 </v>
  </varray>
  <varray name="weights" >
   <v>       1.00000000 </v>
  </varray>
 </kpoints>
 <parameters>
  <separator name="general" >
   <i type="string" name="SYSTEM">basalPlane</i>
   <i type="logical" name="LCOMPAT"> F  </i>
  </separator>
  <separator name="electronic" >
   <i type="string" name="PREC">accura</i>
   <i name="ENMAX">    400.00000000</i>
   <i name="ENAUG">    645.00000000</i>
   <i name="EDIFF">      0.00010000</i>
   <i type="int" name="IALGO">    38</i>
   <i type="int" name="IWAVPR">    11</i>
   <i type="int" name="NBANDS">   300</i>
   <i name="NELECT">    491.00000000</i>
   <i type="int" name="TURBO">     0</i>
   <i type="int" name="IRESTART">     0</i>
   <i type="int" name="NREBOOT">     0</i>
   <i type="int" name="NMIN">     0</i>
   <i name="EREF">      0.00000000</i>
   <separator name="electronic smearing" >
    <i type="int" name="ISMEAR">     0</i>
    <i name="SIGMA">      0.10000000</i>
    <i name="KSPACING">      0.50000000</i>
    <i type="logical" name="KGAMMA"> T  </i>
   </separator>
   <separator name="electronic projectors" >
    <i type="logical" name="LREAL"> T  </i>
    <v name="ROPT">     -0.00025000     -0.00025000     -0.00025000     -0.00025000     -0.00025000</v>
    <i type="int" name="LMAXPAW">  -100</i>
    <i type="int" name="LMAXMIX">     2</i>
    <i type="logical" name="NLSPLINE"> F  </i>
   </separator>
   <separator name="electronic startup" >
    <i type="int" name="ISTART">     0</i>
    <i type="int" name="ICHARG">     2</i>
    <i type="int" name="INIWAV">     1</i>
   </separator>
   <separator name="electronic spin" >
    <i type="int" name="ISPIN">     1</i>
    <i type="logical" name="LNONCOLLINEAR"> F  </i>
    <v name="MAGMOM">      1.00000000      1.00000000      1.00000000      1.00000000      1.00000000      1.00000000      1.00000000      1.00000000      1.00000000      1.00000000      1.00000000      1.00000000      1.00000000      1.00000000      1.00000000      1.00000000      1.00000000      1.00000000      1.00000000      1.00000000
      1.00000000      1.00000000      1.00000000      1.00000000      1.00000000      1.00000000      1.00000000      1.00000000      1.00000000      1.00000000      1.00000000      1.00000000      1.00000000      1.00000000      1.00000000      1.00000000      1.00000000      1.00000000      1.00000000      1.00000000
      1.00000000      1.00000000      1.00000000      1.00000000      1.00000000      1.00000000      1.00000000      1.00000000      1.00000000      1.00000000      1.00000000      1.00000000      1.00000000      1.00000000      1.00000000      1.00000000      1.00000000      1.00000000      1.00000000      1.00000000
      1.00000000      1.00000000      1.00000000      1.00000000      1.00000000      1.00000000      1.00000000      1.00000000      1.00000000      1.00000000      1.00000000      1.00000000      1.00000000      1.00000000      1.00000000      1.00000000      1.00000000      1.00000000      1.00000000      1.00000000
      1.00000000      1.00000000      1.00000000      1.00000000      1.00000000      1.00000000      1.00000000      1.00000000      1.00000000      1.00000000      1.00000000      1.00000000      1.00000000</v>
    <i name="NUPDOWN">     -1.00000000</i>
    <i type="logical" name="LSORBIT"> F  </i>
    <v name="SAXIS">      0.00000000      0.00000000      1.00000000</v>
    <i type="logical" name="LSPIRAL"> F  </i>
    <v name="QSPIRAL">      0.00000000      0.00000000      0.00000000</v>
    <i type="logical" name="LZEROZ"> F  </i>
   </separator>
   <separator name="electronic exchange-correlation" >
    <i type="logical" name="LASPH"> F  </i>
    <i type="logical" name="LMETAGGA"> F  </i>
   </separator>
   <separator name="electronic convergence" >
    <i type="int" name="NELM">   200</i>
    <i type="int" name="NELMDL">    -5</i>
    <i type="int" name="NELMIN">     2</i>
    <i name="ENINI">    400.00000000</i>
    <separator name="electronic convergence detail" >
     <i type="logical" name="LDIAG"> T  </i>
     <i type="logical" name="LSUBROT"> F  </i>
     <i name="WEIMIN">      0.00100000</i>
     <i name="EBREAK">      0.00000008</i>
     <i name="DEPER">      0.30000000</i>
     <i type="int" name="NRMM">     4</i>
     <i name="TIME">      0.40000000</i>
    </separator>
   </separator>
   <separator name="electronic mixer" >
    <i name="AMIX">      0.40000000</i>
    <i name="BMIX">      1.00000000</i>
    <i name="AMIN">      0.10000000</i>
    <i name="AMIX_MAG">      1.60000000</i>
    <i name="BMIX_MAG">      1.00000000</i>
    <separator name="electronic mixer details" >
     <i type="int" name="IMIX">     4</i>
     <i type="logical" name="MIXFIRST"> F  </i>
     <i type="int" name="MAXMIX">   -45</i>
     <i name="WC">    100.00000000</i>
     <i type="int" name="INIMIX">     1</i>
     <i type="int" name="MIXPRE">     1</i>
     <i type="int" name="MREMOVE">     5</i>
    </separator>
   </separator>
   <separator name="electronic dipolcorrection" >
    <i type="logical" name="LDIPOL"> F  </i>
    <i type="logical" name="LMONO"> F  </i>
    <i type="int" name="IDIPOL">     0</i>
    <i name="EPSILON">      1.00000000</i>
    <v name="DIPOL">   -100.00000000   -100.00000000   -100.00000000</v>
    <i name="EFIELD">      0.00000000</i>
   </separator>
  </separator>
  <separator name="grids" >
   <i type="int" name="NGX">    64</i>
   <i type="int" name="NGY">    84</i>
   <i type="int" name="NGZ">   240</i>
   <i type="int" name="NGXF">   128</i>
   <i type="int" name="NGYF">   168</i>
   <i type="int" name="NGZF">   480</i>
   <i type="logical" name="ADDGRID"> F  </i>
  </separator>
  <separator name="ionic" >
   <i type="int" name="NSW"> 10000</i>
   <i type="int" name="IBRION">     2</i>
   <i type="int" name="ISIF">     2</i>
   <i name="PSTRESS">      0.00000000</i>
   <i name="EDIFFG">     -0.02000000</i>
   <i type="int" name="NFREE">     1</i>
   <i name="POTIM">      0.50000000</i>
   <i name="SMASS">     -3.00000000</i>
   <i name="SCALEE">      1.00000000</i>
  </separator>
  <separator name="ionic md" >
   <i name="TEBEG">      0.00010000</i>
   <i name="TEEND">      0.00010000</i>
   <i type="int" name="NBLOCK">     1</i>
   <i type="int" name="KBLOCK"> 10000</i>
   <i type="int" name="NPACO">   256</i>
   <i name="APACO">     16.00000000</i>
  </separator>
  <separator name="symmetry" >
   <i type="int" name="ISYM">     2</i>
   <i name="SYMPREC">      0.00001000</i>
  </separator>
  <separator name="dos" >
   <i type="logical" name="LORBIT"> F  </i>
   <v name="RWIGS">     -1.00000000     -1.00000000     -1.00000000     -1.00000000     -1.00000000</v>
   <i type="int" name="NEDOS">   301</i>
   <i name="EMIN">     10.00000000</i>
   <i name="EMAX">    -10.00000000</i>
   <i name="EFERMI">      0.00000000</i>
  </separator>
  <separator name="writing" >
   <i type="int" name="NWRITE">     2</i>
   <i type="logical" name="LWAVE"> F  </i>
   <i type="logical" name="LCHARG"> F  </i>
   <i type="logical" name="LPARD"> F  </i>
   <i type="logical" name="LVTOT"> F  </i>
   <i type="logical" name="LVHAR"> F  </i>
   <i type="logical" name="LELF"> F  </i>
   <i type="logical" name="LOPTICS"> F  </i>
   <v name="STM">      0.00000000      0.00000000      0.00000000      0.00000000      0.00000000      0.00000000      0.00000000</v>
  </separator>
  <separator name="performance" >
   <i type="int" name="NPAR">    12</i>
   <i type="int" name="NSIM">     4</i>
   <i type="int" name="NBLK">    -1</i>
   <i type="logical" name="LPLANE"> T  </i>
   <i type="logical" name="LSCALAPACK"> T  </i>
   <i type="logical" name="LSCAAWARE"> F  </i>
   <i type="logical" name="LSCALU"> F  </i>
   <i type="logical" name="LASYNC"> F  </i>
   <i type="logical" name="LORBITALREAL"> F  </i>
  </separator>
  <separator name="miscellaneous" >
   <i type="int" name="IDIOT">     3</i>
   <i type="logical" name="LMUSIC"> F  </i>
   <v name="POMASS">     12.01100000     58.93300000      1.00000000     95.94000000     32.06600000</v>
   <v name="DARWINR">      0.00000000      0.00000000      0.00000000      0.00000000      0.00000000</v>
   <v name="DARWINV">      1.00000000      1.00000000      1.00000000      1.00000000      1.00000000</v>
   <i type="logical" name="LCORR"> T  </i>
  </separator>
  <i type="logical" name="GGA_COMPAT"> T  </i>
  <i type="logical" name="LBERRY"> F  </i>
  <i type="int" name="ICORELEVEL">     0</i>
  <i type="logical" name="LDAU"> F  </i>
  <i type="int" name="I_CONSTRAINED_M">     0</i>
  <separator name="electronic exchange-correlation" >
   <i type="string" name="GGA">--</i>
   <i type="int" name="VOSKOWN">     0</i>
   <i type="logical" name="LHFCALC"> F  </i>
   <i type="string" name="PRECFOCK"></i>
   <i type="logical" name="LSYMGRAD"> F  </i>
   <i type="logical" name="LHFONE"> F  </i>
   <i type="logical" name="LRHFCALC"> F  </i>
   <i type="logical" name="LTHOMAS"> F  </i>
   <i type="logical" name="LMODELHF"> F  </i>
   <i name="ENCUT4O">     -1.00000000</i>
   <i type="int" name="EXXOEP">     0</i>
   <i type="int" name="FOURORBIT">     0</i>
   <i name="AEXX">      0.00000000</i>
   <i name="HFALPHA">      0.00000000</i>
   <i name="MCALPHA">      0.00000000</i>
   <i name="ALDAX">      1.00000000</i>
   <i name="AGGAX">      1.00000000</i>
   <i name="ALDAC">      1.00000000</i>
   <i name="AGGAC">      1.00000000</i>
   <i type="int" name="NKREDX">     1</i>
   <i type="int" name="NKREDY">     1</i>
   <i type="int" name="NKREDZ">     1</i>
   <i type="logical" name="SHIFTRED"> F  </i>
   <i type="logical" name="ODDONLY"> F  </i>
   <i type="logical" name="EVENONLY"> F  </i>
   <i type="int" name="LMAXFOCK">     0</i>
   <i type="int" name="NMAXFOCKAE">     0</i>
   <i type="logical" name="LFOCKAEDFT"> F  </i>
   <i name="HFSCREEN">      0.00000000</i>
   <i name="HFSCREENC">      0.00000000</i>
   <i type="int" name="NBANDSGWLOW">     0</i>
  </separator>
  <separator name="vdW DFT" >
   <i type="logical" name="LUSE_VDW"> F  </i>
   <i name="Zab_VDW">     -0.84910000</i>
   <i name="PARAM1">      0.12340000</i>
   <i name="PARAM2">      1.00000000</i>
   <i name="PARAM3">      0.00000000</i>
  </separator>
  <separator name="model GW" >
   <i type="int" name="MODEL_GW">     0</i>
   <i name="MODEL_EPS0">     23.80275655</i>
   <i name="MODEL_ALPHA">      1.00000000</i>
  </separator>
  <separator name="linear response parameters" >
   <i type="logical" name="LEPSILON"> F  </i>
   <i type="logical" name="LRPA"> F  </i>
   <i type="logical" name="LNABLA"> F  </i>
   <i type="logical" name="LVEL"> F  </i>
   <i type="int" name="KINTER">     0</i>
   <i name="CSHIFT">      0.10000000</i>
   <i name="OMEGAMAX">     -1.00000000</i>
   <i name="DEG_THRESHOLD">      0.00200000</i>
  </separator>
  <separator name="orbital magnetization" >
   <i type="logical" name="NUCIND"> F  </i>
   <v name="MAGPOS">      0.00000000      0.00000000      0.00000000</v>
   <i type="logical" name="LNICSALL"> T  </i>
   <i type="logical" name="ORBITALMAG"> F  </i>
   <i type="logical" name="LMAGBLOCH"> F  </i>
   <i type="logical" name="LCHIMAG"> F  </i>
   <i type="logical" name="LGAUGE"> T  </i>
   <i type="int" name="MAGATOM">     0</i>
   <v name="MAGDIPOL">      0.00000000      0.00000000      0.00000000</v>
   <v name="AVECCONST">      0.00000000      0.00000000      0.00000000</v>
  </separator>
  <separator name="response functions" >
   <i type="logical" name="LADDER"> F  </i>
   <i type="logical" name="LFXC"> F  </i>
   <i type="logical" name="LHARTREE"> T  </i>
   <i type="int" name="IBSE">     0</i>
   <v type="int" name="KPOINT">    -1     0     0     0</v>
   <i type="logical" name="LTCTE"> F  </i>
   <i type="logical" name="LTETE"> F  </i>
   <i type="logical" name="LTRIPLET"> F  </i>
   <i type="logical" name="LFXCEPS"> F  </i>
   <i type="logical" name="LFXHEG"> F  </i>
   <i type="int" name="NATURALO">     0</i>
   <i type="logical" name="L2ORDER"> F  </i>
   <i type="logical" name="LUSEW"> F  </i>
   <i name="ENCUTGW">     -2.00000000</i>
   <i name="ENCUTGWSOFT">     -2.00000000</i>
   <i name="ENCUTLF">     -1.00000000</i>
   <i type="int" name="LMAXMP2">    -1</i>
   <i name="SCISSOR">      0.00000000</i>
   <i type="int" name="NOMEGA">     0</i>
   <i type="int" name="NOMEGAR">     0</i>
   <i type="int" name="NBANDSGW">    -1</i>
   <i type="int" name="NBANDSO">    -1</i>
   <i type="int" name="NBANDSV">    -1</i>
   <i type="int" name="NELM">   200</i>
   <i type="int" name="NELMHF">     1</i>
   <i type="int" name="DIM">     3</i>
   <i type="int" name="ANTIRES">     0</i>
   <i name="OMEGAMAX">    -30.00000000</i>
   <i name="OMEGAMIN">    -30.00000000</i>
   <i name="OMEGATL">   -200.00000000</i>
   <i type="int" name="OMEGAGRID">     0</i>
   <i name="CSHIFT">     -0.10000000</i>
   <i type="logical" name="SELFENERGY"> F  </i>
   <i type="logical" name="LSPECTRAL"> F  </i>
   <i type="logical" name="LSPECTRALGW"> F  </i>
   <i type="logical" name="LSINGLES"> F  </i>
   <i type="logical" name="LFERMIGW"> F  </i>
   <i type="logical" name="ODDONLYGW"> F  </i>
   <i type="logical" name="EVENONLYGW"> F  </i>
   <i type="int" name="NKREDLFX">     1</i>
   <i type="int" name="NKREDLFY">     1</i>
   <i type="int" name="NKREDLFZ">     1</i>
   <i type="int" name="MAXMEM">  1800</i>
   <i type="int" name="TELESCOPE">     0</i>
   <i type="int" name="TAUPAR">     1</i>
   <i type="int" name="OMEGAPAR">    -1</i>
   <i name="LAMBDA">      1.00000000</i>
  </separator>
  <separator name="External order field" >
   <i name="OFIELD_KAPPA">      0.00000000</i>
   <v name="OFIELD_K">      0.00000000      0.00000000      0.00000000</v>
   <i name="OFIELD_Q6_NEAR">      0.00000000</i>
   <i name="OFIELD_Q6_FAR">      0.00000000</i>
   <i name="OFIELD_A">      0.00000000</i>
  </separator>
 </parameters>
 <atominfo>
  <atoms>      93 </atoms>
  <types>       5 </types>
  <array name="atoms" >
   <dimension dim="1">ion</dimension>
   <field type="string">element</field>
   <field type="int">atomtype</field>
   <set>
    <rc><c>C </c><c>   1</c></rc>
    <rc><c>C </c><c>   1</c></rc>
    <rc><c>C </c><c>   1</c></rc>
    <rc><c>C </c><c>   1</c></rc>
    <rc><c>C </c><c>   1</c></rc>
    <rc><c>C </c><c>   1</c></rc>
    <rc><c>C </c><c>   1</c></rc>
    <rc><c>C </c><c>   1</c></rc>
    <rc><c>C </c><c>   1</c></rc>
    <rc><c>C </c><c>   1</c></rc>
    <rc><c>Co</c><c>   2</c></rc>
    <rc><c>H </c><c>   3</c></rc>
    <rc><c>H </c><c>   3</c></rc>
    <rc><c>H </c><c>   3</c></rc>
    <rc><c>H </c><c>   3</c></rc>
    <rc><c>H </c><c>   3</c></rc>
    <rc><c>H </c><c>   3</c></rc>
    <rc><c>H </c><c>   3</c></rc>
    <rc><c>H </c><c>   3</c></rc>
    <rc><c>H </c><c>   3</c></rc>
    <rc><c>H </c><c>   3</c></rc>
    <rc><c>Mo</c><c>   4</c></rc>
    <rc><c>Mo</c><c>   4</c></rc>
    <rc><c>Mo</c><c>   4</c></rc>
    <rc><c>Mo</c><c>   4</c></rc>
    <rc><c>Mo</c><c>   4</c></rc>
    <rc><c>Mo</c><c>   4</c></rc>
    <rc><c>Mo</c><c>   4</c></rc>
    <rc><c>Mo</c><c>   4</c></rc>
    <rc><c>Mo</c><c>   4</c></rc>
    <rc><c>Mo</c><c>   4</c></rc>
    <rc><c>Mo</c><c>   4</c></rc>
    <rc><c>Mo</c><c>   4</c></rc>
    <rc><c>Mo</c><c>   4</c></rc>
    <rc><c>Mo</c><c>   4</c></rc>
    <rc><c>Mo</c><c>   4</c></rc>
    <rc><c>Mo</c><c>   4</c></rc>
    <rc><c>Mo</c><c>   4</c></rc>
    <rc><c>Mo</c><c>   4</c></rc>
    <rc><c>Mo</c><c>   4</c></rc>
    <rc><c>Mo</c><c>   4</c></rc>
    <rc><c>Mo</c><c>   4</c></rc>
    <rc><c>Mo</c><c>   4</c></rc>
    <rc><c>Mo</c><c>   4</c></rc>
    <rc><c>Mo</c><c>   4</c></rc>
    <rc><c>S </c><c>   5</c></rc>
    <rc><c>S </c><c>   5</c></rc>
    <rc><c>S </c><c>   5</c></rc>
    <rc><c>S </c><c>   5</c></rc>
    <rc><c>S </c><c>   5</c></rc>
    <rc><c>S </c><c>   5</c></rc>
    <rc><c>S </c><c>   5</c></rc>
    <rc><c>S </c><c>   5</c></rc>
    <rc><c>S </c><c>   5</c></rc>
    <rc><c>S </c><c>   5</c></rc>
    <rc><c>S </c><c>   5</c></rc>
    <rc><c>S </c><c>   5</c></rc>
    <rc><c>S </c><c>   5</c></rc>
    <rc><c>S </c><c>   5</c></rc>
    <rc><c>S </c><c>   5</c></rc>
    <rc><c>S </c><c>   5</c></rc>
    <rc><c>S </c><c>   5</c></rc>
    <rc><c>S </c><c>   5</c></rc>
    <rc><c>S </c><c>   5</c></rc>
    <rc><c>S </c><c>   5</c></rc>
    <rc><c>S </c><c>   5</c></rc>
    <rc><c>S </c><c>   5</c></rc>
    <rc><c>S </c><c>   5</c></rc>
    <rc><c>S </c><c>   5</c></rc>
    <rc><c>S </c><c>   5</c></rc>
    <rc><c>S </c><c>   5</c></rc>
    <rc><c>S </c><c>   5</c></rc>
    <rc><c>S </c><c>   5</c></rc>
    <rc><c>S </c><c>   5</c></rc>
    <rc><c>S </c><c>   5</c></rc>
    <rc><c>S </c><c>   5</c></rc>
    <rc><c>S </c><c>   5</c></rc>
    <rc><c>S </c><c>   5</c></rc>
    <rc><c>S </c><c>   5</c></rc>
    <rc><c>S </c><c>   5</c></rc>
    <rc><c>S </c><c>   5</c></rc>
    <rc><c>S </c><c>   5</c></rc>
    <rc><c>S </c><c>   5</c></rc>
    <rc><c>S </c><c>   5</c></rc>
    <rc><c>S </c><c>   5</c></rc>
    <rc><c>S </c><c>   5</c></rc>
    <rc><c>S </c><c>   5</c></rc>
    <rc><c>S </c><c>   5</c></rc>
    <rc><c>S </c><c>   5</c></rc>
    <rc><c>S </c><c>   5</c></rc>
    <rc><c>S </c><c>   5</c></rc>
    <rc><c>S </c><c>   5</c></rc>
    <rc><c>S </c><c>   5</c></rc>
   </set>
  </array>
  <array name="atomtypes" >
   <dimension dim="1">type</dimension>
   <field type="int">atomspertype</field>
   <field type="string">element</field>
   <field>mass</field>
   <field>valence</field>
   <field type="string">pseudopotential</field>
   <set>
    <rc><c>  10</c><c>C </c><c>     12.01100000</c><c>      4.00000000</c><c>  PAW_PBE C 08Apr2002                   </c></rc>
    <rc><c>   1</c><c>Co</c><c>     58.93300000</c><c>      9.00000000</c><c>  PAW_PBE Co 02Aug2007                  </c></rc>
    <rc><c>  10</c><c>H </c><c>      1.00000000</c><c>      1.00000000</c><c>  PAW_PBE H 15Jun2001                   </c></rc>
    <rc><c>  24</c><c>Mo</c><c>     95.94000000</c><c>      6.00000000</c><c>  PAW_PBE Mo 08Apr2002                  </c></rc>
    <rc><c>  48</c><c>S </c><c>     32.06600000</c><c>      6.00000000</c><c>  PAW_PBE S 06Sep2000                   </c></rc>
   </set>
  </array>
 </atominfo>
 <structure name="initialpos" >
  <crystal>
   <varray name="basis" >
    <v>       9.57094646       0.00000000       0.00000000 </v>
    <v>      -6.38062803      11.05157872       0.00000000 </v>
    <v>       0.00000000       0.00000000      34.88026251 </v>
   </varray>
   <i name="volume">   3689.42726549 </i>
   <varray name="rec_basis" >
    <v>       0.10448287       0.06032318       0.00000000 </v>
    <v>       0.00000000       0.09048481       0.00000000 </v>
    <v>       0.00000000       0.00000000       0.02866951 </v>
   </varray>
  </crystal>
  <varray name="positions" >
   <v>       0.89912236       0.44979638       0.47128739 </v>
   <v>       0.73132921       0.37162004       0.46334586 </v>
   <v>       0.91256670       0.53234702       0.50080121 </v>
   <v>       0.75299340       0.50488742       0.51119057 </v>
   <v>       0.64104108       0.40570672       0.48800710 </v>
   <v>       0.79887412       0.58214959       0.39435749 </v>
   <v>       0.71415589       0.67147124       0.43959549 </v>
   <v>       0.65979215       0.57767754       0.41136895 </v>
   <v>       0.88687765       0.73367113       0.44011914 </v>
   <v>       0.93917177       0.67849341       0.41212607 </v>
   <v>       0.79445075       0.55112436       0.45323647 </v>
   <v>       0.51052773       0.36530823       0.48851271 </v>
   <v>       0.53479781       0.51283665       0.40454973 </v>
   <v>       0.96459940       0.80847298       0.45887890 </v>
   <v>       0.63751720       0.69008732       0.45802868 </v>
   <v>       0.79808725       0.52138432       0.37239488 </v>
   <v>       0.68136769       0.30052284       0.44180394 </v>
   <v>       0.99877917       0.44833741       0.45682949 </v>
   <v>       0.02446575       0.60443984       0.51277173 </v>
   <v>       0.72207313       0.55262975       0.53231950 </v>
   <v>       0.06347517       0.70373573       0.40597285 </v>
   <v>       0.55555566       0.08333325       0.25000928 </v>
   <v>       0.55555566       0.33333325       0.25000928 </v>
   <v>       0.44444432       0.41666674       0.74999076 </v>
   <v>       0.55555566       0.58333325       0.25000928 </v>
   <v>       0.44444432       0.66666674       0.74999076 </v>
   <v>       0.55555566       0.83333325       0.25000928 </v>
   <v>       0.44444432       0.91666674       0.74999076 </v>
   <v>       0.88888899       0.33333325       0.25000928 </v>
   <v>       0.77777765       0.16666674       0.74999076 </v>
   <v>       0.77777765       0.41666674       0.74999076 </v>
   <v>       0.88888899       0.58333325       0.25000928 </v>
   <v>       0.77777765       0.66666674       0.74999076 </v>
   <v>       0.88888899       0.83333325       0.25000928 </v>
   <v>       0.77777765       0.91666674       0.74999076 </v>
   <v>       0.11111099       0.91666674       0.74999076 </v>
   <v>       0.88888899       0.08333325       0.25000928 </v>
   <v>       0.22222233       0.83333325       0.25000928 </v>
   <v>       0.44444432       0.16666674       0.74999076 </v>
   <v>       0.22222233       0.58333325       0.25000928 </v>
   <v>       0.11111099       0.41666674       0.74999076 </v>
   <v>       0.22222233       0.33333325       0.25000928 </v>
   <v>       0.22222233       0.08333325       0.25000928 </v>
   <v>       0.11111099       0.16666674       0.74999076 </v>
   <v>       0.11111099       0.66666674       0.74999076 </v>
   <v>       0.77777765       0.16666674       0.29487388 </v>
   <v>       0.88888899       0.08333325       0.79485533 </v>
   <v>       0.77777765       0.16666674       0.20514467 </v>
   <v>       0.88888899       0.08333325       0.70512613 </v>
   <v>       0.22222233       0.08333325       0.70512613 </v>
   <v>       0.11111099       0.16666674       0.20514467 </v>
   <v>       0.77777765       0.41666674       0.29487388 </v>
   <v>       0.88888899       0.33333325       0.79485533 </v>
   <v>       0.11111099       0.66666674       0.20514467 </v>
   <v>       0.55555566       0.83333325       0.70512613 </v>
   <v>       0.88888899       0.33333325       0.70512613 </v>
   <v>       0.22222233       0.08333325       0.79485533 </v>
   <v>       0.11111099       0.16666674       0.29487388 </v>
   <v>       0.77777765       0.66666674       0.29487388 </v>
   <v>       0.88888899       0.58333325       0.79485533 </v>
   <v>       0.77777765       0.66666674       0.20514467 </v>
   <v>       0.88888899       0.58333325       0.70512613 </v>
   <v>       0.77777765       0.91666674       0.29487388 </v>
   <v>       0.88888899       0.83333325       0.79485533 </v>
   <v>       0.77777765       0.41666674       0.20514467 </v>
   <v>       0.44444432       0.91666674       0.20514467 </v>
   <v>       0.44444432       0.91666674       0.29487388 </v>
   <v>       0.22222233       0.58333325       0.70512613 </v>
   <v>       0.22222233       0.58333325       0.79485533 </v>
   <v>       0.11111099       0.91666674       0.29487388 </v>
   <v>       0.22222233       0.83333325       0.79485533 </v>
   <v>       0.11111099       0.91666674       0.20514467 </v>
   <v>       0.22222233       0.83333325       0.70512613 </v>
   <v>       0.11111099       0.66666674       0.29487388 </v>
   <v>       0.77777765       0.91666674       0.20514467 </v>
   <v>       0.44444432       0.16666674       0.29487388 </v>
   <v>       0.55555566       0.08333325       0.79485533 </v>
   <v>       0.44444432       0.16666674       0.20514467 </v>
   <v>       0.55555566       0.08333325       0.70512613 </v>
   <v>       0.44444432       0.41666674       0.29487388 </v>
   <v>       0.55555566       0.33333325       0.79485533 </v>
   <v>       0.44444432       0.41666674       0.20514467 </v>
   <v>       0.55555566       0.33333325       0.70512613 </v>
   <v>       0.22222233       0.33333325       0.70512613 </v>
   <v>       0.11111099       0.41666674       0.20514467 </v>
   <v>       0.44444432       0.66666674       0.29487388 </v>
   <v>       0.55555566       0.58333325       0.79485533 </v>
   <v>       0.44444432       0.66666674       0.20514467 </v>
   <v>       0.55555566       0.58333325       0.70512613 </v>
   <v>       0.22222233       0.33333325       0.79485533 </v>
   <v>       0.11111099       0.41666674       0.29487388 </v>
   <v>       0.55555566       0.83333325       0.79485533 </v>
   <v>       0.88888899       0.83333325       0.70512613 </v>
  </varray>
 </structure>
 <calculation>
  <scstep>
   <time name="dav">    5.34    5.35</time>
   <time name="total">    5.74    5.78</time>
   <energy>
    <i name="alphaZ">    562.94535741 </i>
    <i name="ewald">  39132.44878261 </i>
    <i name="hartreedc"> -58548.58144060 </i>
    <i name="XCdc">   -700.94356439 </i>
    <i name="pawpsdc">  18640.80374730 </i>
    <i name="pawaedc"> -16838.49265242 </i>
    <i name="eentropy">     -0.17786675 </i>
    <i name="bandstr">   1195.79054228 </i>
    <i name="atom">  20917.06298232 </i>
    <i name="e_fr_energy">   4360.85588778 </i>
    <i name="e_wo_entrp">   4361.03375453 </i>
    <i name="e_0_energy">   4360.94482115 </i>
   </energy>
  </scstep>
  <scstep>
   <time name="dav">    7.53    7.57</time>
   <time name="total">    7.53    7.57</time>
   <energy>
    <i name="e_fr_energy">    -22.29173420 </i>
    <i name="e_wo_entrp">    -22.19709055 </i>
    <i name="e_0_energy">    -22.24441238 </i>
   </energy>
  </scstep>
  <scstep>
   <time name="dav">    6.01    6.03</time>
   <time name="total">    6.01    6.03</time>
   <energy>
    <i name="e_fr_energy">   -678.20196842 </i>
    <i name="e_wo_entrp">   -678.11210526 </i>
    <i name="e_0_energy">   -678.15703684 </i>
   </energy>
  </scstep>
  <scstep>
   <time name="dav">    6.67    6.72</time>
   <time name="total">    6.67    6.90</time>
   <energy>
    <i name="e_fr_energy">   -709.71699991 </i>
    <i name="e_wo_entrp">   -709.62719119 </i>
    <i name="e_0_energy">   -709.67209555 </i>
   </energy>
  </scstep>
  <scstep>
   <time name="dav">    7.08    7.10</time>
   <time name="total">    7.67    7.70</time>
   <energy>
    <i name="e_fr_energy">   -710.79969957 </i>
    <i name="e_wo_entrp">   -710.70632535 </i>
    <i name="e_0_energy">   -710.75301246 </i>
   </energy>
  </scstep>
  <scstep>
   <time name="dav">    6.38    6.40</time>
   <time name="total">    7.33    7.35</time>
   <energy>
    <i name="e_fr_energy">   -690.96684160 </i>
    <i name="e_wo_entrp">   -690.82971232 </i>
    <i name="e_0_energy">   -690.89827696 </i>
   </energy>
  </scstep>
  <scstep>
   <time name="dav">    6.66    6.71</time>
   <time name="total">    7.65    7.70</time>
   <energy>
    <i name="e_fr_energy">   -712.21996642 </i>
    <i name="e_wo_entrp">   -712.03022609 </i>
    <i name="e_0_energy">   -712.12509625 </i>
   </energy>
  </scstep>
  <scstep>
   <time name="dav">    6.94    6.95</time>
   <time name="total">    7.90    7.92</time>
   <energy>
    <i name="e_fr_energy">   -734.67704979 </i>
    <i name="e_wo_entrp">   -734.26745487 </i>
    <i name="e_0_energy">   -734.47225233 </i>
   </energy>
  </scstep>
  <scstep>
   <time name="dav">    6.58    6.60</time>
   <time name="total">    7.55    7.57</time>
   <energy>
    <i name="e_fr_energy">   -780.40472916 </i>
    <i name="e_wo_entrp">   -780.04632728 </i>
    <i name="e_0_energy">   -780.22552822 </i>
   </energy>
  </scstep>
  <scstep>
   <time name="dav">    6.75    6.77</time>
   <time name="total">    7.70    7.72</time>
   <energy>
    <i name="e_fr_energy">   -687.50897151 </i>
    <i name="e_wo_entrp">   -687.43874424 </i>
    <i name="e_0_energy">   -687.47385787 </i>
   </energy>
  </scstep>
  <scstep>
   <time name="dav">    6.76    6.78</time>
   <time name="total">    7.70    7.73</time>
   <energy>
    <i name="e_fr_energy">   -664.72407014 </i>
    <i name="e_wo_entrp">   -664.60947439 </i>
    <i name="e_0_energy">   -664.66677226 </i>
   </energy>
  </scstep>
  <scstep>
   <time name="dav">    6.78    6.80</time>
   <time name="total">    7.73    7.75</time>
   <energy>
    <i name="e_fr_energy">   -659.08118631 </i>
    <i name="e_wo_entrp">   -658.99174412 </i>
    <i name="e_0_energy">   -659.03646522 </i>
   </energy>
  </scstep>
  <scstep>
   <time name="dav">    6.47    6.48</time>
   <time name="total">    7.41    7.43</time>
   <energy>
    <i name="e_fr_energy">   -659.32429210 </i>
    <i name="e_wo_entrp">   -659.23456790 </i>
    <i name="e_0_energy">   -659.27943000 </i>
   </energy>
  </scstep>
  <scstep>
   <time name="dav">    7.13    7.15</time>
   <time name="total">    8.07    8.09</time>
   <energy>
    <i name="e_fr_energy">   -659.49768238 </i>
    <i name="e_wo_entrp">   -659.40828386 </i>
    <i name="e_0_energy">   -659.45298312 </i>
   </energy>
  </scstep>
  <scstep>
   <time name="dav">    6.80    6.87</time>
   <time name="total">    7.73    7.82</time>
   <energy>
    <i name="e_fr_energy">   -659.48210366 </i>
    <i name="e_wo_entrp">   -659.39239713 </i>
    <i name="e_0_energy">   -659.43725039 </i>
   </energy>
  </scstep>
  <scstep>
   <time name="dav">    6.74    6.77</time>
   <time name="total">    7.67    7.72</time>
   <energy>
    <i name="e_fr_energy">   -662.18155473 </i>
    <i name="e_wo_entrp">   -662.02130834 </i>
    <i name="e_0_energy">   -662.10143154 </i>
   </energy>
  </scstep>
  <scstep>
   <time name="dav">    6.67    6.69</time>
   <time name="total">    7.61    7.64</time>
   <energy>
    <i name="e_fr_energy">   -660.35148441 </i>
    <i name="e_wo_entrp">   -660.20136874 </i>
    <i name="e_0_energy">   -660.27642658 </i>
   </energy>
  </scstep>
  <scstep>
   <time name="dav">    7.15    7.17</time>
   <time name="total">    8.10    8.13</time>
   <energy>
    <i name="e_fr_energy">   -658.49386881 </i>
    <i name="e_wo_entrp">   -658.40567834 </i>
    <i name="e_0_energy">   -658.44977358 </i>
   </energy>
  </scstep>
  <scstep>
   <time name="dav">    6.78    6.80</time>
   <time name="total">    7.72    7.75</time>
   <energy>
    <i name="e_fr_energy">   -658.87539090 </i>
    <i name="e_wo_entrp">   -658.72240526 </i>
    <i name="e_0_energy">   -658.79889808 </i>
   </energy>
  </scstep>
  <scstep>
   <time name="dav">    6.96    6.99</time>
   <time name="total">    7.92    7.95</time>
   <energy>
    <i name="e_fr_energy">   -657.30259636 </i>
    <i name="e_wo_entrp">   -657.21474197 </i>
    <i name="e_0_energy">   -657.25866916 </i>
   </energy>
  </scstep>
  <scstep>
   <time name="dav">    6.73    6.75</time>
   <time name="total">    7.72    7.74</time>
   <energy>
    <i name="e_fr_energy">   -656.94296238 </i>
    <i name="e_wo_entrp">   -656.83542703 </i>
    <i name="e_0_energy">   -656.88919471 </i>
   </energy>
  </scstep>
  <scstep>
   <time name="dav">    6.97    6.99</time>
   <time name="total">    7.96    8.00</time>
   <energy>
    <i name="e_fr_energy">   -656.74455169 </i>
    <i name="e_wo_entrp">   -656.63008253 </i>
    <i name="e_0_energy">   -656.68731711 </i>
   </energy>
  </scstep>
  <scstep>
   <time name="dav">    6.51    6.54</time>
   <time name="total">    7.50    7.55</time>
   <energy>
    <i name="e_fr_energy">   -656.69323521 </i>
    <i name="e_wo_entrp">   -656.56517874 </i>
    <i name="e_0_energy">   -656.62920697 </i>
   </energy>
  </scstep>
  <scstep>
   <time name="dav">    6.28    6.31</time>
   <time name="total">    7.27    7.38</time>
   <energy>
    <i name="e_fr_energy">   -656.62971277 </i>
    <i name="e_wo_entrp">   -656.53311835 </i>
    <i name="e_0_energy">   -656.58141556 </i>
   </energy>
  </scstep>
  <scstep>
   <time name="dav">    5.89    5.91</time>
   <time name="total">    6.88    6.92</time>
   <energy>
    <i name="e_fr_energy">   -656.61967634 </i>
    <i name="e_wo_entrp">   -656.52233546 </i>
    <i name="e_0_energy">   -656.57100590 </i>
   </energy>
  </scstep>
  <scstep>
   <time name="dav">    6.10    6.15</time>
   <time name="total">    7.09    7.14</time>
   <energy>
    <i name="e_fr_energy">   -656.62703538 </i>
    <i name="e_wo_entrp">   -656.52658600 </i>
    <i name="e_0_energy">   -656.57681069 </i>
   </energy>
  </scstep>
  <scstep>
   <time name="dav">    6.45    6.48</time>
   <time name="total">    7.44    7.47</time>
   <energy>
    <i name="e_fr_energy">   -656.69290241 </i>
    <i name="e_wo_entrp">   -656.59767586 </i>
    <i name="e_0_energy">   -656.64528914 </i>
   </energy>
  </scstep>
  <scstep>
   <time name="dav">    6.47    6.53</time>
   <time name="total">    7.46    7.64</time>
   <energy>
    <i name="e_fr_energy">   -656.65155563 </i>
    <i name="e_wo_entrp">   -656.55524375 </i>
    <i name="e_0_energy">   -656.60339969 </i>
   </energy>
  </scstep>
  <scstep>
   <time name="dav">    6.81    6.86</time>
   <time name="total">    7.80    7.86</time>
   <energy>
    <i name="e_fr_energy">   -656.57494307 </i>
    <i name="e_wo_entrp">   -656.47406630 </i>
    <i name="e_0_energy">   -656.52450468 </i>
   </energy>
  </scstep>
  <scstep>
   <time name="dav">    6.81    6.84</time>
   <time name="total">    7.81    7.85</time>
   <energy>
    <i name="e_fr_energy">   -656.48882761 </i>
    <i name="e_wo_entrp">   -656.37967778 </i>
    <i name="e_0_energy">   -656.43425269 </i>
   </energy>
  </scstep>
  <scstep>
   <time name="dav">    6.54    6.56</time>
   <time name="total">    7.52    7.57</time>
   <energy>
    <i name="e_fr_energy">   -656.47616407 </i>
    <i name="e_wo_entrp">   -656.35769310 </i>
    <i name="e_0_energy">   -656.41692859 </i>
   </energy>
  </scstep>
  <scstep>
   <time name="dav">    6.12    6.14</time>
   <time name="total">    7.10    7.14</time>
   <energy>
    <i name="e_fr_energy">   -656.45776629 </i>
    <i name="e_wo_entrp">   -656.33933492 </i>
    <i name="e_0_energy">   -656.39855061 </i>
   </energy>
  </scstep>
  <scstep>
   <time name="dav">    6.89    6.91</time>
   <time name="total">    7.88    7.90</time>
   <energy>
    <i name="e_fr_energy">   -656.44564471 </i>
    <i name="e_wo_entrp">   -656.33126827 </i>
    <i name="e_0_energy">   -656.38845649 </i>
   </energy>
  </scstep>
  <scstep>
   <time name="dav">    6.43    6.45</time>
   <time name="total">    7.42    7.45</time>
   <energy>
    <i name="e_fr_energy">   -656.42647551 </i>
    <i name="e_wo_entrp">   -656.30876560 </i>
    <i name="e_0_energy">   -656.36762055 </i>
   </energy>
  </scstep>
  <scstep>
   <time name="dav">    6.66    6.68</time>
   <time name="total">    7.66    7.68</time>
   <energy>
    <i name="e_fr_energy">   -656.42106168 </i>
    <i name="e_wo_entrp">   -656.30368924 </i>
    <i name="e_0_energy">   -656.36237546 </i>
   </energy>
  </scstep>
  <scstep>
   <time name="dav">    6.51    6.53</time>
   <time name="total">    7.50    7.53</time>
   <energy>
    <i name="e_fr_energy">   -656.41119258 </i>
    <i name="e_wo_entrp">   -656.29436030 </i>
    <i name="e_0_energy">   -656.35277644 </i>
   </energy>
  </scstep>
  <scstep>
   <time name="dav">    6.44    6.45</time>
   <time name="total">    7.43    7.45</time>
   <energy>
    <i name="e_fr_energy">   -656.40533127 </i>
    <i name="e_wo_entrp">   -656.29393093 </i>
    <i name="e_0_energy">   -656.34963110 </i>
   </energy>
  </scstep>
  <scstep>
   <time name="dav">    7.04    7.07</time>
   <time name="total">    8.03    8.07</time>
   <energy>
    <i name="e_fr_energy">   -656.40076285 </i>
    <i name="e_wo_entrp">   -656.29295435 </i>
    <i name="e_0_energy">   -656.34685860 </i>
   </energy>
  </scstep>
  <scstep>
   <time name="dav">    6.81    6.83</time>
   <time name="total">    7.81    7.84</time>
   <energy>
    <i name="e_fr_energy">   -656.39985440 </i>
    <i name="e_wo_entrp">   -656.29325505 </i>
    <i name="e_0_energy">   -656.34655472 </i>
   </energy>
  </scstep>
  <scstep>
   <time name="dav">    5.58    5.60</time>
   <time name="total">    6.58    6.60</time>
   <energy>
    <i name="e_fr_energy">   -656.39940841 </i>
    <i name="e_wo_entrp">   -656.29368774 </i>
    <i name="e_0_energy">   -656.34654808 </i>
   </energy>
  </scstep>
  <scstep>
   <time name="dav">    6.51    6.53</time>
   <time name="total">    7.51    7.53</time>
   <energy>
    <i name="e_fr_energy">   -656.39445075 </i>
    <i name="e_wo_entrp">   -656.27844642 </i>
    <i name="e_0_energy">   -656.33644858 </i>
   </energy>
  </scstep>
  <scstep>
   <time name="dav">    5.90    5.92</time>
   <time name="total">    6.90    6.93</time>
   <energy>
    <i name="e_fr_energy">   -656.39394284 </i>
    <i name="e_wo_entrp">   -656.27908144 </i>
    <i name="e_0_energy">   -656.33651214 </i>
   </energy>
  </scstep>
  <scstep>
   <time name="dav">    4.51    4.52</time>
   <time name="total">    5.51    5.53</time>
   <energy>
    <i name="e_fr_energy">   -656.39295611 </i>
    <i name="e_wo_entrp">   -656.27741370 </i>
    <i name="e_0_energy">   -656.33518491 </i>
   </energy>
  </scstep>
  <scstep>
   <time name="dav">    5.44    5.45</time>
   <time name="total">    6.44    6.46</time>
   <energy>
    <i name="e_fr_energy">   -656.39075731 </i>
    <i name="e_wo_entrp">   -656.27014544 </i>
    <i name="e_0_energy">   -656.33045137 </i>
   </energy>
  </scstep>
  <scstep>
   <time name="dav">    4.90    4.94</time>
   <time name="total">    5.89    6.00</time>
   <energy>
    <i name="e_fr_energy">   -656.39045057 </i>
    <i name="e_wo_entrp">   -656.26840145 </i>
    <i name="e_0_energy">   -656.32942601 </i>
   </energy>
  </scstep>
  <scstep>
   <time name="dav">    4.04    4.06</time>
   <time name="total">    5.05    5.08</time>
   <energy>
    <i name="e_fr_energy">   -656.38961292 </i>
    <i name="e_wo_entrp">   -656.26767068 </i>
    <i name="e_0_energy">   -656.32864180 </i>
   </energy>
  </scstep>
  <scstep>
   <time name="dav">    4.13    4.14</time>
   <time name="total">    5.14    5.16</time>
   <energy>
    <i name="e_fr_energy">   -656.38930234 </i>
    <i name="e_wo_entrp">   -656.26695540 </i>
    <i name="e_0_energy">   -656.32812887 </i>
   </energy>
  </scstep>
  <scstep>
   <time name="dav">    4.22    4.25</time>
   <time name="total">    5.24    5.28</time>
   <energy>
    <i name="e_fr_energy">   -656.38964429 </i>
    <i name="e_wo_entrp">   -656.26645456 </i>
    <i name="e_0_energy">   -656.32804943 </i>
   </energy>
  </scstep>
  <scstep>
   <time name="dav">    4.07    4.09</time>
   <time name="total">    5.08    5.11</time>
   <energy>
    <i name="e_fr_energy">   -656.38953412 </i>
    <i name="e_wo_entrp">   -656.26706582 </i>
    <i name="e_0_energy">   -656.32829997 </i>
   </energy>
  </scstep>
  <scstep>
   <time name="dav">    5.57    5.60</time>
   <time name="total">    5.94    5.98</time>
   <energy>
    <i name="alphaZ">    562.94535741 </i>
    <i name="ewald">  39132.44878261 </i>
    <i name="hartreedc"> -59061.98108679 </i>
    <i name="XCdc">   -664.71518248 </i>
    <i name="pawpsdc">  43256.38517524 </i>
    <i name="pawaedc"> -41496.61209405 </i>
    <i name="eentropy">     -0.12083745 </i>
    <i name="bandstr">  -3301.80261988 </i>
    <i name="atom">  20917.06298232 </i>
    <i name="e_fr_energy">   -656.38952306 </i>
    <i name="e_wo_entrp">   -656.26868561 </i>
    <i name="e_0_energy">   -656.32910433 </i>
   </energy>
  </scstep>
  <structure>
   <crystal>
    <varray name="basis" >
     <v>       9.57094646       0.00000000       0.00000000 </v>
     <v>      -6.38062803      11.05157872       0.00000000 </v>
     <v>       0.00000000       0.00000000      34.88026251 </v>
    </varray>
    <i name="volume">   3689.42726549 </i>
    <varray name="rec_basis" >
     <v>       0.10448287       0.06032318       0.00000000 </v>
     <v>       0.00000000       0.09048481       0.00000000 </v>
     <v>       0.00000000       0.00000000       0.02866951 </v>
    </varray>
   </crystal>
   <varray name="positions" >
    <v>       0.89912236       0.44979638       0.47128739 </v>
    <v>       0.73132921       0.37162004       0.46334586 </v>
    <v>       0.91256670       0.53234702       0.50080121 </v>
    <v>       0.75299340       0.50488742       0.51119057 </v>
    <v>       0.64104108       0.40570672       0.48800710 </v>
    <v>       0.79887412       0.58214959       0.39435749 </v>
    <v>       0.71415589       0.67147124       0.43959549 </v>
    <v>       0.65979215       0.57767754       0.41136895 </v>
    <v>       0.88687765       0.73367113       0.44011914 </v>
    <v>       0.93917177       0.67849341       0.41212607 </v>
    <v>       0.79445075       0.55112436       0.45323647 </v>
    <v>       0.51052773       0.36530823       0.48851271 </v>
    <v>       0.53479781       0.51283665       0.40454973 </v>
    <v>       0.96459940       0.80847298       0.45887890 </v>
    <v>       0.63751720       0.69008732       0.45802868 </v>
    <v>       0.79808725       0.52138432       0.37239488 </v>
    <v>       0.68136769       0.30052284       0.44180394 </v>
    <v>       0.99877917       0.44833741       0.45682949 </v>
    <v>       0.02446575       0.60443984       0.51277173 </v>
    <v>       0.72207313       0.55262975       0.53231950 </v>
    <v>       0.06347517       0.70373573       0.40597285 </v>
    <v>       0.55555566       0.08333325       0.25000928 </v>
    <v>       0.55555566       0.33333325       0.25000928 </v>
    <v>       0.44444432       0.41666674       0.74999076 </v>
    <v>       0.55555566       0.58333325       0.25000928 </v>
    <v>       0.44444432       0.66666674       0.74999076 </v>
    <v>       0.55555566       0.83333325       0.25000928 </v>
    <v>       0.44444432       0.91666674       0.74999076 </v>
    <v>       0.88888899       0.33333325       0.25000928 </v>
    <v>       0.77777765       0.16666674       0.74999076 </v>
    <v>       0.77777765       0.41666674       0.74999076 </v>
    <v>       0.88888899       0.58333325       0.25000928 </v>
    <v>       0.77777765       0.66666674       0.74999076 </v>
    <v>       0.88888899       0.83333325       0.25000928 </v>
    <v>       0.77777765       0.91666674       0.74999076 </v>
    <v>       0.11111099       0.91666674       0.74999076 </v>
    <v>       0.88888899       0.08333325       0.25000928 </v>
    <v>       0.22222233       0.83333325       0.25000928 </v>
    <v>       0.44444432       0.16666674       0.74999076 </v>
    <v>       0.22222233       0.58333325       0.25000928 </v>
    <v>       0.11111099       0.41666674       0.74999076 </v>
    <v>       0.22222233       0.33333325       0.25000928 </v>
    <v>       0.22222233       0.08333325       0.25000928 </v>
    <v>       0.11111099       0.16666674       0.74999076 </v>
    <v>       0.11111099       0.66666674       0.74999076 </v>
    <v>       0.77777765       0.16666674       0.29487388 </v>
    <v>       0.88888899       0.08333325       0.79485533 </v>
    <v>       0.77777765       0.16666674       0.20514467 </v>
    <v>       0.88888899       0.08333325       0.70512613 </v>
    <v>       0.22222233       0.08333325       0.70512613 </v>
    <v>       0.11111099       0.16666674       0.20514467 </v>
    <v>       0.77777765       0.41666674       0.29487388 </v>
    <v>       0.88888899       0.33333325       0.79485533 </v>
    <v>       0.11111099       0.66666674       0.20514467 </v>
    <v>       0.55555566       0.83333325       0.70512613 </v>
    <v>       0.88888899       0.33333325       0.70512613 </v>
    <v>       0.22222233       0.08333325       0.79485533 </v>
    <v>       0.11111099       0.16666674       0.29487388 </v>
    <v>       0.77777765       0.66666674       0.29487388 </v>
    <v>       0.88888899       0.58333325       0.79485533 </v>
    <v>       0.77777765       0.66666674       0.20514467 </v>
    <v>       0.88888899       0.58333325       0.70512613 </v>
    <v>       0.77777765       0.91666674       0.29487388 </v>
    <v>       0.88888899       0.83333325       0.79485533 </v>
    <v>       0.77777765       0.41666674       0.20514467 </v>
    <v>       0.44444432       0.91666674       0.20514467 </v>
    <v>       0.44444432       0.91666674       0.29487388 </v>
    <v>       0.22222233       0.58333325       0.70512613 </v>
    <v>       0.22222233       0.58333325       0.79485533 </v>
    <v>       0.11111099       0.91666674       0.29487388 </v>
    <v>       0.22222233       0.83333325       0.79485533 </v>
    <v>       0.11111099       0.91666674       0.20514467 </v>
    <v>       0.22222233       0.83333325       0.70512613 </v>
    <v>       0.11111099       0.66666674       0.29487388 </v>
    <v>       0.77777765       0.91666674       0.20514467 </v>
    <v>       0.44444432       0.16666674       0.29487388 </v>
    <v>       0.55555566       0.08333325       0.79485533 </v>
    <v>       0.44444432       0.16666674       0.20514467 </v>
    <v>       0.55555566       0.08333325       0.70512613 </v>
    <v>       0.44444432       0.41666674       0.29487388 </v>
    <v>       0.55555566       0.33333325       0.79485533 </v>
    <v>       0.44444432       0.41666674       0.20514467 </v>
    <v>       0.55555566       0.33333325       0.70512613 </v>
    <v>       0.22222233       0.33333325       0.70512613 </v>
    <v>       0.11111099       0.41666674       0.20514467 </v>
    <v>       0.44444432       0.66666674       0.29487388 </v>
    <v>       0.55555566       0.58333325       0.79485533 </v>
    <v>       0.44444432       0.66666674       0.20514467 </v>
    <v>       0.55555566       0.58333325       0.70512613 </v>
    <v>       0.22222233       0.33333325       0.79485533 </v>
    <v>       0.11111099       0.41666674       0.29487388 </v>
    <v>       0.55555566       0.83333325       0.79485533 </v>
    <v>       0.88888899       0.83333325       0.70512613 </v>
   </varray>
  </structure>
  <varray name="forces" >
   <v>      -0.07712753       0.08669908      -0.06557374 </v>
   <v>      -0.04186148       0.08251979      -0.09185043 </v>
   <v>      -0.05672693       0.05112364      -0.09189550 </v>
   <v>      -0.02881511       0.07127913      -0.10333532 </v>
   <v>      -0.00385715       0.08361999      -0.07726531 </v>
   <v>       0.03868223      -0.06729829       0.09208418 </v>
   <v>       0.08479699      -0.10743317       0.04526614 </v>
   <v>       0.08547442      -0.04581459       0.06967656 </v>
   <v>       0.05020611      -0.11664087       0.04377383 </v>
   <v>      -0.02000152      -0.09672866       0.07733252 </v>
   <v>      -0.03010193       0.03447862       0.02255566 </v>
   <v>       0.01610841      -0.00500421      -0.01268491 </v>
   <v>       0.01570541       0.00429875      -0.02472582 </v>
   <v>       0.00373576      -0.02413028       0.00964541 </v>
   <v>       0.01351084       0.00638949       0.00749827 </v>
   <v>      -0.00647946      -0.00653287      -0.02779704 </v>
   <v>      -0.00293795       0.01895137      -0.01490905 </v>
   <v>      -0.01540518       0.01212045      -0.01356754 </v>
   <v>      -0.01988760       0.00558002      -0.00089337 </v>
   <v>       0.01630304       0.00801547       0.00499996 </v>
   <v>      -0.01244672      -0.00633148      -0.02166069 </v>
   <v>       0.02250862       0.17921414       0.01797111 </v>
   <v>       0.01158095       0.16980134       0.02204968 </v>
   <v>      -0.02102749      -0.17735766      -0.00737563 </v>
   <v>       0.02708121       0.17761628       0.01649108 </v>
   <v>      -0.02151853      -0.17590763      -0.00815330 </v>
   <v>       0.02568849       0.17372911       0.01668331 </v>
   <v>      -0.02112903      -0.17618884      -0.00856910 </v>
   <v>       0.04347228       0.16687029       0.01984366 </v>
   <v>      -0.01514777      -0.17849368      -0.00796084 </v>
   <v>      -0.01511123      -0.17892122      -0.00790819 </v>
   <v>       0.00639578       0.19131055       0.02384557 </v>
   <v>      -0.01482369      -0.17795406      -0.00740638 </v>
   <v>       0.03097111       0.16692346       0.00990602 </v>
   <v>      -0.01557615      -0.17783465      -0.00814804 </v>
   <v>      -0.02248849      -0.17647104      -0.00845829 </v>
   <v>       0.02183830       0.18316528       0.01760790 </v>
   <v>       0.00997106       0.18491880       0.01712364 </v>
   <v>      -0.02102583      -0.17698362      -0.00819615 </v>
   <v>       0.02103326       0.16463228       0.00908320 </v>
   <v>      -0.02300113      -0.17745073      -0.00807953 </v>
   <v>       0.01174292       0.17509906       0.02259045 </v>
   <v>       0.01509615       0.18376827       0.01542115 </v>
   <v>      -0.02310686      -0.17705849      -0.00809680 </v>
   <v>      -0.02302838      -0.17627618      -0.00856126 </v>
   <v>      -0.01030742      -0.09478273      -0.20615676 </v>
   <v>       0.01008044       0.08829595      -0.20017725 </v>
   <v>      -0.01089674      -0.08780348       0.19774766 </v>
   <v>       0.00998066       0.08936481       0.20810732 </v>
   <v>       0.01059598       0.08958211       0.20815175 </v>
   <v>      -0.00918558      -0.08892203       0.19896833 </v>
   <v>      -0.01428912      -0.09246396      -0.20515392 </v>
   <v>       0.00976054       0.08837102      -0.20012372 </v>
   <v>      -0.01052591      -0.08687628       0.19850080 </v>
   <v>       0.00984015       0.08989829       0.20832198 </v>
   <v>       0.00971300       0.08900618       0.20791019 </v>
   <v>       0.01051249       0.08859803      -0.20019037 </v>
   <v>      -0.00974396      -0.09279663      -0.20789064 </v>
   <v>      -0.01608698      -0.08149064      -0.19510436 </v>
   <v>       0.00979380       0.08835470      -0.20049464 </v>
   <v>      -0.00958795      -0.08871694       0.19204781 </v>
   <v>       0.00972514       0.08911524       0.20759307 </v>
   <v>      -0.01343440      -0.08878996      -0.20317976 </v>
   <v>       0.00980202       0.08822536      -0.20048809 </v>
   <v>      -0.01228428      -0.08606681       0.20171023 </v>
   <v>      -0.01026457      -0.08770578       0.19852211 </v>
   <v>      -0.00963232      -0.08822961      -0.20665986 </v>
   <v>       0.01055961       0.08932524       0.20824395 </v>
   <v>       0.01057914       0.08852877      -0.20028512 </v>
   <v>      -0.01072542      -0.09078627      -0.19791577 </v>
   <v>       0.01080556       0.08848961      -0.20030890 </v>
   <v>      -0.01109958      -0.08738291       0.19851994 </v>
   <v>       0.01090863       0.08968961       0.20830046 </v>
   <v>      -0.01236400      -0.08401562      -0.18395357 </v>
   <v>      -0.01125059      -0.08674803       0.19898835 </v>
   <v>      -0.01154235      -0.09343724      -0.20771112 </v>
   <v>       0.00979183       0.08828851      -0.20008572 </v>
   <v>      -0.01089225      -0.08762818       0.19981356 </v>
   <v>       0.00987498       0.08932062       0.20816318 </v>
   <v>      -0.00904014      -0.08513805      -0.19522849 </v>
   <v>       0.00985198       0.08851251      -0.20023130 </v>
   <v>      -0.00857019      -0.08634637       0.19987387 </v>
   <v>       0.00998604       0.08916107       0.20766064 </v>
   <v>       0.01075563       0.08887079       0.20805235 </v>
   <v>      -0.01160963      -0.08392705       0.20103371 </v>
   <v>      -0.00890310      -0.08745178      -0.19800319 </v>
   <v>       0.01006410       0.08842519      -0.20044282 </v>
   <v>      -0.01135021      -0.08583717       0.19807986 </v>
   <v>       0.01022708       0.08916711       0.20785589 </v>
   <v>       0.01074742       0.08830794      -0.20030025 </v>
   <v>      -0.00929172      -0.08896335      -0.20843372 </v>
   <v>       0.00985451       0.08860251      -0.20023023 </v>
   <v>       0.00979746       0.08949329       0.20820548 </v>
  </varray>
  <varray name="stress" >
   <v>       2.85475809       0.43485793      -0.27334805 </v>
   <v>       0.43485791      -4.97730903       0.55790951 </v>
   <v>      -0.27334812       0.55790954      -8.40828859 </v>
  </varray>
  <energy>
   <i name="e_fr_energy">   -671.41557750 </i>
   <i name="e_wo_entrp">   -671.35515878 </i>
   <i name="e_0_energy">     -0.12083745 </i>
  </energy>
  <time name="totalsc">  367.79  369.97</time>
 </calculation>
 <calculation>
  <scstep>
   <time name="dav">    5.24    5.25</time>
   <time name="total">    6.24    6.26</time>
   <energy>
    <i name="alphaZ">    562.94535741 </i>
    <i name="ewald">  39374.54454395 </i>
    <i name="hartreedc"> -59293.59162884 </i>
    <i name="XCdc">   -663.54410004 </i>
    <i name="pawpsdc">  43251.44571869 </i>
    <i name="pawaedc"> -41491.64760886 </i>
    <i name="eentropy">     -0.12936619 </i>
    <i name="bandstr">  -3313.49431201 </i>
    <i name="atom">  20917.06298232 </i>
    <i name="e_fr_energy">   -656.40841357 </i>
    <i name="e_wo_entrp">   -656.27904738 </i>
    <i name="e_0_energy">   -656.34373047 </i>
   </energy>
  </scstep>
  <scstep>
   <time name="dav">    6.32    6.34</time>
   <time name="total">    7.26    7.28</time>
   <energy>
    <i name="e_fr_energy">   -656.73865433 </i>
    <i name="e_wo_entrp">   -656.64898779 </i>
    <i name="e_0_energy">   -656.69382106 </i>
   </energy>
  </scstep>
  <scstep>
   <time name="dav">    6.71    6.73</time>
   <time name="total">    7.68    7.71</time>
   <energy>
    <i name="e_fr_energy">   -656.53178441 </i>
    <i name="e_wo_entrp">   -656.42398420 </i>
    <i name="e_0_energy">   -656.47788430 </i>
   </energy>
  </scstep>
  <scstep>
   <time name="dav">    6.64    6.66</time>
   <time name="total">    7.59    7.61</time>
   <energy>
    <i name="e_fr_energy">   -656.52020836 </i>
    <i name="e_wo_entrp">   -656.43016202 </i>
    <i name="e_0_energy">   -656.47518519 </i>
   </energy>
  </scstep>
  <scstep>
   <time name="dav">    6.60    6.64</time>
   <time name="total">    7.55    7.61</time>
   <energy>
    <i name="e_fr_energy">   -656.45550567 </i>
    <i name="e_wo_entrp">   -656.33365982 </i>
    <i name="e_0_energy">   -656.39458275 </i>
   </energy>
  </scstep>
  <scstep>
   <time name="dav">    6.41    6.43</time>
   <time name="total">    7.38    7.42</time>
   <energy>
    <i name="e_fr_energy">   -656.46611214 </i>
    <i name="e_wo_entrp">   -656.34982559 </i>
    <i name="e_0_energy">   -656.40796887 </i>
   </energy>
  </scstep>
  <scstep>
   <time name="dav">    6.30    6.74</time>
   <time name="total">    7.27    7.72</time>
   <energy>
    <i name="e_fr_energy">   -656.46274852 </i>
    <i name="e_wo_entrp">   -656.33529289 </i>
    <i name="e_0_energy">   -656.39902071 </i>
   </energy>
  </scstep>
  <scstep>
   <time name="dav">    6.55    6.58</time>
   <time name="total">    7.53    7.56</time>
   <energy>
    <i name="e_fr_energy">   -656.45008012 </i>
    <i name="e_wo_entrp">   -656.32034040 </i>
    <i name="e_0_energy">   -656.38521026 </i>
   </energy>
  </scstep>
  <scstep>
   <time name="dav">    6.61    6.67</time>
   <time name="total">    7.58    7.65</time>
   <energy>
    <i name="e_fr_energy">   -656.44274313 </i>
    <i name="e_wo_entrp">   -656.31889307 </i>
    <i name="e_0_energy">   -656.38081810 </i>
   </energy>
  </scstep>
  <scstep>
   <time name="dav">    5.54    5.58</time>
   <time name="total">    6.51    6.56</time>
   <energy>
    <i name="e_fr_energy">   -656.44266899 </i>
    <i name="e_wo_entrp">   -656.32028743 </i>
    <i name="e_0_energy">   -656.38147821 </i>
   </energy>
  </scstep>
  <scstep>
   <time name="dav">    4.24    4.28</time>
   <time name="total">    4.62    4.66</time>
   <energy>
    <i name="alphaZ">    562.94535741 </i>
    <i name="ewald">  39374.54454395 </i>
    <i name="hartreedc"> -59296.11471174 </i>
    <i name="XCdc">   -663.57553089 </i>
    <i name="pawpsdc">  43626.42788122 </i>
    <i name="pawaedc"> -41867.29637958 </i>
    <i name="eentropy">     -0.12242343 </i>
    <i name="bandstr">  -3310.31446040 </i>
    <i name="atom">  20917.06298232 </i>
    <i name="e_fr_energy">   -656.44274114 </i>
    <i name="e_wo_entrp">   -656.32031770 </i>
    <i name="e_0_energy">   -656.38152942 </i>
   </energy>
  </scstep>
  <structure>
   <crystal>
    <varray name="basis" >
     <v>       9.57094646       0.00000000       0.00000000 </v>
     <v>      -6.38062803      11.05157872       0.00000000 </v>
     <v>       0.00000000       0.00000000      34.88026251 </v>
    </varray>
    <i name="volume">   3689.42726549 </i>
    <varray name="rec_basis" >
     <v>       0.10448287       0.06032318       0.00000000 </v>
     <v>       0.00000000       0.09048481       0.00000000 </v>
     <v>       0.00000000       0.00000000       0.02866951 </v>
    </varray>
   </crystal>
   <varray name="positions" >
    <v>       0.89898590       0.45017484       0.47119669 </v>
    <v>       0.73135835       0.37198026       0.46321882 </v>
    <v>       0.91242954       0.53257018       0.50067411 </v>
    <v>       0.75305559       0.50519857       0.51104765 </v>
    <v>       0.64126499       0.40607174       0.48790023 </v>
    <v>       0.79887325       0.58185582       0.39448485 </v>
    <v>       0.71427067       0.67100227       0.43965810 </v>
    <v>       0.66008966       0.57747755       0.41146532 </v>
    <v>       0.88679127       0.73316197       0.44017968 </v>
    <v>       0.93878946       0.67807117       0.41223302 </v>
    <v>       0.79439936       0.55127486       0.45326766 </v>
    <v>       0.51059436       0.36528638       0.48849517 </v>
    <v>       0.53488949       0.51285541       0.40451553 </v>
    <v>       0.96454801       0.80836765       0.45889224 </v>
    <v>       0.63760390       0.69011521       0.45803905 </v>
    <v>       0.79803558       0.52135580       0.37235643 </v>
    <v>       0.68140804       0.30060556       0.44178332 </v>
    <v>       0.99873680       0.44839032       0.45681072 </v>
    <v>       0.02438174       0.60446420       0.51277050 </v>
    <v>       0.72217863       0.55266474       0.53232641 </v>
    <v>       0.06339401       0.70370810       0.40594289 </v>
    <v>       0.55619065       0.08411556       0.25003414 </v>
    <v>       0.55610818       0.33407447       0.25003978 </v>
    <v>       0.44382219       0.41589254       0.74998056 </v>
    <v>       0.55620905       0.58410858       0.25003209 </v>
    <v>       0.44382394       0.66589887       0.74997948 </v>
    <v>       0.55619072       0.83409161       0.25003236 </v>
    <v>       0.44382508       0.91589764       0.74997891 </v>
    <v>       0.88959373       0.33406167       0.25003673 </v>
    <v>       0.77718186       0.16588758       0.74997975 </v>
    <v>       0.77718080       0.41588571       0.74997982 </v>
    <v>       0.88947797       0.58416836       0.25004226 </v>
    <v>       0.77718506       0.66588993       0.74998051 </v>
    <v>       0.88953088       0.83406191       0.25002298 </v>
    <v>       0.77718162       0.91589045       0.74997949 </v>
    <v>       0.11048407       0.91589641       0.74997906 </v>
    <v>       0.88953211       0.08413281       0.25003364 </v>
    <v>       0.22281073       0.83414046       0.25003297 </v>
    <v>       0.44382329       0.16589417       0.74997942 </v>
    <v>       0.22280745       0.58405190       0.25002185 </v>
    <v>       0.11047864       0.41589213       0.74997958 </v>
    <v>       0.22279108       0.33409759       0.25004053 </v>
    <v>       0.22283321       0.08413544       0.25003061 </v>
    <v>       0.11047925       0.16589384       0.74997956 </v>
    <v>       0.11048192       0.66589726       0.74997892 </v>
    <v>       0.77744987       0.16625299       0.29458875 </v>
    <v>       0.88919676       0.08371868       0.79457846 </v>
    <v>       0.77746721       0.16628346       0.20541818 </v>
    <v>       0.88919937       0.08372334       0.70541396 </v>
    <v>       0.22253643       0.08372429       0.70541403 </v>
    <v>       0.11080591       0.16627858       0.20541986 </v>
    <v>       0.77743654       0.41626312       0.29459013 </v>
    <v>       0.88919536       0.33371901       0.79457854 </v>
    <v>       0.11080511       0.66628751       0.20541922 </v>
    <v>       0.55586688       0.83372567       0.70541426 </v>
    <v>       0.88919697       0.33372178       0.70541369 </v>
    <v>       0.22253315       0.08372000       0.79457845 </v>
    <v>       0.11079182       0.16626166       0.29458635 </v>
    <v>       0.77745942       0.66631102       0.29460403 </v>
    <v>       0.88919548       0.58371894       0.79457803 </v>
    <v>       0.77747114       0.66627947       0.20541029 </v>
    <v>       0.88919735       0.58372226       0.70541325 </v>
    <v>       0.77745154       0.91627915       0.29459286 </v>
    <v>       0.88919515       0.83371837       0.79457803 </v>
    <v>       0.77746527       0.41629104       0.20542366 </v>
    <v>       0.44413734       0.91628389       0.20541925 </v>
    <v>       0.44413901       0.91628160       0.29458805 </v>
    <v>       0.22253550       0.58372317       0.70541415 </v>
    <v>       0.22253328       0.58371970       0.79457832 </v>
    <v>       0.11079272       0.91627044       0.29460015 </v>
    <v>       0.22253431       0.83371952       0.79457828 </v>
    <v>       0.11080074       0.91628530       0.20541924 </v>
    <v>       0.22253832       0.83372476       0.70541423 </v>
    <v>       0.11080417       0.66630000       0.29461946 </v>
    <v>       0.77746849       0.91628807       0.20541989 </v>
    <v>       0.44411422       0.16625887       0.29458660 </v>
    <v>       0.55586195       0.08371865       0.79457859 </v>
    <v>       0.44413441       0.16628423       0.20542103 </v>
    <v>       0.55586537       0.08372315       0.70541404 </v>
    <v>       0.44415099       0.41629510       0.29460386 </v>
    <v>       0.55586290       0.33371962       0.79457839 </v>
    <v>       0.44414984       0.41628982       0.20542112 </v>
    <v>       0.55586547       0.33372246       0.70541335 </v>
    <v>       0.22253517       0.33372119       0.70541389 </v>
    <v>       0.11080823       0.41630038       0.20542272 </v>
    <v>       0.44414495       0.66628500       0.29460002 </v>
    <v>       0.55586372       0.58371924       0.79457810 </v>
    <v>       0.44413731       0.66629204       0.20541863 </v>
    <v>       0.55586670       0.58372248       0.70541362 </v>
    <v>       0.22253349       0.33371873       0.79457829 </v>
    <v>       0.11080525       0.41627840       0.29458560 </v>
    <v>       0.55586318       0.83372002       0.79457839 </v>
    <v>       0.88919882       0.83372391       0.70541410 </v>
   </varray>
  </structure>
  <varray name="forces" >
   <v>       0.04836980       0.03590826      -0.12684665 </v>
   <v>      -0.03721286       0.05293238      -0.05662861 </v>
   <v>       0.00937279       0.12261466      -0.00007936 </v>
   <v>      -0.06225824       0.09377624      -0.00424701 </v>
   <v>      -0.09104177      -0.00268939      -0.07433124 </v>
   <v>       0.05201191      -0.13695162      -0.04541811 </v>
   <v>      -0.08395167      -0.00234588       0.15749775 </v>
   <v>      -0.07760856      -0.16059298      -0.01638678 </v>
   <v>       0.03395758       0.06006764       0.14098368 </v>
   <v>       0.21156609      -0.00878021      -0.00647751 </v>
   <v>       0.00139250      -0.01629869       0.01315925 </v>
   <v>       0.04235755       0.01891422      -0.01755188 </v>
   <v>       0.06406374       0.03736335      -0.00282959 </v>
   <v>      -0.00446837      -0.08015042      -0.02952897 </v>
   <v>       0.08569027      -0.02362031      -0.04322519 </v>
   <v>      -0.01740355       0.02015817       0.02129131 </v>
   <v>      -0.00713071       0.02437753      -0.02564876 </v>
   <v>      -0.06527509       0.02466558       0.00450195 </v>
   <v>      -0.04410060      -0.02170549      -0.02647887 </v>
   <v>       0.03095496      -0.00671927      -0.02995782 </v>
   <v>      -0.08151039      -0.03520153       0.00339445 </v>
   <v>      -0.01013002      -0.07998014      -0.00931076 </v>
   <v>      -0.01193179      -0.08311480      -0.00571020 </v>
   <v>       0.01302883       0.08216535       0.00540813 </v>
   <v>      -0.01016119      -0.07811323      -0.00256430 </v>
   <v>       0.01300566       0.08194409       0.00594921 </v>
   <v>      -0.01254609      -0.08265158      -0.00589645 </v>
   <v>       0.01304226       0.08213620       0.00648786 </v>
   <v>      -0.01716977      -0.07952876      -0.00737197 </v>
   <v>       0.00869062       0.08286318       0.00603538 </v>
   <v>       0.00899719       0.08265842       0.00546843 </v>
   <v>      -0.00810019      -0.08028324      -0.00139775 </v>
   <v>       0.00861178       0.08256407       0.00515987 </v>
   <v>      -0.01478441      -0.07826302      -0.00318321 </v>
   <v>       0.00910202       0.08268573       0.00598911 </v>
   <v>       0.01516963       0.08279254       0.00705817 </v>
   <v>      -0.01062946      -0.08752725      -0.01049383 </v>
   <v>      -0.00335639      -0.08408529      -0.00302093 </v>
   <v>       0.01283921       0.08236160       0.00607515 </v>
   <v>      -0.01077725      -0.07420125       0.00272964 </v>
   <v>       0.01519788       0.08282351       0.00675822 </v>
   <v>      -0.00219120      -0.07926116      -0.00706581 </v>
   <v>      -0.00863984      -0.08924907      -0.00689410 </v>
   <v>       0.01572368       0.08258542       0.00698750 </v>
   <v>       0.01579902       0.08230057       0.00684516 </v>
   <v>       0.00634579       0.03715143      -0.01299986 </v>
   <v>      -0.00526737      -0.04198848      -0.02047016 </v>
   <v>       0.00590483       0.04050274       0.03409632 </v>
   <v>      -0.00541898      -0.04176745       0.01159772 </v>
   <v>      -0.00638517      -0.04037379       0.01295736 </v>
   <v>       0.00284968       0.04316151       0.03391374 </v>
   <v>       0.00506674       0.03832517      -0.02008352 </v>
   <v>      -0.00510035      -0.04218254      -0.02052883 </v>
   <v>      -0.00043065       0.04146018       0.04173590 </v>
   <v>      -0.00557583      -0.04011800       0.01313517 </v>
   <v>      -0.00518934      -0.04219411       0.01162043 </v>
   <v>      -0.00635893      -0.04067685      -0.02198116 </v>
   <v>       0.00337659       0.03965723      -0.01333605 </v>
   <v>      -0.00085198       0.04624017      -0.01064513 </v>
   <v>      -0.00484623      -0.04197366      -0.02072359 </v>
   <v>       0.00451787       0.03885096       0.03084326 </v>
   <v>      -0.00525693      -0.04202209       0.01163422 </v>
   <v>       0.00870846       0.03951330      -0.02061524 </v>
   <v>      -0.00494006      -0.04152912      -0.02065667 </v>
   <v>       0.00493775       0.04151463       0.04872084 </v>
   <v>       0.00407981       0.04027497       0.03770206 </v>
   <v>       0.00459945       0.04008545      -0.01929576 </v>
   <v>      -0.00651370      -0.04045838       0.01325699 </v>
   <v>      -0.00656537      -0.04049248      -0.02235302 </v>
   <v>       0.00129472       0.04261739      -0.01467231 </v>
   <v>      -0.00652534      -0.04037554      -0.02218403 </v>
   <v>       0.00369997       0.04343314       0.03282396 </v>
   <v>      -0.00656887      -0.04006804       0.01276870 </v>
   <v>       0.00375365       0.04264946      -0.01411841 </v>
   <v>       0.00701136       0.04109757       0.03726709 </v>
   <v>       0.00286478       0.03791070      -0.01376507 </v>
   <v>      -0.00546120      -0.04049143      -0.02204913 </v>
   <v>       0.00375348       0.04176057       0.03504444 </v>
   <v>      -0.00546080      -0.04009369       0.01300897 </v>
   <v>       0.00313402       0.04151434      -0.01154739 </v>
   <v>      -0.00532503      -0.04091150      -0.02187542 </v>
   <v>       0.00323266       0.03925527       0.04027302 </v>
   <v>      -0.00553907      -0.04066871       0.01312698 </v>
   <v>      -0.00648681      -0.04055560       0.01314139 </v>
   <v>       0.00602383       0.03830509       0.03125491 </v>
   <v>       0.00471710       0.03834211      -0.01805290 </v>
   <v>      -0.00569039      -0.04044376      -0.02226196 </v>
   <v>       0.00575517       0.03926958       0.03585361 </v>
   <v>      -0.00554552      -0.04041670       0.01369598 </v>
   <v>      -0.00663208      -0.04069934      -0.02175125 </v>
   <v>       0.00637740       0.04029662      -0.01236413 </v>
   <v>      -0.00552397      -0.04040174      -0.02217179 </v>
   <v>      -0.00511075      -0.04163067       0.01179517 </v>
  </varray>
  <varray name="stress" >
   <v>       5.02526483       0.53699330      -0.19084618 </v>
   <v>       0.53699323      -4.42890743       0.43926075 </v>
   <v>      -0.19084620       0.43926072      -2.86724612 </v>
  </varray>
  <energy>
   <i name="e_fr_energy">   -671.49010325 </i>
   <i name="e_wo_entrp">   -671.42889154 </i>
   <i name="e_0_energy">     -0.12242343 </i>
  </energy>
  <time name="totalsc">   86.87   87.81</time>
 </calculation>
 <calculation>
  <scstep>
   <time name="dav">    5.34    5.35</time>
   <time name="total">    6.32    6.34</time>
   <energy>
    <i name="alphaZ">    562.94535741 </i>
    <i name="ewald">  39357.07663320 </i>
    <i name="hartreedc"> -59279.30756958 </i>
    <i name="XCdc">   -663.65995734 </i>
    <i name="pawpsdc">  43629.25531691 </i>
    <i name="pawaedc"> -41870.13074052 </i>
    <i name="eentropy">     -0.12200825 </i>
    <i name="bandstr">  -3309.56460254 </i>
    <i name="atom">  20917.06298232 </i>
    <i name="e_fr_energy">   -656.44458839 </i>
    <i name="e_wo_entrp">   -656.32258014 </i>
    <i name="e_0_energy">   -656.38358427 </i>
   </energy>
  </scstep>
  <scstep>
   <time name="dav">    6.49    6.55</time>
   <time name="total">    7.49    7.58</time>
   <energy>
    <i name="e_fr_energy">   -656.45372780 </i>
    <i name="e_wo_entrp">   -656.32440781 </i>
    <i name="e_0_energy">   -656.38906781 </i>
   </energy>
  </scstep>
  <scstep>
   <time name="dav">    5.88    5.92</time>
   <time name="total">    6.86    6.91</time>
   <energy>
    <i name="e_fr_energy">   -656.44619375 </i>
    <i name="e_wo_entrp">   -656.32762172 </i>
    <i name="e_0_energy">   -656.38690773 </i>
   </energy>
  </scstep>
  <scstep>
   <time name="dav">    4.79    4.81</time>
   <time name="total">    5.77    5.79</time>
   <energy>
    <i name="e_fr_energy">   -656.44507907 </i>
    <i name="e_wo_entrp">   -656.32089092 </i>
    <i name="e_0_energy">   -656.38298499 </i>
   </energy>
  </scstep>
  <scstep>
   <time name="dav">    4.64    4.66</time>
   <time name="total">    5.62    5.64</time>
   <energy>
    <i name="e_fr_energy">   -656.44493649 </i>
    <i name="e_wo_entrp">   -656.32119945 </i>
    <i name="e_0_energy">   -656.38306797 </i>
   </energy>
  </scstep>
  <scstep>
   <time name="dav">    4.70    4.72</time>
   <time name="total">    5.68    5.70</time>
   <energy>
    <i name="e_fr_energy">   -656.44482097 </i>
    <i name="e_wo_entrp">   -656.32330717 </i>
    <i name="e_0_energy">   -656.38406407 </i>
   </energy>
  </scstep>
  <scstep>
   <time name="dav">    3.80    3.82</time>
   <time name="total">    4.18    4.20</time>
   <energy>
    <i name="alphaZ">    562.94535741 </i>
    <i name="ewald">  39357.07663320 </i>
    <i name="hartreedc"> -59278.81500348 </i>
    <i name="XCdc">   -663.66355255 </i>
    <i name="pawpsdc">  43608.78802909 </i>
    <i name="pawaedc"> -41849.61373421 </i>
    <i name="eentropy">     -0.12147170 </i>
    <i name="bandstr">  -3310.10409369 </i>
    <i name="atom">  20917.06298232 </i>
    <i name="e_fr_energy">   -656.44485360 </i>
    <i name="e_wo_entrp">   -656.32338190 </i>
    <i name="e_0_energy">   -656.38411775 </i>
   </energy>
  </scstep>
  <structure>
   <crystal>
    <varray name="basis" >
     <v>       9.57094646       0.00000000       0.00000000 </v>
     <v>      -6.38062803      11.05157872       0.00000000 </v>
     <v>       0.00000000       0.00000000      34.88026251 </v>
    </varray>
    <i name="volume">   3689.42726549 </i>
    <varray name="rec_basis" >
     <v>       0.10448287       0.06032318       0.00000000 </v>
     <v>       0.00000000       0.09048481       0.00000000 </v>
     <v>       0.00000000       0.00000000       0.02866951 </v>
    </varray>
   </crystal>
   <varray name="positions" >
    <v>       0.89899574       0.45014758       0.47120323 </v>
    <v>       0.73135625       0.37195430       0.46322797 </v>
    <v>       0.91243942       0.53255410       0.50068326 </v>
    <v>       0.75305111       0.50517616       0.51105795 </v>
    <v>       0.64124886       0.40604544       0.48790793 </v>
    <v>       0.79887331       0.58187699       0.39447568 </v>
    <v>       0.71426240       0.67103606       0.43965359 </v>
    <v>       0.66006823       0.57749196       0.41145838 </v>
    <v>       0.88679750       0.73319865       0.44017532 </v>
    <v>       0.93881701       0.67810159       0.41222532 </v>
    <v>       0.79440306       0.55126402       0.45326542 </v>
    <v>       0.51058956       0.36528796       0.48849643 </v>
    <v>       0.53488288       0.51285406       0.40451799 </v>
    <v>       0.96455171       0.80837524       0.45889128 </v>
    <v>       0.63759765       0.69011320       0.45803831 </v>
    <v>       0.79803930       0.52135785       0.37235920 </v>
    <v>       0.68140513       0.30059960       0.44178480 </v>
    <v>       0.99873985       0.44838651       0.45681208 </v>
    <v>       0.02438780       0.60446245       0.51277059 </v>
    <v>       0.72217103       0.55266222       0.53232591 </v>
    <v>       0.06339986       0.70371009       0.40594505 </v>
    <v>       0.55614490       0.08405919       0.25003235 </v>
    <v>       0.55606837       0.33402106       0.25003758 </v>
    <v>       0.44386702       0.41594832       0.74998129 </v>
    <v>       0.55616198       0.58405272       0.25003045 </v>
    <v>       0.44386864       0.66595419       0.74998029 </v>
    <v>       0.55614496       0.83403697       0.25003070 </v>
    <v>       0.44386970       0.91595305       0.74997976 </v>
    <v>       0.88954296       0.33400919       0.25003475 </v>
    <v>       0.77722478       0.16594372       0.74998054 </v>
    <v>       0.77722380       0.41594199       0.74998061 </v>
    <v>       0.88943554       0.58410819       0.25003989 </v>
    <v>       0.77722776       0.66594590       0.74998125 </v>
    <v>       0.88948463       0.83400941       0.25002200 </v>
    <v>       0.77722456       0.91594639       0.74998030 </v>
    <v>       0.11052924       0.91595191       0.74997990 </v>
    <v>       0.88948577       0.08407520       0.25003188 </v>
    <v>       0.22276833       0.83408230       0.25003126 </v>
    <v>       0.44386804       0.16594983       0.74998024 </v>
    <v>       0.22276529       0.58400012       0.25002094 </v>
    <v>       0.11052420       0.41594794       0.74998039 </v>
    <v>       0.22275010       0.33404252       0.25003828 </v>
    <v>       0.22278920       0.08407764       0.25002908 </v>
    <v>       0.11052477       0.16594953       0.74998037 </v>
    <v>       0.11052725       0.66595270       0.74997977 </v>
    <v>       0.77747348       0.16628281       0.29460929 </v>
    <v>       0.88917458       0.08369091       0.79459841 </v>
    <v>       0.77748957       0.16631108       0.20539847 </v>
    <v>       0.88917700       0.08369524       0.70539323 </v>
    <v>       0.22251380       0.08369612       0.70539328 </v>
    <v>       0.11082789       0.16630655       0.20540004 </v>
    <v>       0.77746112       0.41629220       0.29461058 </v>
    <v>       0.88917329       0.33369121       0.79459848 </v>
    <v>       0.11082715       0.66631483       0.20539944 </v>
    <v>       0.55584445       0.83369740       0.70539350 </v>
    <v>       0.88917478       0.33369379       0.70539297 </v>
    <v>       0.22251075       0.08369213       0.79459840 </v>
    <v>       0.11081482       0.16629085       0.29460707 </v>
    <v>       0.77748235       0.66633665       0.29462348 </v>
    <v>       0.88917340       0.58369115       0.79459801 </v>
    <v>       0.77749323       0.66630738       0.20539115 </v>
    <v>       0.88917513       0.58369423       0.70539257 </v>
    <v>       0.77747504       0.91630708       0.29461311 </v>
    <v>       0.88917309       0.83369062       0.79459801 </v>
    <v>       0.77748777       0.41631811       0.20540355 </v>
    <v>       0.44415946       0.91631147       0.20539946 </v>
    <v>       0.44416100       0.91630935       0.29460865 </v>
    <v>       0.22251294       0.58369508       0.70539340 </v>
    <v>       0.22251088       0.58369185       0.79459827 </v>
    <v>       0.11081565       0.91629899       0.29461987 </v>
    <v>       0.22251183       0.83369169       0.79459824 </v>
    <v>       0.11082309       0.91631278       0.20539946 </v>
    <v>       0.22251555       0.83369655       0.70539347 </v>
    <v>       0.11082627       0.66632642       0.29463779 </v>
    <v>       0.77749077       0.91631535       0.20540006 </v>
    <v>       0.44413801       0.16628826       0.29460730 </v>
    <v>       0.55583988       0.08369088       0.79459853 </v>
    <v>       0.44415674       0.16631179       0.20540112 </v>
    <v>       0.55584306       0.08369506       0.70539330 </v>
    <v>       0.44417212       0.41632187       0.29462332 </v>
    <v>       0.55584077       0.33369179       0.79459834 </v>
    <v>       0.44417106       0.41631698       0.20540120 </v>
    <v>       0.55584314       0.33369441       0.70539265 </v>
    <v>       0.22251263       0.33369324       0.70539315 </v>
    <v>       0.11083004       0.41632678       0.20540269 </v>
    <v>       0.44416652       0.66631250       0.29461976 </v>
[...]
       <r>   -18.5606     0.0000     4.0000 </r>
       <r>   -18.4832     0.0000     4.0000 </r>
       <r>   -18.4058     0.0000     4.0000 </r>
       <r>   -18.3284     0.0000     4.0000 </r>
       <r>   -18.2510     0.0000     4.0000 </r>
       <r>   -18.1736     0.0000     4.0000 </r>
       <r>   -18.0962     0.0000     4.0000 </r>
       <r>   -18.0188     0.0000     4.0000 </r>
       <r>   -17.9414     0.0000     4.0000 </r>
       <r>   -17.8640     0.0000     4.0000 </r>
       <r>   -17.7866     0.0000     4.0000 </r>
       <r>   -17.7092     0.0000     4.0000 </r>
       <r>   -17.6318     0.0000     4.0000 </r>
       <r>   -17.5544     0.0000     4.0000 </r>
       <r>   -17.4770     0.0000     4.0000 </r>
       <r>   -17.3996     0.0000     4.0000 </r>
       <r>   -17.3222     0.0000     4.0000 </r>
       <r>   -17.2448     0.0000     4.0000 </r>
       <r>   -17.1674     0.0000     4.0000 </r>
       <r>   -17.0900     0.0000     4.0000 </r>
       <r>   -17.0126     0.0000     4.0000 </r>
       <r>   -16.9352     0.0000     4.0000 </r>
       <r>   -16.8578     0.0000     4.0000 </r>
       <r>   -16.7804     0.0000     4.0000 </r>
       <r>   -16.7030     0.0000     4.0000 </r>
       <r>   -16.6256     0.0000     4.0000 </r>
       <r>   -16.5482     0.0000     4.0000 </r>
       <r>   -16.4708     0.0000     4.0000 </r>
       <r>   -16.3934     0.0000     4.0000 </r>
       <r>   -16.3160     0.0000     4.0000 </r>
       <r>   -16.2386     0.0000     4.0000 </r>
       <r>   -16.1612     0.0000     4.0000 </r>
       <r>   -16.0838     0.0000     4.0000 </r>
       <r>   -16.0064     0.0000     4.0000 </r>
       <r>   -15.9290     0.0000     4.0000 </r>
       <r>   -15.8516     0.0010     4.0001 </r>
       <r>   -15.7742     0.0617     4.0049 </r>
       <r>   -15.6968     1.2389     4.1007 </r>
       <r>   -15.6194     8.4489     4.7547 </r>
       <r>   -15.5420    19.9915     6.3020 </r>
       <r>   -15.4646    16.6073     7.5874 </r>
       <r>   -15.3872     4.8306     7.9612 </r>
       <r>   -15.3098     0.4842     7.9987 </r>
       <r>   -15.2324     0.0167     8.0000 </r>
       <r>   -15.1550     0.0275     8.0021 </r>
       <r>   -15.0776     0.7540     8.0605 </r>
       <r>   -15.0002     7.1731     8.6157 </r>
       <r>   -14.9228    26.8553    10.6942 </r>
       <r>   -14.8454    51.7382    14.6987 </r>
       <r>   -14.7680    63.6556    19.6256 </r>
       <r>   -14.6906    43.0931    22.9609 </r>
       <r>   -14.6132    16.1880    24.2138 </r>
       <r>   -14.5358    23.0598    25.9986 </r>
       <r>   -14.4584    45.0953    29.4889 </r>
       <r>   -14.3811    51.6330    33.4853 </r>
       <r>   -14.3037    65.1316    38.5264 </r>
       <r>   -14.2263    52.5396    42.5928 </r>
       <r>   -14.1489    16.6639    43.8826 </r>
       <r>   -14.0715     6.5799    44.3919 </r>
       <r>   -13.9941    25.4186    46.3592 </r>
       <r>   -13.9167    58.4012    50.8794 </r>
       <r>   -13.8393   100.2605    58.6394 </r>
       <r>   -13.7619   141.9592    69.6269 </r>
       <r>   -13.6845   111.8705    78.2855 </r>
       <r>   -13.6071    73.5151    83.9754 </r>
       <r>   -13.5297    87.0824    90.7155 </r>
       <r>   -13.4523    96.6031    98.1924 </r>
       <r>   -13.3749    76.1798   104.0886 </r>
       <r>   -13.2975    39.5907   107.1529 </r>
       <r>   -13.2201     9.9623   107.9240 </r>
       <r>   -13.1427     0.9510   107.9976 </r>
       <r>   -13.0653     0.0312   108.0000 </r>
       <r>   -12.9879     0.0003   108.0000 </r>
       <r>   -12.9105     0.0000   108.0000 </r>
       <r>   -12.8331     0.0000   108.0000 </r>
       <r>   -12.7557     0.0000   108.0000 </r>
       <r>   -12.6783     0.0000   108.0000 </r>
       <r>   -12.6009     0.0000   108.0000 </r>
       <r>   -12.5235     0.0000   108.0000 </r>
       <r>   -12.4461     0.0000   108.0000 </r>
       <r>   -12.3687     0.0000   108.0000 </r>
       <r>   -12.2913     0.0000   108.0000 </r>
       <r>   -12.2139     0.0000   108.0000 </r>
       <r>   -12.1365     0.0000   108.0000 </r>
       <r>   -12.0591     0.0000   108.0000 </r>
       <r>   -11.9817     0.0000   108.0000 </r>
       <r>   -11.9043     0.0000   108.0000 </r>
       <r>   -11.8269     0.0000   108.0000 </r>
       <r>   -11.7495     0.0000   108.0000 </r>
       <r>   -11.6721     0.0000   108.0000 </r>
       <r>   -11.5947     0.0000   108.0000 </r>
       <r>   -11.5173     0.0000   108.0000 </r>
       <r>   -11.4399     0.0000   108.0000 </r>
       <r>   -11.3625     0.0000   108.0000 </r>
       <r>   -11.2851     0.0000   108.0000 </r>
       <r>   -11.2077     0.0000   108.0000 </r>
       <r>   -11.1303     0.0000   108.0000 </r>
       <r>   -11.0529     0.0000   108.0000 </r>
       <r>   -10.9755     0.0007   108.0001 </r>
       <r>   -10.8981     0.0473   108.0037 </r>
       <r>   -10.8207     1.0494   108.0849 </r>
       <r>   -10.7433     7.7928   108.6881 </r>
       <r>   -10.6659    19.8345   110.2233 </r>
       <r>   -10.5885    18.9607   111.6908 </r>
       <r>   -10.5111    16.6310   112.9780 </r>
       <r>   -10.4337    29.0038   115.2229 </r>
       <r>   -10.3563    26.1570   117.2474 </r>
       <r>   -10.2789     8.7996   117.9284 </r>
       <r>   -10.2015     2.6332   118.1322 </r>
       <r>   -10.1241     7.2069   118.6901 </r>
       <r>   -10.0467    10.6388   119.5135 </r>
       <r>    -9.9693     5.3378   119.9266 </r>
       <r>    -9.8919     0.8976   119.9961 </r>
       <r>    -9.8145     0.0497   119.9999 </r>
       <r>    -9.7371     0.0009   120.0000 </r>
       <r>    -9.6597     0.0000   120.0000 </r>
       <r>    -9.5823     0.0000   120.0000 </r>
       <r>    -9.5049     0.0000   120.0000 </r>
       <r>    -9.4275     0.0000   120.0000 </r>
       <r>    -9.3501     0.0000   120.0000 </r>
       <r>    -9.2727     0.0000   120.0000 </r>
       <r>    -9.1953     0.0000   120.0000 </r>
       <r>    -9.1179     0.0000   120.0000 </r>
       <r>    -9.0406     0.0000   120.0000 </r>
       <r>    -8.9632     0.0000   120.0000 </r>
       <r>    -8.8858     0.0000   120.0000 </r>
       <r>    -8.8084     0.0000   120.0000 </r>
       <r>    -8.7310     0.0000   120.0000 </r>
       <r>    -8.6536     0.0000   120.0000 </r>
       <r>    -8.5762     0.0000   120.0000 </r>
       <r>    -8.4988     0.0000   120.0000 </r>
       <r>    -8.4214     0.0000   120.0000 </r>
       <r>    -8.3440     0.0000   120.0000 </r>
       <r>    -8.2666     0.0000   120.0000 </r>
       <r>    -8.1892     0.0000   120.0000 </r>
       <r>    -8.1118     0.0000   120.0000 </r>
       <r>    -8.0344     0.0000   120.0000 </r>
       <r>    -7.9570     0.0021   120.0002 </r>
       <r>    -7.8796     0.0961   120.0076 </r>
       <r>    -7.8022     1.3919   120.1153 </r>
       <r>    -7.7248     6.6646   120.6312 </r>
       <r>    -7.6474    10.7230   121.4611 </r>
       <r>    -7.5700     5.8331   121.9126 </r>
       <r>    -7.4926     1.0872   121.9967 </r>
       <r>    -7.4152     0.7718   122.0565 </r>
       <r>    -7.3378     7.5267   122.6390 </r>
       <r>    -7.2604    28.7639   124.8653 </r>
       <r>    -7.1830    43.0137   128.1945 </r>
       <r>    -7.1056    34.3813   130.8556 </r>
       <r>    -7.0282    28.2417   133.0414 </r>
       <r>    -6.9508    27.1146   135.1401 </r>
       <r>    -6.8734    33.4858   137.7318 </r>
       <r>    -6.7960    61.9403   142.5259 </r>
       <r>    -6.7186   111.9971   151.1943 </r>
       <r>    -6.6412   104.0168   159.2451 </r>
       <r>    -6.5638    73.1396   164.9060 </r>
       <r>    -6.4864   122.8203   174.4121 </r>
       <r>    -6.4090   165.1653   187.1956 </r>
       <r>    -6.3316   136.1884   197.7364 </r>
       <r>    -6.2542    86.5538   204.4356 </r>
       <r>    -6.1768    37.0028   207.2995 </r>
       <r>    -6.0994     8.2398   207.9373 </r>
       <r>    -6.0220     0.7825   207.9978 </r>
       <r>    -5.9446     0.0286   208.0001 </r>
       <r>    -5.8672     0.0719   208.0056 </r>
       <r>    -5.7898     1.7172   208.1385 </r>
       <r>    -5.7124    14.2343   209.2402 </r>
       <r>    -5.6350    43.4528   212.6034 </r>
       <r>    -5.5576    55.3466   216.8872 </r>
       <r>    -5.4802    47.0405   220.5280 </r>
       <r>    -5.4028    96.8793   228.0263 </r>
       <r>    -5.3254   210.9294   244.3520 </r>
       <r>    -5.2480   208.9181   260.5219 </r>
       <r>    -5.1706    84.7995   267.0853 </r>
       <r>    -5.0932    25.1413   269.0312 </r>
       <r>    -5.0158    37.3354   271.9209 </r>
       <r>    -4.9384    37.6143   274.8322 </r>
       <r>    -4.8610    15.4746   276.0299 </r>
       <r>    -4.7836    22.0694   277.7380 </r>
       <r>    -4.7062    74.9750   283.5410 </r>
       <r>    -4.6288   106.2657   291.7658 </r>
       <r>    -4.5514    79.2251   297.8977 </r>
       <r>    -4.4740    75.5568   303.7457 </r>
       <r>    -4.3966    89.0640   310.6391 </r>
       <r>    -4.3192    91.6542   317.7330 </r>
       <r>    -4.2418    63.7030   322.6636 </r>
       <r>    -4.1644    35.9704   325.4476 </r>
       <r>    -4.0870    50.4440   329.3519 </r>
       <r>    -4.0096    65.1174   334.3919 </r>
       <r>    -3.9322    61.9178   339.1842 </r>
       <r>    -3.8548    55.4703   343.4776 </r>
       <r>    -3.7774    43.0427   346.8090 </r>
       <r>    -3.7001    24.3595   348.6944 </r>
       <r>    -3.6227    23.3056   350.4982 </r>
       <r>    -3.5453    21.7682   352.1831 </r>
       <r>    -3.4679    32.2272   354.6774 </r>
       <r>    -3.3905    57.5985   359.1354 </r>
       <r>    -3.3131    90.4629   366.1371 </r>
       <r>    -3.2357   140.0924   376.9801 </r>
       <r>    -3.1583   144.6090   388.1726 </r>
       <r>    -3.0809   107.6452   396.5042 </r>
       <r>    -3.0035    82.0630   402.8558 </r>
       <r>    -2.9261    70.2092   408.2898 </r>
       <r>    -2.8487    88.0713   415.1064 </r>
       <r>    -2.7713   112.1537   423.7870 </r>
       <r>    -2.6939    83.5772   430.2557 </r>
       <r>    -2.6165    36.3094   433.0660 </r>
       <r>    -2.5391    28.4319   435.2666 </r>
       <r>    -2.4617    63.0062   440.1432 </r>
       <r>    -2.3843    97.2729   447.6720 </r>
       <r>    -2.3069    84.1489   454.1850 </r>
       <r>    -2.2295    52.6589   458.2607 </r>
       <r>    -2.1521    51.7937   462.2695 </r>
       <r>    -2.0747    62.1263   467.0780 </r>
       <r>    -1.9973    55.3027   471.3583 </r>
       <r>    -1.9199    50.5519   475.2709 </r>
       <r>    -1.8425    28.9839   477.5143 </r>
       <r>    -1.7651    12.3280   478.4684 </r>
       <r>    -1.6877    27.8678   480.6254 </r>
       <r>    -1.6103    43.0810   483.9598 </r>
       <r>    -1.5329    28.7022   486.1813 </r>
       <r>    -1.4555    22.2857   487.9062 </r>
       <r>    -1.3781    19.2255   489.3942 </r>
       <r>    -1.3007     6.9222   489.9299 </r>
       <r>    -1.2233     0.8679   489.9971 </r>
       <r>    -1.1459     0.0367   490.0000 </r>
       <r>    -1.0685     0.0005   490.0000 </r>
       <r>    -0.9911     0.0000   490.0000 </r>
       <r>    -0.9137     0.0000   490.0000 </r>
       <r>    -0.8363     0.0000   490.0000 </r>
       <r>    -0.7589     0.0000   490.0000 </r>
       <r>    -0.6815     0.0000   490.0000 </r>
       <r>    -0.6041     0.0000   490.0000 </r>
       <r>    -0.5267     0.0000   490.0000 </r>
       <r>    -0.4493     0.0000   490.0000 </r>
       <r>    -0.3719     0.0000   490.0000 </r>
       <r>    -0.2945     0.0000   490.0000 </r>
       <r>    -0.2171     0.0000   490.0000 </r>
       <r>    -0.1397     0.0000   490.0000 </r>
       <r>    -0.0623     0.0000   490.0000 </r>
       <r>     0.0151     0.0000   490.0000 </r>
       <r>     0.0925     0.0023   490.0002 </r>
       <r>     0.1699     0.1367   490.0108 </r>
       <r>     0.2473     2.8188   490.2289 </r>
       <r>     0.3247    20.6297   491.8256 </r>
       <r>     0.4021    55.4139   496.1146 </r>
       <r>     0.4795    59.1783   500.6949 </r>
       <r>     0.5569    46.8109   504.3180 </r>
       <r>     0.6343    75.6388   510.1723 </r>
       <r>     0.7117   137.9103   520.8464 </r>
       <r>     0.7891   166.5663   533.7384 </r>
       <r>     0.8665   141.6504   544.7019 </r>
       <r>     0.9439   126.6069   554.5011 </r>
       <r>     1.0213    74.5628   560.2722 </r>
       <r>     1.0987    22.5645   562.0186 </r>
       <r>     1.1761    22.7632   563.7805 </r>
       <r>     1.2535    69.5597   569.1643 </r>
       <r>     1.3309   112.4792   577.8700 </r>
       <r>     1.4083   114.5394   586.7352 </r>
       <r>     1.4857    94.3283   594.0361 </r>
       <r>     1.5631    57.1324   598.4580 </r>
       <r>     1.6404    17.6519   599.8243 </r>
       <r>     1.7178     2.1731   599.9925 </r>
       <r>     1.7952     0.0959   599.9999 </r>
       <r>     1.8726     0.0014   600.0000 </r>
       <r>     1.9500     0.0000   600.0000 </r>
       <r>     2.0274     0.0000   600.0000 </r>
       <r>     2.1048     0.0000   600.0000 </r>
       <r>     2.1822     0.0000   600.0000 </r>
       <r>     2.2596     0.0000   600.0000 </r>
       <r>     2.3370     0.0000   600.0000 </r>
       <r>     2.4144     0.0000   600.0000 </r>
       <r>     2.4918     0.0000   600.0000 </r>
       <r>     2.5692     0.0000   600.0000 </r>
      </set>
     </set>
    </array>
   </total>
  </dos>
 </calculation>
 <structure name="finalpos" >
  <crystal>
   <varray name="basis" >
    <v>       9.57094646       0.00000000       0.00000000 </v>
    <v>      -6.38062803      11.05157872       0.00000000 </v>
    <v>       0.00000000       0.00000000      34.88026251 </v>
   </varray>
   <i name="volume">   3689.42726549 </i>
   <varray name="rec_basis" >
    <v>       0.10448287       0.06032318       0.00000000 </v>
    <v>       0.00000000       0.09048481       0.00000000 </v>
    <v>       0.00000000       0.00000000       0.02866951 </v>
   </varray>
  </crystal>
  <varray name="positions" >
   <v>       0.89954097       0.45259310       0.47036546 </v>
   <v>       0.73169980       0.37401157       0.46239705 </v>
   <v>       0.91255364       0.53463442       0.50002745 </v>
   <v>       0.75285343       0.50680383       0.51042072 </v>
   <v>       0.64109264       0.40746693       0.48720569 </v>
   <v>       0.79849965       0.57983257       0.39453232 </v>
   <v>       0.71419735       0.66906543       0.43992495 </v>
   <v>       0.65964090       0.57562280       0.41153069 </v>
   <v>       0.88709246       0.73108590       0.44043338 </v>
   <v>       0.93893211       0.67595890       0.41231116 </v>
   <v>       0.79405808       0.55109188       0.45300292 </v>
   <v>       0.51054916       0.36676456       0.48760481 </v>
   <v>       0.53490250       0.51076436       0.40452218 </v>
   <v>       0.96461962       0.80476168       0.45956515 </v>
   <v>       0.63826586       0.68764322       0.45863718 </v>
   <v>       0.79724693       0.51907024       0.37248896 </v>
   <v>       0.68206659       0.30398777       0.44053087 </v>
   <v>       0.99930354       0.45221063       0.45560639 </v>
   <v>       0.02391194       0.60721035       0.51203737 </v>
   <v>       0.72258675       0.55466154       0.53165299 </v>
   <v>       0.06300920       0.70093974       0.40601450 </v>
   <v>       0.55598040       0.08389049       0.25018470 </v>
   <v>       0.55580852       0.33380515       0.25028010 </v>
   <v>       0.44402714       0.41614278       0.74996159 </v>
   <v>       0.55597473       0.58390447       0.25025741 </v>
   <v>       0.44402873       0.66615250       0.74995906 </v>
   <v>       0.55596085       0.83385469       0.25018497 </v>
   <v>       0.44403506       0.91615644       0.74996066 </v>
   <v>       0.88939258       0.33383001       0.25024772 </v>
   <v>       0.77737832       0.16610121       0.74996465 </v>
   <v>       0.77737714       0.41609594       0.74996044 </v>
   <v>       0.88921420       0.58400753       0.25031830 </v>
   <v>       0.77738436       0.66610505       0.74996034 </v>
   <v>       0.88931884       0.83386947       0.25017926 </v>
   <v>       0.77738170       0.91610564       0.74996286 </v>
   <v>       0.11068094       0.91611361       0.74996305 </v>
   <v>       0.88931359       0.08389765       0.25016167 </v>
   <v>       0.22259247       0.83395739       0.25023094 </v>
   <v>       0.44402988       0.16614782       0.74996213 </v>
   <v>       0.22254792       0.58387905       0.25025593 </v>
   <v>       0.11066884       0.41610226       0.74996398 </v>
   <v>       0.22261772       0.33390454       0.25024584 </v>
   <v>       0.22256677       0.08387935       0.25018362 </v>
   <v>       0.11067176       0.16610529       0.74996660 </v>
   <v>       0.11067701       0.66611314       0.74995993 </v>
   <v>       0.77747470       0.16623254       0.29471446 </v>
   <v>       0.88915030       0.08358684       0.79452761 </v>
   <v>       0.77757800       0.16649369       0.20562291 </v>
   <v>       0.88917037       0.08360505       0.70541975 </v>
   <v>       0.22249854       0.08362520       0.70541897 </v>
   <v>       0.11095274       0.16650936       0.20563359 </v>
   <v>       0.77742157       0.41627276       0.29478778 </v>
   <v>       0.88915196       0.33359108       0.79452582 </v>
   <v>       0.11066001       0.66637426       0.20573362 </v>
   <v>       0.55583750       0.83364701       0.70541643 </v>
   <v>       0.88916548       0.33359112       0.70541687 </v>
   <v>       0.22250559       0.08361501       0.79452873 </v>
   <v>       0.11072840       0.16628594       0.29470858 </v>
   <v>       0.77746459       0.66662557       0.29481036 </v>
   <v>       0.88915576       0.58358892       0.79452065 </v>
   <v>       0.77746113       0.66630044       0.20567313 </v>
   <v>       0.88916622       0.58359728       0.70541410 </v>
   <v>       0.77753255       0.91642193       0.29468958 </v>
   <v>       0.88915590       0.83358806       0.79452347 </v>
   <v>       0.77749472       0.41648596       0.20576139 </v>
   <v>       0.44411055       0.91635567       0.20564041 </v>
   <v>       0.44430992       0.91644936       0.29471405 </v>
   <v>       0.22249248       0.58361474       0.70541657 </v>
   <v>       0.22250118       0.58361879       0.79452427 </v>
   <v>       0.11076659       0.91643347       0.29473540 </v>
   <v>       0.22250328       0.83361567       0.79452499 </v>
   <v>       0.11088125       0.91638319       0.20563242 </v>
   <v>       0.22250689       0.83363186       0.70541705 </v>
   <v>       0.11091073       0.66654302       0.29483250 </v>
   <v>       0.77748481       0.91634670       0.20560931 </v>
   <v>       0.44399806       0.16617545       0.29473266 </v>
   <v>       0.55582485       0.08363005       0.79452571 </v>
   <v>       0.44420583       0.16647790       0.20565441 </v>
   <v>       0.55583772       0.08364298       0.70541713 </v>
   <v>       0.44416458       0.41642171       0.29481021 </v>
   <v>       0.55583181       0.33363048       0.79452336 </v>
   <v>       0.44426321       0.41642315       0.20570968 </v>
   <v>       0.55582557       0.33363009       0.70541484 </v>
   <v>       0.22248876       0.33360980       0.70541947 </v>
   <v>       0.11090274       0.41647355       0.20569288 </v>
   <v>       0.44420799       0.66647717       0.29476524 </v>
   <v>       0.55582973       0.58363258       0.79452062 </v>
   <v>       0.44405605       0.66629061       0.20567799 </v>
   <v>       0.55582827       0.58363334       0.70541492 </v>
   <v>       0.22250324       0.33361691       0.79452789 </v>
   <v>       0.11084915       0.41636010       0.29476916 </v>
   <v>       0.55582564       0.83362976       0.79452284 </v>
   <v>       0.88917516       0.83361058       0.70541706 </v>
  </varray>
 </structure>
</modeling>
