basalPlane                              
           1
     9.570946    0.000000    0.000000
    -6.380628   11.051579    0.000000
     0.000000    0.000000   34.880263
   C    Co   H    Mo   S 
  10   1  10  24  48
Direct configuration=     1
   0.89912236  0.44979638  0.47128739
   0.73132921  0.37162004  0.46334586
   0.91256670  0.53234702  0.50080121
   0.75299340  0.50488742  0.51119057
   0.64104108  0.40570672  0.48800710
   0.79887412  0.58214959  0.39435749
   0.71415589  0.67147124  0.43959549
   0.65979215  0.57767754  0.41136895
   0.88687765  0.73367113  0.44011914
   0.93917177  0.67849341  0.41212607
   0.79445075  0.55112436  0.45323647
   0.51052773  0.36530823  0.48851271
   0.53479781  0.51283665  0.40454973
   0.96459940  0.80847298  0.45887890
   0.63751720  0.69008732  0.45802868
   0.79808725  0.52138432  0.37239488
   0.68136769  0.30052284  0.44180394
   0.99877917  0.44833741  0.45682949
   0.02446575  0.60443984  0.51277173
   0.72207313  0.55262975  0.53231950
   0.06347517  0.70373573  0.40597285
   0.55555566  0.08333325  0.25000928
   0.55555566  0.33333325  0.25000928
   0.44444432  0.41666674  0.74999076
   0.55555566  0.58333325  0.25000928
   0.44444432  0.66666674  0.74999076
   0.55555566  0.83333325  0.25000928
   0.44444432  0.91666674  0.74999076
   0.88888899  0.33333325  0.25000928
   0.77777765  0.16666674  0.74999076
   0.77777765  0.41666674  0.74999076
   0.88888899  0.58333325  0.25000928
   0.77777765  0.66666674  0.74999076
   0.88888899  0.83333325  0.25000928
   0.77777765  0.91666674  0.74999076
   0.11111099  0.91666674  0.74999076
   0.88888899  0.08333325  0.25000928
   0.22222233  0.83333325  0.25000928
   0.44444432  0.16666674  0.74999076
   0.22222233  0.58333325  0.25000928
   0.11111099  0.41666674  0.74999076
   0.22222233  0.33333325  0.25000928
   0.22222233  0.08333325  0.25000928
   0.11111099  0.16666674  0.74999076
   0.11111099  0.66666674  0.74999076
   0.77777765  0.16666674  0.29487388
   0.88888899  0.08333325  0.79485533
   0.77777765  0.16666674  0.20514467
   0.88888899  0.08333325  0.70512613
   0.22222233  0.08333325  0.70512613
   0.11111099  0.16666674  0.20514467
   0.77777765  0.41666674  0.29487388
   0.88888899  0.33333325  0.79485533
   0.11111099  0.66666674  0.20514467
   0.55555566  0.83333325  0.70512613
   0.88888899  0.33333325  0.70512613
   0.22222233  0.08333325  0.79485533
   0.11111099  0.16666674  0.29487388
   0.77777765  0.66666674  0.29487388
   0.88888899  0.58333325  0.79485533
   0.77777765  0.66666674  0.20514467
   0.88888899  0.58333325  0.70512613
   0.77777765  0.91666674  0.29487388
   0.88888899  0.83333325  0.79485533
   0.77777765  0.41666674  0.20514467
   0.44444432  0.91666674  0.20514467
   0.44444432  0.91666674  0.29487388
   0.22222233  0.58333325  0.70512613
   0.22222233  0.58333325  0.79485533
   0.11111099  0.91666674  0.29487388
   0.22222233  0.83333325  0.79485533
   0.11111099  0.91666674  0.20514467
   0.22222233  0.83333325  0.70512613
   0.11111099  0.66666674  0.29487388
   0.77777765  0.91666674  0.20514467
   0.44444432  0.16666674  0.29487388
   0.55555566  0.08333325  0.79485533
   0.44444432  0.16666674  0.20514467
   0.55555566  0.08333325  0.70512613
   0.44444432  0.41666674  0.29487388
   0.55555566  0.33333325  0.79485533
   0.44444432  0.41666674  0.20514467
   0.55555566  0.33333325  0.70512613
   0.22222233  0.33333325  0.70512613
   0.11111099  0.41666674  0.20514467
   0.44444432  0.66666674  0.29487388
   0.55555566  0.58333325  0.79485533
   0.44444432  0.66666674  0.20514467
   0.55555566  0.58333325  0.70512613
   0.22222233  0.33333325  0.79485533
   0.11111099  0.41666674  0.29487388
   0.55555566  0.83333325  0.79485533
   0.88888899  0.83333325  0.70512613
Direct configuration=     2
   0.89898590  0.45017484  0.47119669
   0.73135835  0.37198026  0.46321882
   0.91242954  0.53257018  0.50067411
   0.75305559  0.50519857  0.51104765
   0.64126499  0.40607174  0.48790023
   0.79887325  0.58185582  0.39448485
   0.71427067  0.67100227  0.43965810
   0.66008966  0.57747755  0.41146532
   0.88679127  0.73316197  0.44017968
   0.93878946  0.67807117  0.41223302
   0.79439936  0.55127486  0.45326766
   0.51059436  0.36528638  0.48849517
   0.53488949  0.51285541  0.40451553
   0.96454801  0.80836765  0.45889224
   0.63760390  0.69011521  0.45803905
   0.79803558  0.52135580  0.37235643
   0.68140804  0.30060556  0.44178332
   0.99873680  0.44839032  0.45681072
   0.02438174  0.60446420  0.51277050
   0.72217863  0.55266474  0.53232641
   0.06339401  0.70370810  0.40594289
   0.55619065  0.08411556  0.25003414
   0.55610818  0.33407447  0.25003978
   0.44382219  0.41589254  0.74998056
   0.55620905  0.58410858  0.25003209
   0.44382394  0.66589887  0.74997948
   0.55619072  0.83409161  0.25003236
   0.44382508  0.91589764  0.74997891
   0.88959373  0.33406167  0.25003673
   0.77718186  0.16588758  0.74997975
   0.77718080  0.41588571  0.74997982
   0.88947797  0.58416836  0.25004226
   0.77718506  0.66588993  0.74998051
   0.88953088  0.83406191  0.25002298
   0.77718162  0.91589045  0.74997949
   0.11048407  0.91589641  0.74997906
   0.88953211  0.08413281  0.25003364
   0.22281073  0.83414046  0.25003297
   0.44382329  0.16589417  0.74997942
   0.22280745  0.58405190  0.25002185
   0.11047864  0.41589213  0.74997958
   0.22279108  0.33409759  0.25004053
   0.22283321  0.08413544  0.25003061
   0.11047925  0.16589384  0.74997956
   0.11048192  0.66589726  0.74997892
   0.77744987  0.16625299  0.29458875
   0.88919676  0.08371868  0.79457846
   0.77746721  0.16628346  0.20541818
   0.88919937  0.08372334  0.70541396
   0.22253643  0.08372429  0.70541403
   0.11080591  0.16627858  0.20541986
   0.77743654  0.41626312  0.29459013
   0.88919536  0.33371901  0.79457854
   0.11080511  0.66628751  0.20541922
   0.55586688  0.83372567  0.70541426
   0.88919697  0.33372178  0.70541369
   0.22253315  0.08372000  0.79457845
   0.11079182  0.16626166  0.29458635
   0.77745942  0.66631102  0.29460403
   0.88919548  0.58371894  0.79457803
   0.77747114  0.66627947  0.20541029
   0.88919735  0.58372226  0.70541325
   0.77745154  0.91627915  0.29459286
   0.88919515  0.83371837  0.79457803
   0.77746527  0.41629104  0.20542366
   0.44413734  0.91628389  0.20541925
   0.44413901  0.91628160  0.29458805
   0.22253550  0.58372317  0.70541415
   0.22253328  0.58371970  0.79457832
   0.11079272  0.91627044  0.29460015
   0.22253431  0.83371952  0.79457828
   0.11080074  0.91628530  0.20541924
   0.22253832  0.83372476  0.70541423
   0.11080417  0.66630000  0.29461946
   0.77746849  0.91628807  0.20541989
   0.44411422  0.16625887  0.29458660
   0.55586195  0.08371865  0.79457859
   0.44413441  0.16628423  0.20542103
   0.55586537  0.08372315  0.70541404
   0.44415099  0.41629510  0.29460386
   0.55586290  0.33371962  0.79457839
   0.44414984  0.41628982  0.20542112
   0.55586547  0.33372246  0.70541335
   0.22253517  0.33372119  0.70541389
   0.11080823  0.41630038  0.20542272
   0.44414495  0.66628500  0.29460002
   0.55586372  0.58371924  0.79457810
   0.44413731  0.66629204  0.20541863
   0.55586670  0.58372248  0.70541362
   0.22253349  0.33371873  0.79457829
   0.11080525  0.41627840  0.29458560
   0.55586318  0.83372002  0.79457839
   0.88919882  0.83372391  0.70541410
Direct configuration=     3
   0.89899574  0.45014758  0.47120323
   0.73135625  0.37195430  0.46322797
   0.91243942  0.53255410  0.50068326
   0.75305111  0.50517616  0.51105795
   0.64124886  0.40604544  0.48790793
   0.79887331  0.58187699  0.39447568
   0.71426240  0.67103606  0.43965359
   0.66006823  0.57749196  0.41145838
   0.88679750  0.73319865  0.44017532
   0.93881701  0.67810159  0.41222532
   0.79440306  0.55126402  0.45326542
   0.51058956  0.36528796  0.48849643
   0.53488288  0.51285406  0.40451799
   0.96455171  0.80837524  0.45889128
   0.63759765  0.69011320  0.45803831
   0.79803930  0.52135785  0.37235920
   0.68140513  0.30059960  0.44178480
   0.99873985  0.44838651  0.45681208
   0.02438780  0.60446245  0.51277059
   0.72217103  0.55266222  0.53232591
   0.06339986  0.70371009  0.40594505
   0.55614490  0.08405919  0.25003235
   0.55606837  0.33402106  0.25003758
   0.44386702  0.41594832  0.74998129
   0.55616198  0.58405272  0.25003045
   0.44386864  0.66595419  0.74998029
   0.55614496  0.83403697  0.25003070
   0.44386970  0.91595305  0.74997976
   0.88954296  0.33400919  0.25003475
   0.77722478  0.16594372  0.74998054
   0.77722380  0.41594199  0.74998061
   0.88943554  0.58410819  0.25003989
   0.77722776  0.66594590  0.74998125
   0.88948463  0.83400941  0.25002200
   0.77722456  0.91594639  0.74998030
   0.11052924  0.91595191  0.74997990
   0.88948577  0.08407520  0.25003188
   0.22276833  0.83408230  0.25003126
   0.44386804  0.16594983  0.74998024
   0.22276529  0.58400012  0.25002094
   0.11052420  0.41594794  0.74998039
   0.22275010  0.33404252  0.25003828
   0.22278920  0.08407764  0.25002908
   0.11052477  0.16594953  0.74998037
   0.11052725  0.66595270  0.74997977
   0.77747348  0.16628281  0.29460929
   0.88917458  0.08369091  0.79459841
   0.77748957  0.16631108  0.20539847
   0.88917700  0.08369524  0.70539323
   0.22251380  0.08369612  0.70539328
   0.11082789  0.16630655  0.20540004
   0.77746112  0.41629220  0.29461058
   0.88917329  0.33369121  0.79459848
   0.11082715  0.66631483  0.20539944
   0.55584445  0.83369740  0.70539350
   0.88917478  0.33369379  0.70539297
   0.22251075  0.08369213  0.79459840
   0.11081482  0.16629085  0.29460707
   0.77748235  0.66633665  0.29462348
   0.88917340  0.58369115  0.79459801
   0.77749323  0.66630738  0.20539115
   0.88917513  0.58369423  0.70539257
   0.77747504  0.91630708  0.29461311
   0.88917309  0.83369062  0.79459801
   0.77748777  0.41631811  0.20540355
   0.44415946  0.91631147  0.20539946
   0.44416100  0.91630935  0.29460865
   0.22251294  0.58369508  0.70539340
   0.22251088  0.58369185  0.79459827
   0.11081565  0.91629899  0.29461987
   0.22251183  0.83369169  0.79459824
   0.11082309  0.91631278  0.20539946
   0.22251555  0.83369655  0.70539347
   0.11082627  0.66632642  0.29463779
   0.77749077  0.91631535  0.20540006
   0.44413801  0.16628826  0.29460730
   0.55583988  0.08369088  0.79459853
   0.44415674  0.16631179  0.20540112
   0.55584306  0.08369506  0.70539330
   0.44417212  0.41632187  0.29462332
   0.55584077  0.33369179  0.79459834
   0.44417106  0.41631698  0.20540120
   0.55584314  0.33369441  0.70539265
   0.22251263  0.33369324  0.70539315
   0.11083004  0.41632678  0.20540269
   0.44416652  0.66631250  0.29461976
   0.55584152  0.58369143  0.79459807
   0.44415943  0.66631904  0.20539890
   0.55584429  0.58369444  0.70539290
   0.22251107  0.33369096  0.79459826
   0.11082728  0.41630638  0.29460637
   0.55584102  0.83369215  0.79459834
   0.88917649  0.83369576  0.70539335
Direct configuration=     4
   0.89928437  0.45037679  0.47103196
   0.73134684  0.37227675  0.46313390
   0.91276706  0.53306379  0.50064602
   0.75300261  0.50558824  0.51101217
   0.64089184  0.40611793  0.48779737
   0.79877192  0.58129320  0.39445571
   0.71387616  0.67090595  0.43985598
   0.65936582  0.57683936  0.41146421
   0.88708705  0.73329767  0.44035981
   0.93966856  0.67798255  0.41223590
   0.79435693  0.55123166  0.45328916
   0.51087163  0.36536521  0.48847093
   0.53531208  0.51301625  0.40450825
   0.96430490  0.80803003  0.45885614
   0.63795497  0.69002226  0.45798344
   0.79800229  0.52143537  0.37237946
   0.68144811  0.30071885  0.44174934
   0.99848070  0.44849587  0.45681670
   0.02409751  0.60437254  0.51273545
   0.72231958  0.55263793  0.53228762
   0.06289305  0.70356082  0.40594379
   0.55601939  0.08390167  0.25002468
   0.55590957  0.33384809  0.25003686
   0.44401582  0.41611315  0.74998630
   0.55604449  0.58390472  0.25003127
   0.44401604  0.66611853  0.74998571
   0.55599867  0.83386838  0.25002780
   0.44401899  0.91611872  0.74998581
   0.88940103  0.33384944  0.25003114
   0.77736095  0.16610928  0.74998635
   0.77736067  0.41610623  0.74998570
   0.88930630  0.58396540  0.25004464
   0.77736332  0.66611063  0.74998610
   0.88934343  0.83385367  0.25002069
   0.77736113  0.91611174  0.74998587
   0.11068616  0.91611819  0.74998673
   0.88933803  0.08389653  0.25002354
   0.22265034  0.83391778  0.25003263
   0.44401673  0.16611581  0.74998586
   0.22263978  0.58385622  0.25002672
   0.11068027  0.41611357  0.74998694
   0.22264752  0.33388959  0.25003611
   0.22264216  0.08389297  0.25002500
   0.11068280  0.16611446  0.74998722
   0.11068546  0.66611709  0.74998630
   0.77753400  0.16634521  0.29453581
   0.88910143  0.08360361  0.79451644
   0.77756077  0.16639370  0.20549603
   0.88910435  0.08360979  0.70546708
   0.22244097  0.08361626  0.70546867
   0.11089518  0.16639809  0.20549750
   0.77751664  0.41635919  0.29452787
   0.88910015  0.33360302  0.79451641
   0.11087472  0.66640152  0.20550668
   0.55577582  0.83361870  0.70546923
   0.88910161  0.33360626  0.70546676
   0.22243684  0.08361009  0.79451439
   0.11087170  0.16636460  0.29453259
   0.77753588  0.66644734  0.29455577
   0.88910179  0.58360369  0.79451553
   0.77755472  0.66638256  0.20548276
   0.88910207  0.58360746  0.70546627
   0.77755379  0.91638306  0.29453078
   0.88910218  0.83360487  0.79451565
   0.77755739  0.41640445  0.20552088
   0.44422320  0.91639330  0.20550152
   0.44422644  0.91638958  0.29452726
   0.22243915  0.58361463  0.70546919
   0.22243657  0.58361051  0.79451372
   0.11086995  0.91638653  0.29454652
   0.22243832  0.83361083  0.79451391
   0.11089323  0.91640767  0.20549548
   0.22244304  0.83361795  0.70546866
   0.11089531  0.66641992  0.29456910
   0.77757013  0.91640003  0.20550181
   0.44418405  0.16635387  0.29453225
   0.55576965  0.08360922  0.79451452
   0.44422216  0.16639869  0.20550055
   0.55577488  0.08361600  0.70546881
   0.44423647  0.41640992  0.29455461
   0.55577008  0.33360868  0.79451447
   0.44423076  0.41639554  0.20550711
   0.55577300  0.33361297  0.70546815
   0.22243870  0.33361207  0.70546872
   0.11089862  0.41640370  0.20549752
   0.44422881  0.66638538  0.29454210
   0.55577054  0.58361006  0.79451365
   0.44422807  0.66639769  0.20549872
   0.55577500  0.58361383  0.70546918
   0.22243590  0.33360859  0.79451448
   0.11090124  0.41638599  0.29453288
   0.55577079  0.83361118  0.79451412
   0.88910558  0.83361090  0.70546743
Direct configuration=     5
   0.89912589  0.45025094  0.47112600
   0.73135200  0.37209971  0.46318555
   0.91258716  0.53278394  0.50066647
   0.75302924  0.50536198  0.51103731
   0.64108787  0.40607813  0.48785807
   0.79882759  0.58161374  0.39446667
   0.71408823  0.67097739  0.43974485
   0.65975149  0.57719768  0.41146101
   0.88692807  0.73324330  0.44025851
   0.93920100  0.67804791  0.41223009
   0.79438226  0.55124943  0.45327612
   0.51071675  0.36532279  0.48848493
   0.53507642  0.51292720  0.40451360
   0.96444042  0.80821957  0.45887543
   0.63775877  0.69007219  0.45801357
   0.79802261  0.52139281  0.37236834
   0.68142451  0.30065337  0.44176881
   0.99862299  0.44843582  0.45681416
   0.02425690  0.60442190  0.51275474
   0.72223801  0.55265126  0.53230864
   0.06317132  0.70364278  0.40594448
   0.55608830  0.08398816  0.25002889
   0.55599676  0.33394306  0.25003726
   0.44393412  0.41602265  0.74998355
   0.55610900  0.58398598  0.25003082
   0.44393510  0.66602830  0.74998273
   0.55607900  0.83396095  0.25002939
   0.44393702  0.91602776  0.74998249
   0.88947896  0.33393715  0.25003312
   0.77728619  0.16601837  0.74998316
   0.77728552  0.41601605  0.74998291
   0.88937726  0.58404380  0.25004203
   0.77728889  0.66602018  0.74998344
   0.88942096  0.83393918  0.25002141
   0.77728614  0.91602095  0.74998281
   0.11060000  0.91602689  0.74998298
   0.88941915  0.08399463  0.25002812
   0.22271512  0.83400811  0.25003188
   0.44393509  0.16602468  0.74998278
   0.22270870  0.58393523  0.25002355
   0.11059458  0.41602263  0.74998334
   0.22270384  0.33397356  0.25003730
   0.22272289  0.08399436  0.25002724
   0.11059603  0.16602390  0.74998346
   0.11059859  0.66602683  0.74998272
   0.77750077  0.16631094  0.29457616
   0.88914160  0.08365154  0.79456145
   0.77752168  0.16634833  0.20544246
   0.88914424  0.08365671  0.70542653
   0.22248096  0.08366011  0.70542728
   0.11085823  0.16634783  0.20544398
   0.77748616  0.41632241  0.29457328
   0.88914031  0.33365145  0.79456147
   0.11084860  0.66635392  0.20544779
   0.55581350  0.83366191  0.70542765
   0.88914178  0.33365432  0.70542625
   0.22247742  0.08365514  0.79456052
   0.11084047  0.16632411  0.29457348
   0.77750648  0.66638656  0.29459294
   0.88914111  0.58365171  0.79456082
   0.77752096  0.66634128  0.20543246
   0.88914219  0.58365510  0.70542580
   0.77751055  0.91634134  0.29457599
   0.88914112  0.83365195  0.79456088
   0.77751917  0.41635704  0.20545646
   0.44418820  0.91634837  0.20544548
   0.44419051  0.91634553  0.29457195
   0.22247966  0.58365880  0.70542757
   0.22247737  0.58365517  0.79456014
   0.11084014  0.91633847  0.29458680
   0.22247868  0.83365523  0.79456022
   0.11085472  0.91635557  0.20544276
   0.22248286  0.83366111  0.70542738
   0.11085740  0.66636858  0.29460682
   0.77752656  0.91635354  0.20544594
   0.44415877  0.16631784  0.29457345
   0.55580821  0.08365406  0.79456065
   0.44418624  0.16635098  0.20544596
   0.55581231  0.08365941  0.70542735
   0.44420114  0.41636158  0.29459234
   0.55580889  0.33365431  0.79456052
   0.44419798  0.41635240  0.20544896
   0.55581152  0.33365769  0.70542670
   0.22247929  0.33365664  0.70542723
   0.11086096  0.41636146  0.20544545
   0.44419460  0.66634537  0.29458474
   0.55580951  0.58365474  0.79456001
   0.44419038  0.66635451  0.20544391
   0.55581304  0.58365809  0.70542730
   0.22247717  0.33365381  0.79456048
   0.11086063  0.41634228  0.29457323
   0.55580935  0.83365564  0.79456036
   0.88914451  0.83365749  0.70542676
Direct configuration=     6
   0.89907007  0.45062045  0.47103838
   0.73138992  0.37243062  0.46308182
   0.91247758  0.53299051  0.50055938
   0.75307575  0.50562157  0.51091493
   0.64120254  0.40639236  0.48776666
   0.79880712  0.58138627  0.39457669
   0.71423409  0.67062046  0.43980012
   0.65996510  0.57704918  0.41154659
   0.88677100  0.73279426  0.44030556
   0.93890151  0.67768958  0.41231992
   0.79435853  0.55125893  0.45328258
   0.51072064  0.36531867  0.48845165
   0.53502483  0.51281785  0.40447672
   0.96445816  0.80810704  0.45891296
   0.63781482  0.69003944  0.45803887
   0.79797126  0.52128194  0.37233151
   0.68146493  0.30079673  0.44172278
   0.99861031  0.44855962  0.45677062
   0.02422170  0.60452193  0.51274284
   0.72233288  0.55273173  0.53230407
   0.06324773  0.70359037  0.40591474
   0.55593308  0.08379054  0.25002515
   0.55581184  0.33373117  0.25004104
   0.44410772  0.41622566  0.74998654
   0.55596041  0.58379746  0.25003558
   0.44410736  0.66623097  0.74998591
   0.55590639  0.83375435  0.25002970
   0.44411093  0.91623190  0.74998621
   0.88931020  0.33374001  0.25003390
   0.77744948  0.16622298  0.74998646
   0.77744922  0.41621932  0.74998556
   0.88922194  0.58386096  0.25005094
   0.77745167  0.66622400  0.74998586
   0.88925529  0.83374896  0.25002350
   0.77745056  0.91622532  0.74998599
   0.11077881  0.91622932  0.74998720
   0.88924630  0.08377864  0.25002406
   0.22256654  0.83380467  0.25003700
   0.44410843  0.16622889  0.74998617
   0.22255448  0.58375378  0.25003317
   0.11077253  0.41622430  0.74998734
   0.22257322  0.33378185  0.25003923
   0.22254740  0.08377018  0.25002721
   0.11077568  0.16622505  0.74998774
   0.11077832  0.66622753  0.74998663
   0.77757531  0.16639261  0.29453018
   0.88905660  0.08354555  0.79450830
   0.77760708  0.16645036  0.20551194
   0.88906026  0.08355294  0.70547212
   0.22239669  0.08356167  0.70547413
   0.11094013  0.16645964  0.20551406
   0.77755500  0.41640782  0.29451926
   0.88905543  0.33354459  0.79450824
   0.11090784  0.66645968  0.20552923
   0.55573287  0.83356462  0.70547463
   0.88905744  0.33354828  0.70547173
   0.22239244  0.08355473  0.79450590
   0.11090999  0.16641666  0.29452661
   0.77757288  0.66651772  0.29455322
   0.88905770  0.58354544  0.79450709
   0.77759548  0.66643577  0.20549793
   0.88905802  0.58354988  0.70547121
   0.77760283  0.91643570  0.29452151
   0.88905843  0.83354739  0.79450736
   0.77760139  0.41646340  0.20554720
   0.44426370  0.91644824  0.20551975
   0.44427093  0.91644607  0.29451895
   0.22239423  0.58355977  0.70547475
   0.22239174  0.58355537  0.79450495
   0.11090733  0.91644543  0.29454075
   0.22239371  0.83355593  0.79450522
   0.11093826  0.91646746  0.20551168
   0.22239883  0.83356402  0.70547409
   0.11094055  0.66648168  0.29456550
   0.77761683  0.91645431  0.20551955
   0.44421590  0.16640000  0.29452653
   0.55572620  0.08355397  0.79450604
   0.44426245  0.16645596  0.20551735
   0.55573236  0.08356194  0.70547415
   0.44427833  0.41646845  0.29455164
   0.55572654  0.33355267  0.79450597
   0.44427099  0.41645051  0.20552753
   0.55572949  0.33355767  0.70547346
   0.22239365  0.33355707  0.70547430
   0.11094445  0.41645743  0.20551354
   0.44426993  0.66643705  0.29453500
   0.55572666  0.58355470  0.79450491
   0.44427015  0.66644986  0.20551682
   0.55573166  0.58355897  0.70547479
   0.22239085  0.33355324  0.79450599
   0.11094717  0.41643978  0.29452819
   0.55572729  0.83355594  0.79450552
   0.88906238  0.83355428  0.70547252
Direct configuration=     7
   0.89908041  0.45055203  0.47105460
   0.73138290  0.37236935  0.46310103
   0.91249787  0.53295226  0.50057921
   0.75306714  0.50557350  0.51093759
   0.64118131  0.40633418  0.48778359
   0.79881091  0.58142839  0.39455632
   0.71420708  0.67068655  0.43978989
   0.65992555  0.57707667  0.41153074
   0.88680008  0.73287740  0.44029685
   0.93895696  0.67775593  0.41230328
   0.79436292  0.55125717  0.45328138
   0.51071992  0.36531943  0.48845781
   0.53503439  0.51283810  0.40448355
   0.96445487  0.80812788  0.45890601
   0.63780444  0.69004550  0.45803418
   0.79798077  0.52130247  0.37233833
   0.68145744  0.30077019  0.44173130
   0.99861266  0.44853670  0.45677868
   0.02422822  0.60450341  0.51274504
   0.72231531  0.55271683  0.53230492
   0.06323358  0.70360007  0.40592025
   0.55596182  0.08382713  0.25002584
   0.55584608  0.33377040  0.25004034
   0.44407557  0.41618807  0.74998598
   0.55598792  0.58383237  0.25003470
   0.44407546  0.66619344  0.74998532
   0.55593835  0.83379261  0.25002964
   0.44407872  0.91619410  0.74998552
   0.88934145  0.33377652  0.25003376
   0.77741924  0.16618509  0.74998585
   0.77741891  0.41618168  0.74998507
   0.88925070  0.58389482  0.25004929
   0.77742153  0.66618626  0.74998541
   0.88928597  0.83378419  0.25002312
   0.77742012  0.91618748  0.74998540
   0.11074570  0.91619184  0.74998642
   0.88927831  0.08381863  0.25002481
   0.22259405  0.83384234  0.25003605
   0.44407633  0.16619108  0.74998554
   0.22258303  0.58378738  0.25003139
   0.11073958  0.41618695  0.74998660
   0.22259741  0.33381735  0.25003887
   0.22257989  0.08381169  0.25002722
   0.11074242  0.16618780  0.74998694
   0.11074504  0.66619037  0.74998590
   0.77756151  0.16637749  0.29453870
   0.88907234  0.08356518  0.79451814
   0.77759127  0.16643147  0.20549907
   0.88907581  0.08357215  0.70546368
   0.22241229  0.08357990  0.70546546
   0.11092496  0.16643894  0.20550109
   0.77754225  0.41639200  0.29452927
   0.88907115  0.33356437  0.79451810
   0.11089687  0.66644010  0.20551415
   0.55574780  0.83358263  0.70546593
   0.88907306  0.33356791  0.70546331
   0.22240817  0.08357332  0.79451601
   0.11089712  0.16639953  0.29453529
   0.77756059  0.66649344  0.29456057
   0.88907315  0.58356512  0.79451704
   0.77758168  0.66641828  0.20548581
   0.88907361  0.58356936  0.70546280
   0.77758575  0.91641823  0.29453160
   0.88907374  0.83356675  0.79451727
   0.77758616  0.41644371  0.20553040
   0.44424972  0.91642974  0.20550600
   0.44425604  0.91642745  0.29452876
   0.22241005  0.58357811  0.70546602
   0.22240760  0.58357385  0.79451517
   0.11089489  0.91642563  0.29454928
   0.22240944  0.83357432  0.79451540
   0.11092279  0.91644674  0.20549892
   0.22241438  0.83358200  0.70546544
   0.11092515  0.66646074  0.29457315
   0.77760012  0.91643565  0.20550592
   0.44420532  0.16638479  0.29453522
   0.55574139  0.08357250  0.79451615
   0.44424834  0.16643652  0.20550413
   0.55574717  0.08357999  0.70546549
   0.44426404  0.41644866  0.29455918
   0.55574179  0.33357149  0.79451607
   0.44425747  0.41643234  0.20551298
   0.55574468  0.33357619  0.70546480
   0.22240951  0.33357551  0.70546558
   0.11092899  0.41643966  0.20550093
   0.44425598  0.66642008  0.29454421
   0.55574201  0.58357322  0.79451511
   0.44425538  0.66643220  0.20550332
   0.55574673  0.58357733  0.70546600
   0.22240683  0.33357186  0.79451608
   0.11093115  0.41642173  0.29453653
   0.55574248  0.83357440  0.79451567
   0.88907759  0.83357339  0.70546405
Direct configuration=     8
   0.89905995  0.45072931  0.47101379
   0.73137049  0.37247610  0.46303875
   0.91251106  0.53307519  0.50053192
   0.75304589  0.50569512  0.51089339
   0.64124141  0.40647897  0.48774103
   0.79879938  0.58126404  0.39457743
   0.71417253  0.67049967  0.43981445
   0.65991621  0.57695888  0.41156316
   0.88687923  0.73275272  0.44032758
   0.93890913  0.67761120  0.41233965
   0.79435509  0.55125520  0.45327135
   0.51064436  0.36531453  0.48843251
   0.53501572  0.51276411  0.40446911
   0.96445028  0.80802363  0.45893021
   0.63781755  0.69000405  0.45805926
   0.79794783  0.52124564  0.37233522
   0.68148762  0.30088821  0.44169725
   0.99865786  0.44864028  0.45673769
   0.02423567  0.60460143  0.51273407
   0.72235899  0.55279199  0.53229851
   0.06325979  0.70354317  0.40591004
   0.55596968  0.08383856  0.25003685
   0.55584654  0.33377726  0.25005494
   0.44405776  0.41617729  0.74998131
   0.55599711  0.58384382  0.25004639
   0.44405820  0.66618393  0.74998050
   0.55595192  0.83380255  0.25003910
   0.44406171  0.91618500  0.74998058
   0.88936281  0.33378469  0.25004769
   0.77740268  0.16616955  0.74998148
   0.77740173  0.41616554  0.74998069
   0.88925973  0.58391911  0.25006573
   0.77740558  0.66617109  0.74998111
   0.88930409  0.83379944  0.25003253
   0.77740394  0.91617230  0.74998103
   0.11072233  0.91617549  0.74998131
   0.88929541  0.08383522  0.25003625
   0.22259636  0.83386008  0.25004809
   0.44405894  0.16618097  0.74998077
   0.22258901  0.58380226  0.25004350
   0.11071524  0.41616966  0.74998165
   0.22260472  0.33383101  0.25005217
   0.22258635  0.08382478  0.25003831
   0.11071806  0.16617098  0.74998202
   0.11072093  0.66617417  0.74998070
   0.77755300  0.16636252  0.29454887
   0.88908190  0.08357093  0.79452604
   0.77758859  0.16642779  0.20549057
   0.88908736  0.08357953  0.70545837
   0.22242479  0.08358802  0.70545978
   0.11092360  0.16643761  0.20549422
   0.77752955  0.41637935  0.29454092
   0.88908066  0.33356989  0.79452588
   0.11088328  0.66643570  0.20551286
   0.55575952  0.83359143  0.70545979
   0.88908440  0.33357415  0.70545780
   0.22242112  0.08358042  0.79452453
   0.11088558  0.16638747  0.29454528
   0.77755029  0.66650171  0.29457516
   0.88908299  0.58357055  0.79452453
   0.77757506  0.66641207  0.20547982
   0.88908522  0.58357601  0.70545722
   0.77757946  0.91640929  0.29454157
   0.88908375  0.83357255  0.79452496
   0.77757890  0.41644312  0.20553045
   0.44424008  0.91642123  0.20549957
   0.44425544  0.91642405  0.29453966
   0.22242211  0.58358573  0.70546019
   0.22241999  0.58358090  0.79452346
   0.11088284  0.91641919  0.29456099
   0.22242187  0.83358150  0.79452369
   0.11091743  0.91643890  0.20549235
   0.22242707  0.83359064  0.70545983
   0.11092148  0.66646068  0.29458891
   0.77759167  0.91642475  0.20549798
   0.44418549  0.16636491  0.29454682
   0.55575234  0.08358016  0.79452435
   0.44423645  0.16643004  0.20549694
   0.55575917  0.08358875  0.70545935
   0.44425869  0.41644499  0.29457415
   0.55575300  0.33357866  0.79452413
   0.44425412  0.41642866  0.20550893
   0.55575598  0.33358393  0.70545844
   0.22242135  0.33358306  0.70545996
   0.11092911  0.41643679  0.20549593
   0.44424945  0.66641261  0.29455694
   0.55575275  0.58358051  0.79452297
   0.44424468  0.66642114  0.20549849
   0.55575780  0.58358528  0.70545976
   0.22241928  0.33357900  0.79452441
   0.11092593  0.41641251  0.29454850
   0.55575346  0.83358174  0.79452376
   0.88908972  0.83358098  0.70545862
Direct configuration=     9
   0.89900561  0.45120020  0.47090538
   0.73133753  0.37275965  0.46287331
   0.91254608  0.53340174  0.50040630
   0.75298945  0.50601817  0.51077599
   0.64140105  0.40686357  0.48762800
   0.79876876  0.58082749  0.39463350
   0.71408077  0.67000326  0.43987968
   0.65989139  0.57664599  0.41164926
   0.88708945  0.73242153  0.44040921
   0.93878207  0.67722678  0.41243626
   0.79433428  0.55124998  0.45324469
   0.51044365  0.36530151  0.48836532
   0.53496615  0.51256759  0.40443076
   0.96443808  0.80774671  0.45899448
   0.63785236  0.68989393  0.45812587
   0.79786033  0.52109470  0.37232696
   0.68156778  0.30120171  0.44160679
   0.99877793  0.44891541  0.45662882
   0.02425548  0.60486178  0.51270492
   0.72247499  0.55299164  0.53228150
   0.06332942  0.70339203  0.40588293
   0.55599056  0.08386893  0.25006610
   0.55584775  0.33379546  0.25009372
   0.44401045  0.41614868  0.74996890
   0.55602149  0.58387423  0.25007746
   0.44401235  0.66615866  0.74996769
   0.55598797  0.83382897  0.25006421
   0.44401653  0.91616084  0.74996746
   0.88941955  0.33380639  0.25008469
   0.77735867  0.16612828  0.74996990
   0.77735610  0.41612266  0.74996905
   0.88928372  0.58398364  0.25010939
   0.77736320  0.66613078  0.74996970