  93  93   0   0
  0.3967126E+02  0.9570947E-09  0.1276126E-08  0.3488026E-08  0.5000000E-15
  1.000000000000000E-004
  CAR 
 basalPlane                              
      2.55210269    -20.67547996  301      0.28367287      1.00000000
    -20.675  0.0000E+00  0.0000E+00
    -20.598  0.0000E+00  0.0000E+00
    -20.521  0.0000E+00  0.0000E+00
    -20.443  0.0000E+00  0.0000E+00
    -20.366  0.0000E+00  0.0000E+00
    -20.288  0.0000E+00  0.0000E+00
    -20.211  0.1434E-18  0.1110E-19
    -20.134  0.4762E-15  0.3688E-16
    -20.056  0.8727E-12  0.6761E-13
    -19.979  0.4953E-09  0.3842E-10
    -19.901  0.8789E-07  0.6843E-08
    -19.824  0.4940E-05  0.3893E-06
    -19.746  0.8948E-04  0.7317E-05
    -19.669  0.5331E-03  0.4859E-04
    -19.592  0.1064E-02  0.1309E-03
    -19.514  0.7170E-03  0.1865E-03
    -19.437  0.1632E-03  0.1991E-03
    -19.359  0.3613E-04  0.2019E-03
    -19.282  0.2495E-03  0.2212E-03
    -19.204  0.8607E-03  0.2879E-03
    -19.127  0.1001E-02  0.3654E-03
    -19.050  0.3933E-03  0.3958E-03
    -18.972  0.5154E-04  0.3998E-03
    -18.895  0.2212E-05  0.4000E-03
    -18.817  0.3046E-07  0.4000E-03
    -18.740  0.1324E-09  0.4000E-03
    -18.662  0.1795E-12  0.4000E-03
    -18.585  0.7514E-16  0.4000E-03
    -18.508  0.0000E+00  0.4000E-03
    -18.430  0.0000E+00  0.4000E-03
    -18.353  0.0000E+00  0.4000E-03
    -18.275  0.0000E+00  0.4000E-03
    -18.198  0.0000E+00  0.4000E-03
    -18.120  0.0000E+00  0.4000E-03
    -18.043  0.0000E+00  0.4000E-03
    -17.966  0.0000E+00  0.4000E-03
    -17.888  0.0000E+00  0.4000E-03
    -17.811  0.0000E+00  0.4000E-03
    -17.733  0.0000E+00  0.4000E-03
    -17.656  0.0000E+00  0.4000E-03
    -17.578  0.0000E+00  0.4000E-03
    -17.501  0.0000E+00  0.4000E-03
    -17.424  0.0000E+00  0.4000E-03
    -17.346  0.0000E+00  0.4000E-03
    -17.269  0.0000E+00  0.4000E-03
    -17.191  0.0000E+00  0.4000E-03
    -17.114  0.0000E+00  0.4000E-03
    -17.036  0.0000E+00  0.4000E-03
    -16.959  0.0000E+00  0.4000E-03
    -16.882  0.0000E+00  0.4000E-03
    -16.804  0.0000E+00  0.4000E-03
    -16.727  0.0000E+00  0.4000E-03
    -16.649  0.0000E+00  0.4000E-03
    -16.572  0.0000E+00  0.4000E-03
    -16.495  0.0000E+00  0.4000E-03
    -16.417  0.0000E+00  0.4000E-03
    -16.340  0.0000E+00  0.4000E-03
    -16.262  0.0000E+00  0.4000E-03
    -16.185  0.1434E-18  0.4000E-03
    -16.107  0.5158E-15  0.4000E-03
    -16.030  0.9464E-12  0.4000E-03
    -15.953  0.5425E-09  0.4000E-03
    -15.875  0.9868E-07  0.4000E-03
    -15.798  0.5825E-05  0.4005E-03
    -15.720  0.1150E-03  0.4094E-03
    -15.643  0.7867E-03  0.4703E-03
    -15.565  0.1924E-02  0.6193E-03
    -15.488  0.1714E-02  0.7519E-03
    -15.411  0.5544E-03  0.7949E-03
    -15.333  0.6371E-04  0.7998E-03
    -15.256  0.2548E-05  0.8000E-03
    -15.178  0.2652E-05  0.8002E-03
    -15.101  0.7117E-04  0.8057E-03
    -15.023  0.6860E-03  0.8588E-03
    -14.946  0.2633E-02  0.1063E-02
    -14.869  0.5025E-02  0.1452E-02
    -14.791  0.6118E-02  0.1925E-02
    -14.714  0.4484E-02  0.2273E-02
    -14.636  0.1822E-02  0.2414E-02
    -14.559  0.2186E-02  0.2583E-02
    -14.481  0.4369E-02  0.2921E-02
    -14.404  0.5124E-02  0.3318E-02
    -14.327  0.6384E-02  0.3812E-02
    -14.249  0.5462E-02  0.4235E-02
    -14.172  0.1916E-02  0.4383E-02
    -14.094  0.6632E-03  0.4435E-02
    -14.017  0.2348E-02  0.4617E-02
    -13.939  0.5601E-02  0.5050E-02
    -13.862  0.9673E-02  0.5799E-02
    -13.785  0.1394E-01  0.6878E-02
    -13.707  0.1159E-01  0.7775E-02
    -13.630  0.7543E-02  0.8360E-02
    -13.552  0.8513E-02  0.9019E-02
    -13.475  0.9626E-02  0.9764E-02
    -13.398  0.7816E-02  0.1037E-01
    -13.320  0.4259E-02  0.1070E-01
    -13.243  0.1174E-02  0.1079E-01
    -13.165  0.1271E-03  0.1080E-01
    -13.088  0.4822E-05  0.1080E-01
    -13.010  0.6093E-07  0.1080E-01
    -12.933  0.2487E-09  0.1080E-01
    -12.856  0.3212E-12  0.1080E-01
    -12.778  0.1293E-15  0.1080E-01
    -12.701  0.0000E+00  0.1080E-01
    -12.623  0.0000E+00  0.1080E-01
    -12.546  0.0000E+00  0.1080E-01
    -12.468  0.0000E+00  0.1080E-01
    -12.391  0.0000E+00  0.1080E-01
    -12.314  0.0000E+00  0.1080E-01
    -12.236  0.0000E+00  0.1080E-01
    -12.159  0.0000E+00  0.1080E-01
    -12.081  0.0000E+00  0.1080E-01
    -12.004  0.0000E+00  0.1080E-01
    -11.926  0.0000E+00  0.1080E-01
    -11.849  0.0000E+00  0.1080E-01
    -11.772  0.0000E+00  0.1080E-01
    -11.694  0.0000E+00  0.1080E-01
    -11.617  0.0000E+00  0.1080E-01
    -11.539  0.0000E+00  0.1080E-01
    -11.462  0.0000E+00  0.1080E-01
    -11.384  0.0000E+00  0.1080E-01
    -11.307  0.0000E+00  0.1080E-01
    -11.230  0.1404E-15  0.1080E-01
    -11.152  0.3220E-12  0.1080E-01
    -11.075  0.2308E-09  0.1080E-01
    -10.997  0.5231E-07  0.1080E-01
    -10.920  0.3801E-05  0.1080E-01
    -10.842  0.9026E-04  0.1081E-01
    -10.765  0.7152E-03  0.1086E-01
    -10.688  0.1933E-02  0.1101E-01
    -10.610  0.1897E-02  0.1116E-01
    -10.533  0.1439E-02  0.1127E-01
    -10.455  0.2642E-02  0.1148E-01
    -10.378  0.2851E-02  0.1170E-01
    -10.300  0.1170E-02  0.1179E-01
    -10.223  0.2746E-03  0.1181E-01
    -10.146  0.5804E-03  0.1185E-01
    -10.068  0.1071E-02  0.1194E-01
     -9.991  0.6780E-03  0.1199E-01
     -9.913  0.1442E-03  0.1200E-01
     -9.836  0.1013E-04  0.1200E-01
     -9.759  0.2302E-06  0.1200E-01
     -9.681  0.1663E-08  0.1200E-01
     -9.604  0.3766E-11  0.1200E-01
     -9.526  0.2646E-14  0.1200E-01
     -9.449  0.5736E-18  0.1200E-01
     -9.371  0.0000E+00  0.1200E-01
     -9.294  0.0000E+00  0.1200E-01
     -9.217  0.0000E+00  0.1200E-01
     -9.139  0.0000E+00  0.1200E-01
     -9.062  0.0000E+00  0.1200E-01
     -8.984  0.0000E+00  0.1200E-01
     -8.907  0.0000E+00  0.1200E-01
     -8.829  0.0000E+00  0.1200E-01
     -8.752  0.0000E+00  0.1200E-01
     -8.675  0.0000E+00  0.1200E-01
     -8.597  0.0000E+00  0.1200E-01
     -8.520  0.0000E+00  0.1200E-01
     -8.442  0.0000E+00  0.1200E-01
     -8.365  0.0000E+00  0.1200E-01
     -8.287  0.8604E-18  0.1200E-01
     -8.210  0.3723E-14  0.1200E-01
     -8.133  0.5034E-11  0.1200E-01
     -8.055  0.2113E-08  0.1200E-01
     -7.978  0.2781E-06  0.1200E-01
     -7.900  0.1164E-04  0.1200E-01
     -7.823  0.1578E-03  0.1201E-01
     -7.745  0.7075E-03  0.1207E-01
     -7.668  0.1066E-02  0.1215E-01
     -7.591  0.5425E-03  0.1219E-01
     -7.513  0.9874E-04  0.1220E-01
     -7.436  0.1406E-03  0.1221E-01
     -7.358  0.1031E-02  0.1229E-01
     -7.281  0.3027E-02  0.1253E-01
     -7.203  0.3967E-02  0.1283E-01
     -7.126  0.3254E-02  0.1308E-01
     -7.049  0.2891E-02  0.1331E-01
     -6.971  0.2917E-02  0.1353E-01
     -6.894  0.3251E-02  0.1379E-01
     -6.816  0.5808E-02  0.1424E-01
     -6.739  0.1091E-01  0.1508E-01
     -6.662  0.1063E-01  0.1590E-01
     -6.584  0.7697E-02  0.1650E-01
     -6.507  0.1195E-01  0.1742E-01
     -6.429  0.1570E-01  0.1864E-01
     -6.352  0.1298E-01  0.1964E-01
     -6.274  0.8809E-02  0.2033E-01
     -6.197  0.4594E-02  0.2068E-01
     -6.120  0.1352E-02  0.2079E-01
     -6.042  0.1697E-03  0.2080E-01
     -5.965  0.7796E-05  0.2080E-01
     -5.887  0.6481E-05  0.2080E-01
     -5.810  0.1550E-03  0.2081E-01
     -5.732  0.1318E-02  0.2091E-01
     -5.655  0.4173E-02  0.2124E-01
     -5.578  0.5548E-02  0.2167E-01
     -5.500  0.4812E-02  0.2204E-01
     -5.423  0.9454E-02  0.2277E-01
     -5.345  0.2056E-01  0.2436E-01
     -5.268  0.2104E-01  0.2599E-01
     -5.190  0.9022E-02  0.2669E-01
     -5.113  0.2629E-02  0.2689E-01
     -5.036  0.3628E-02  0.2718E-01
     -4.958  0.3824E-02  0.2747E-01
     -4.881  0.1670E-02  0.2760E-01
     -4.803  0.2193E-02  0.2777E-01
     -4.726  0.7268E-02  0.2833E-01
     -4.648  0.1052E-01  0.2915E-01
     -4.571  0.8036E-02  0.2977E-01
     -4.494  0.7563E-02  0.3036E-01
     -4.416  0.9033E-02  0.3105E-01
     -4.339  0.9200E-02  0.3177E-01
     -4.261  0.6334E-02  0.3226E-01
     -4.184  0.3621E-02  0.3254E-01
     -4.106  0.4959E-02  0.3292E-01
     -4.029  0.6434E-02  0.3342E-01
     -3.952  0.6223E-02  0.3390E-01
     -3.874  0.5597E-02  0.3434E-01
     -3.797  0.4482E-02  0.3468E-01
     -3.719  0.2847E-02  0.3490E-01
     -3.642  0.2349E-02  0.3508E-01
     -3.564  0.1800E-02  0.3522E-01
     -3.487  0.2914E-02  0.3545E-01
     -3.410  0.5666E-02  0.3589E-01
     -3.332  0.8996E-02  0.3658E-01
     -3.255  0.1374E-01  0.3765E-01
     -3.177  0.1436E-01  0.3876E-01
     -3.100  0.1087E-01  0.3960E-01
     -3.023  0.8480E-02  0.4026E-01
     -2.945  0.7230E-02  0.4082E-01
     -2.868  0.8680E-02  0.4149E-01
     -2.790  0.1107E-01  0.4235E-01
     -2.713  0.8722E-02  0.4302E-01
     -2.635  0.3966E-02  0.4333E-01
     -2.558  0.2905E-02  0.4356E-01
     -2.481  0.6595E-02  0.4407E-01
     -2.403  0.9522E-02  0.4480E-01
     -2.326  0.7878E-02  0.4541E-01
     -2.248  0.5172E-02  0.4581E-01
     -2.171  0.5154E-02  0.4621E-01
     -2.093  0.6211E-02  0.4669E-01
     -2.016  0.5556E-02  0.4712E-01
     -1.939  0.5065E-02  0.4752E-01
     -1.861  0.2983E-02  0.4775E-01
     -1.784  0.1258E-02  0.4784E-01
     -1.706  0.2703E-02  0.4805E-01
     -1.629  0.4273E-02  0.4838E-01
     -1.551  0.2881E-02  0.4861E-01
     -1.474  0.2176E-02  0.4878E-01
     -1.397  0.1996E-02  0.4893E-01
     -1.319  0.7885E-03  0.4899E-01
     -1.242  0.1092E-03  0.4900E-01
     -1.164  0.5120E-05  0.4900E-01
     -1.087  0.7929E-07  0.4900E-01
     -1.009  0.3967E-09  0.4900E-01
     -0.932  0.6299E-12  0.4900E-01
     -0.855  0.3135E-15  0.4900E-01
     -0.777  0.0000E+00  0.4900E-01
     -0.700  0.0000E+00  0.4900E-01
     -0.622  0.0000E+00  0.4900E-01
     -0.545  0.0000E+00  0.4900E-01
     -0.467  0.0000E+00  0.4900E-01
     -0.390  0.0000E+00  0.4900E-01
     -0.313  0.0000E+00  0.4900E-01
     -0.235  0.2868E-18  0.4900E-01
     -0.158  0.1458E-14  0.4900E-01
     -0.080  0.2405E-11  0.4900E-01
     -0.003  0.1264E-08  0.4900E-01
      0.074  0.2172E-06  0.4900E-01
      0.152  0.1261E-04  0.4900E-01
      0.229  0.2577E-03  0.4902E-01
      0.307  0.1922E-02  0.4917E-01
      0.384  0.5372E-02  0.4959E-01
      0.462  0.5999E-02  0.5005E-01
      0.539  0.4690E-02  0.5041E-01
      0.616  0.7328E-02  0.5098E-01
      0.694  0.1348E-01  0.5202E-01
      0.771  0.1672E-01  0.5332E-01
      0.849  0.1426E-01  0.5442E-01
      0.926  0.1268E-01  0.5540E-01
      1.004  0.7769E-02  0.5601E-01
      1.081  0.2466E-02  0.5620E-01
      1.158  0.2226E-02  0.5637E-01
      1.236  0.6806E-02  0.5690E-01
      1.313  0.1116E-01  0.5776E-01
      1.391  0.1138E-01  0.5864E-01
      1.468  0.9484E-02  0.5938E-01
      1.546  0.5913E-02  0.5983E-01
      1.623  0.1896E-02  0.5998E-01
      1.700  0.2425E-03  0.6000E-01
      1.778  0.1104E-04  0.6000E-01
      1.855  0.1694E-06  0.6000E-01
      1.933  0.8483E-09  0.6000E-01
      2.010  0.1357E-11  0.6000E-01
      2.088  0.6843E-15  0.6000E-01
      2.165  0.0000E+00  0.6000E-01
      2.242  0.0000E+00  0.6000E-01
      2.320  0.0000E+00  0.6000E-01
      2.397  0.0000E+00  0.6000E-01
      2.475  0.0000E+00  0.6000E-01
      2.552  0.0000E+00  0.6000E-01
