 running on   36 total cores
 distrk:  each k-point on   36 cores,    1 groups
 distr:  one band on    3 cores,   12 groups
 using from now: INCAR     
 vasp.5.4.1 05Feb16 (build Apr 21 2017 13:36:42) gamma-only                     
  
 POSCAR found :  5 types and      93 ions
 scaLAPACK will be used
 LDA part: xc-table for Pade appr. of Perdew
 POSCAR found :  5 types and      93 ions
 POSCAR, INCAR and KPOINTS ok, starting setup
 FFT: planning ...
 WAVECAR not read
 entering main loop
       N       E                     dE             d eps       ncg     rms          rms(c)
DAV:   1     0.439120275101E+04    0.43912E+04   -0.18170E+05   600   0.112E+03
DAV:   2    -0.526766971285E+01   -0.43965E+04   -0.42326E+04   948   0.267E+02
DAV:   3    -0.677132103574E+03   -0.67186E+03   -0.66390E+03   732   0.115E+02
DAV:   4    -0.709519773829E+03   -0.32388E+02   -0.32195E+02   804   0.273E+01
DAV:   5    -0.710807652253E+03   -0.12879E+01   -0.12815E+01   912   0.561E+00    0.123E+02
DAV:   6    -0.691221604289E+03    0.19586E+02   -0.57151E+02   780   0.352E+01    0.780E+01
DAV:   7    -0.712306087469E+03   -0.21084E+02   -0.33381E+02   816   0.484E+01    0.635E+01
DAV:   8    -0.732242648955E+03   -0.19937E+02   -0.26829E+02   828   0.189E+01    0.680E+01
DAV:   9    -0.784923490744E+03   -0.52681E+02   -0.93299E+02   792   0.149E+01    0.845E+01
DAV:  10    -0.686641459952E+03    0.98282E+02   -0.31115E+02   852   0.158E+01    0.342E+01
DAV:  11    -0.663737714123E+03    0.22904E+02   -0.83982E+01   840   0.176E+01    0.249E+01
DAV:  12    -0.659088940665E+03    0.46488E+01   -0.47327E+01   852   0.889E+00    0.262E+01
DAV:  13    -0.659346504577E+03   -0.25756E+00   -0.27025E+00   840   0.186E+00    0.255E+01
DAV:  14    -0.659580877121E+03   -0.23437E+00   -0.17101E-01   864   0.830E-01    0.241E+01
DAV:  15    -0.659577692421E+03    0.31847E-02   -0.29429E-02   816   0.262E-01    0.237E+01
DAV:  16    -0.659700913278E+03   -0.12322E+00   -0.25280E-01   792   0.987E-01    0.180E+01
DAV:  17    -0.659969453681E+03   -0.26854E+00   -0.11729E+01   792   0.333E+00    0.211E+01
DAV:  18    -0.659147563631E+03    0.82189E+00   -0.35107E+00   864   0.372E+00    0.242E+01
DAV:  19    -0.658302480847E+03    0.84508E+00   -0.14846E+01   864   0.275E+00    0.186E+01
DAV:  20    -0.659056474418E+03   -0.75399E+00   -0.95793E+00   876   0.180E+00    0.315E+01
DAV:  21    -0.657595006877E+03    0.14615E+01   -0.40195E+01   828   0.232E+00    0.145E+01
DAV:  22    -0.657189637401E+03    0.40537E+00   -0.24117E-01   828   0.725E-01    0.122E+01
DAV:  23    -0.657132138727E+03    0.57499E-01   -0.31182E-02   900   0.254E-01    0.117E+01
DAV:  24    -0.656961192035E+03    0.17095E+00   -0.98908E-02   876   0.559E-01    0.969E+00
DAV:  25    -0.656972792755E+03   -0.11601E-01   -0.20002E+00   828   0.834E-01    0.684E+00
DAV:  26    -0.656974990178E+03   -0.21974E-02   -0.46836E-02   708   0.304E-01    0.670E+00
DAV:  27    -0.656911606949E+03    0.63383E-01   -0.79134E-03   840   0.200E-01    0.697E+00
DAV:  28    -0.656948920158E+03   -0.37313E-01   -0.78740E-03   768   0.139E-01    0.679E+00
DAV:  29    -0.656946082723E+03    0.28374E-02   -0.22032E-03   804   0.725E-02    0.660E+00
DAV:  30    -0.656986455207E+03   -0.40372E-01   -0.24315E-02   792   0.257E-01    0.623E+00
DAV:  31    -0.657054709702E+03   -0.68254E-01   -0.36126E-02   744   0.267E-01    0.649E+00
DAV:  32    -0.657138285429E+03   -0.83576E-01   -0.15263E-02   900   0.218E-01    0.696E+00
DAV:  33    -0.657082806772E+03    0.55479E-01   -0.59351E-02   792   0.444E-01    0.603E+00
DAV:  34    -0.656959576605E+03    0.12323E+00   -0.11954E-01   852   0.496E-01    0.557E+00
DAV:  35    -0.656873739894E+03    0.85837E-01   -0.11946E-02   768   0.202E-01    0.523E+00
DAV:  36    -0.656768117509E+03    0.10562E+00   -0.81614E-03   828   0.203E-01    0.479E+00
DAV:  37    -0.656648249740E+03    0.11987E+00   -0.12254E-02   816   0.194E-01    0.452E+00
DAV:  38    -0.656573912740E+03    0.74337E-01   -0.73181E-03   864   0.162E-01    0.442E+00
DAV:  39    -0.656497784974E+03    0.76128E-01   -0.86843E-03   816   0.188E-01    0.432E+00
DAV:  40    -0.656393521107E+03    0.10426E+00   -0.10435E-01   828   0.269E-01    0.159E+00
DAV:  41    -0.656390243330E+03    0.32778E-02   -0.76994E-03   756   0.122E-01    0.138E+00
DAV:  42    -0.656389287318E+03    0.95601E-03   -0.84788E-04   672   0.418E-02    0.136E+00
DAV:  43    -0.656388864474E+03    0.42284E-03   -0.11028E-03   720   0.474E-02    0.134E+00
DAV:  44    -0.656385841757E+03    0.30227E-02   -0.36570E-03   792   0.812E-02    0.110E+00
DAV:  45    -0.656389311697E+03   -0.34699E-02   -0.46769E-03   840   0.108E-01    0.124E+00
DAV:  46    -0.656386424672E+03    0.28870E-02   -0.57622E-03   840   0.938E-02    0.996E-01
DAV:  47    -0.656395736295E+03   -0.93116E-02   -0.65403E-03   816   0.119E-01    0.161E+00
DAV:  48    -0.656387291431E+03    0.84449E-02   -0.19253E-03   768   0.764E-02    0.595E-01
DAV:  49    -0.656391563311E+03   -0.42719E-02   -0.76473E-04   660   0.454E-02    0.125E+00
DAV:  50    -0.656387948718E+03    0.36146E-02   -0.64581E-04   612   0.388E-02    0.542E-01
DAV:  51    -0.656392436139E+03   -0.44874E-02   -0.16755E-03   852   0.650E-02    0.133E+00
DAV:  52    -0.656388128436E+03    0.43077E-02   -0.24249E-03   732   0.602E-02    0.367E-01
DAV:  53    -0.656388096592E+03    0.31845E-04   -0.42185E-04   612   0.418E-02
   1 F= -.67138432E+03 E0= -.67132163E+03  d E =-.671384E+03
 curvature:   0.00 expect dE= 0.000E+00 dE for cont linesearch  0.000E+00
 trial: gam= 0.00000 g(F)=  0.166E+00 g(S)=  0.000E+00 ort = 0.000E+00 (trialstep = 0.100E+01)
 search vector abs. value=  0.166E+00
 bond charge predicted
       N       E                     dE             d eps       ncg     rms          rms(c)
DAV:   1    -0.656408216429E+03   -0.20088E-01   -0.12512E+01   600   0.534E+00    0.310E+00
DAV:   2    -0.656928676483E+03   -0.52046E+00   -0.23069E+00   768   0.260E+00    0.636E+00
DAV:   3    -0.656473870698E+03    0.45481E+00   -0.15082E+00   816   0.287E+00    0.299E+00
DAV:   4    -0.656530871496E+03   -0.57001E-01   -0.51674E-01   828   0.868E-01    0.311E+00
DAV:   5    -0.656449449898E+03    0.81422E-01   -0.15244E-01   900   0.518E-01    0.136E+00
DAV:   6    -0.656494210618E+03   -0.44761E-01   -0.39984E-01   804   0.351E-01    0.347E+00
DAV:   7    -0.656464495338E+03    0.29715E-01   -0.56218E-01   720   0.249E-01    0.275E+00
DAV:   8    -0.656446469032E+03    0.18026E-01   -0.14266E-02   852   0.148E-01    0.138E+00
DAV:   9    -0.656441565375E+03    0.49037E-02   -0.26042E-02   804   0.116E-01    0.398E-01
DAV:  10    -0.656441590243E+03   -0.24868E-04   -0.13483E-03   672   0.513E-02    0.336E-01
DAV:  11    -0.656441513317E+03    0.76926E-04   -0.77145E-04   540   0.390E-02
   2 F= -.67146013E+03 E0= -.67140001E+03  d E =-.758159E-01
 trial-energy change:   -0.075816  1 .order   -0.074558   -0.165623    0.016507
 step:   0.9127(harm=  0.9094)  dis= 0.00975  next Energy=  -671.460852 (dE=-0.765E-01)
 bond charge predicted
       N       E                     dE             d eps       ncg     rms          rms(c)
DAV:   1    -0.656443549348E+03   -0.19591E-02   -0.94456E-02   624   0.466E-01    0.240E-01
DAV:   2    -0.656454692571E+03   -0.11143E-01   -0.76729E-02   780   0.196E-01    0.216E+00
DAV:   3    -0.656445656130E+03    0.90364E-02   -0.88462E-02   744   0.189E-01    0.634E-01
DAV:   4    -0.656444314482E+03    0.13416E-02   -0.17911E-03   588   0.661E-02    0.357E-01
DAV:   5    -0.656444086989E+03    0.22749E-03   -0.89433E-04   600   0.457E-02    0.171E-01
DAV:   6    -0.656443811268E+03    0.27572E-03   -0.34782E-04   612   0.328E-02    0.999E-02
DAV:   7    -0.656443852521E+03   -0.41254E-04   -0.18294E-04   420   0.253E-02
   3 F= -.67146046E+03 E0= -.67139952E+03  d E =-.761390E-01
 curvature:  -0.45 expect dE=-0.741E-02 dE for cont linesearch -0.115E-06
 trial: gam= 0.09730 g(F)=  0.163E-01 g(S)=  0.000E+00 ort = 0.205E-03 (trialstep = 0.983E+00)
 search vector abs. value=  0.179E-01
 bond charge predicted
       N       E                     dE             d eps       ncg     rms          rms(c)
DAV:   1    -0.656435523096E+03    0.82882E-02   -0.15776E+00   600   0.178E+00    0.735E-01
DAV:   2    -0.656490585701E+03   -0.55063E-01   -0.98889E-02   816   0.544E-01    0.302E+00
DAV:   3    -0.656447860476E+03    0.42725E-01   -0.15275E-01   828   0.588E-01    0.173E+00
DAV:   4    -0.656445941932E+03    0.19185E-02   -0.78841E-02   756   0.184E-01    0.147E+00
DAV:   5    -0.656440162726E+03    0.57792E-02   -0.56576E-03   804   0.104E-01    0.382E-01
DAV:   6    -0.656442611706E+03   -0.24490E-02   -0.85765E-03   708   0.101E-01    0.127E+00
DAV:   7    -0.656441831110E+03    0.78060E-03   -0.12832E-03   564   0.373E-02    0.109E+00
DAV:   8    -0.656440044637E+03    0.17865E-02   -0.63830E-04   468   0.270E-02    0.670E-01
DAV:   9    -0.656439417627E+03    0.62701E-03   -0.50748E-04   456   0.270E-02    0.450E-01
DAV:  10    -0.656438952975E+03    0.46465E-03   -0.33621E-04   528   0.271E-02    0.385E-02
DAV:  11    -0.656439011991E+03   -0.59015E-04   -0.51599E-05   396   0.150E-02
   4 F= -.67146243E+03 E0= -.67140037E+03  d E =-.197178E-02
 trial-energy change:   -0.001972  1 .order   -0.001682   -0.016055    0.012690
 step:   0.5488(harm=  0.5488)  dis= 0.00384  next Energy=  -671.464939 (dE=-0.448E-02)
 bond charge predicted
       N       E                     dE             d eps       ncg     rms          rms(c)
DAV:   1    -0.656444169025E+03   -0.52160E-02   -0.30719E-01   600   0.786E-01    0.306E-01
DAV:   2    -0.656455890600E+03   -0.11722E-01   -0.93331E-02   804   0.226E-01    0.216E+00
DAV:   3    -0.656447756054E+03    0.81345E-02   -0.11696E-01   780   0.205E-01    0.898E-01
DAV:   4    -0.656445390165E+03    0.23659E-02   -0.22622E-03   588   0.773E-02    0.361E-01
DAV:   5    -0.656445574679E+03   -0.18451E-03   -0.49193E-03   744   0.528E-02    0.270E-01
DAV:   6    -0.656445102471E+03    0.47221E-03   -0.43207E-03   672   0.472E-02    0.345E-01
DAV:   7    -0.656445048831E+03    0.53641E-04   -0.12953E-04   396   0.236E-02
   5 F= -.67146544E+03 E0= -.67140507E+03  d E =-.498673E-02
 curvature:  -0.30 expect dE=-0.465E-02 dE for cont linesearch -0.855E-05
 trial: gam= 0.99200 g(F)=  0.154E-01 g(S)=  0.000E+00 ort =-0.714E-03 (trialstep = 0.507E+00)
 search vector abs. value=  0.317E-01
 bond charge predicted
       N       E                     dE             d eps       ncg     rms          rms(c)
DAV:   1    -0.656442421130E+03    0.26813E-02   -0.81813E-01   600   0.127E+00    0.404E-01
DAV:   2    -0.656444780764E+03   -0.23596E-02   -0.25357E-02   744   0.273E-01    0.453E-01
DAV:   3    -0.656459789482E+03   -0.15009E-01   -0.19756E-02   804   0.200E-01    0.225E+00
DAV:   4    -0.656445533914E+03    0.14256E-01   -0.63868E-03   660   0.146E-01    0.455E-01
DAV:   5    -0.656446552263E+03   -0.10183E-02   -0.18419E-03   720   0.797E-02    0.761E-01
DAV:   6    -0.656444711307E+03    0.18410E-02   -0.13065E-03   720   0.657E-02    0.491E-01
DAV:   7    -0.656444256070E+03    0.45524E-03   -0.22770E-04   468   0.262E-02    0.292E-01
DAV:   8    -0.656444134584E+03    0.12149E-03   -0.79864E-05   384   0.160E-02    0.147E-01
DAV:   9    -0.656444097293E+03    0.37291E-04   -0.54406E-05   384   0.111E-02
   6 F= -.67146858E+03 E0= -.67140686E+03  d E =-.313515E-02
 trial-energy change:   -0.003135  1 .order   -0.003162   -0.007470    0.001147
 step:   0.4397(harm=  0.4397)  dis= 0.00338  next Energy=  -671.468680 (dE=-0.324E-02)
 bond charge predicted
       N       E                     dE             d eps       ncg     rms          rms(c)
DAV:   1    -0.656444697025E+03   -0.56244E-03   -0.14431E-02   600   0.169E-01    0.576E-02
DAV:   2    -0.656445107220E+03   -0.41020E-03   -0.79430E-04   492   0.418E-02    0.427E-01
DAV:   3    -0.656444751881E+03    0.35534E-03   -0.47718E-04   456   0.348E-02    0.656E-02
DAV:   4    -0.656444822482E+03   -0.70601E-04   -0.12352E-04   420   0.175E-02
   7 F= -.67146875E+03 E0= -.67140637E+03  d E =-.331254E-02
 curvature:  -0.47 expect dE=-0.167E-02 dE for cont linesearch -0.238E-05
 trial: gam= 0.22581 g(F)=  0.354E-02 g(S)=  0.000E+00 ort = 0.399E-03 (trialstep = 0.494E+00)
 search vector abs. value=  0.534E-02
 bond charge predicted
       N       E                     dE             d eps       ncg     rms          rms(c)
DAV:   1    -0.656444963497E+03   -0.21162E-03   -0.13697E-01   600   0.351E-01    0.245E-01
DAV:   2    -0.656469344464E+03   -0.24381E-01   -0.25647E-02   816   0.219E-01    0.254E+00
DAV:   3    -0.656447135761E+03    0.22209E-01   -0.26223E-02   768   0.254E-01    0.502E-01
DAV:   4    -0.656445461481E+03    0.16743E-02   -0.32129E-03   720   0.727E-02    0.355E-01
DAV:   5    -0.656445119500E+03    0.34198E-03   -0.35184E-04   492   0.287E-02    0.241E-01
DAV:   6    -0.656445084307E+03    0.35193E-04   -0.82728E-05   396   0.132E-02
   8 F= -.67147012E+03 E0= -.67140897E+03  d E =-.136065E-02
 trial-energy change:   -0.001361  1 .order   -0.001400   -0.001793   -0.001006
 step:   1.1256(harm=  1.1256)  dis= 0.00502  next Energy=  -671.470798 (dE=-0.204E-02)
 bond charge predicted
       N       E                     dE             d eps       ncg     rms          rms(c)
DAV:   1    -0.656444198851E+03    0.92065E-03   -0.22204E-01   600   0.445E-01    0.175E-01
DAV:   2    -0.656453479127E+03   -0.92803E-02   -0.11212E-02   792   0.128E-01    0.183E+00
DAV:   3    -0.656445174513E+03    0.83046E-02   -0.89349E-03   708   0.153E-01    0.295E-01
DAV:   4    -0.656445440833E+03   -0.26632E-03   -0.15521E-03   504   0.586E-02    0.678E-01
DAV:   5    -0.656444479124E+03    0.96171E-03   -0.75574E-04   564   0.408E-02    0.616E-02
DAV:   6    -0.656444516485E+03   -0.37361E-04   -0.38788E-04   564   0.309E-02
   9 F= -.67147096E+03 E0= -.67140862E+03  d E =-.220739E-02
 curvature:  -0.83 expect dE=-0.679E-02 dE for cont linesearch -0.474E-04
 trial: gam= 2.12703 g(F)=  0.821E-02 g(S)=  0.000E+00 ort = 0.553E-03 (trialstep = 0.954E-01)
 search vector abs. value=  0.347E-01
 bond charge predicted
       N       E                     dE             d eps       ncg     rms          rms(c)
DAV:   1    -0.656444769570E+03   -0.29045E-03   -0.30649E-02   576   0.176E-01    0.101E-01
DAV:   2    -0.656449943501E+03   -0.51739E-02   -0.52776E-03   780   0.948E-02    0.142E+00
DAV:   3    -0.656445212529E+03    0.47310E-02   -0.42481E-03   564   0.106E-01    0.165E-01
DAV:   4    -0.656444990442E+03    0.22209E-03   -0.38750E-04   432   0.377E-02    0.285E-01
DAV:   5    -0.656444900629E+03    0.89812E-04   -0.97534E-05   348   0.187E-02
  10 F= -.67147175E+03 E0= -.67141063E+03  d E =-.786029E-03
 ZBRENT: can't locate minimum, use default step
 trial-energy change:   -0.000786  1 .order   -0.000808   -0.000895   -0.000722
 step:   0.3814(harm=  0.4950)  dis= 0.00365  next Energy=  -671.473284 (dE=-0.232E-02)
 bond charge predicted
       N       E                     dE             d eps       ncg     rms          rms(c)
DAV:   1    -0.656444857700E+03    0.13274E-03   -0.27503E-01   600   0.521E-01    0.120E-01
DAV:   2    -0.656445337961E+03   -0.48026E-03   -0.62315E-03   756   0.106E-01    0.194E-01
DAV:   3    -0.656445429479E+03   -0.91517E-04   -0.46180E-04   504   0.331E-02
  11 F= -.67147349E+03 E0= -.67141085E+03  d E =-.252846E-02
 curvature:  -0.84 expect dE=-0.159E-02 dE for cont linesearch -0.657E-03
 ZBRENT: increasing intervall
 opt :   0.9535  next Energy=  -671.475114 (dE=-0.415E-02)
 bond charge predicted
       N       E                     dE             d eps       ncg     rms          rms(c)
DAV:   1    -0.656441694054E+03    0.36439E-02   -0.11039E+00   600   0.106E+00    0.421E-01
DAV:   2    -0.656490680104E+03   -0.48986E-01   -0.46952E-01   828   0.441E-01    0.361E+00
DAV:   3    -0.656448682089E+03    0.41998E-01   -0.43724E-01   840   0.355E-01    0.119E+00
DAV:   4    -0.656444314494E+03    0.43676E-02   -0.45983E-03   732   0.865E-02    0.771E-01
DAV:   5    -0.656448428256E+03   -0.41138E-02   -0.18329E-03   684   0.617E-02    0.151E+00
DAV:   6    -0.656449236943E+03   -0.80869E-03   -0.12065E-03   708   0.625E-02    0.160E+00
DAV:   7    -0.656447363760E+03    0.18732E-02   -0.44999E-04   636   0.384E-02    0.136E+00
DAV:   8    -0.656443843029E+03    0.35207E-02   -0.99296E-04   480   0.478E-02    0.727E-01
DAV:   9    -0.656442981273E+03    0.86176E-03   -0.37732E-04   492   0.282E-02    0.461E-01
DAV:  10    -0.656442814153E+03    0.16712E-03   -0.96829E-05   384   0.140E-02    0.366E-01
DAV:  11    -0.656442797726E+03    0.16428E-04   -0.20918E-05   336   0.814E-03
  12 F= -.67147332E+03 E0= -.67141268E+03  d E =-.235930E-02
 curvature:  -2.08 expect dE=-0.279E-01 dE for cont linesearch -0.159E-02
 ZBRENT: bracketing found
 ZBRENT: interpolating
 opt :   0.6692  next Energy=  -671.474053 (dE=-0.309E-02)
 bond charge predicted
       N       E                     dE             d eps       ncg     rms          rms(c)
DAV:   1    -0.656444558968E+03   -0.17448E-02   -0.27368E-01   600   0.520E-01    0.443E-01
DAV:   2    -0.656540964911E+03   -0.96406E-01   -0.90924E-01   852   0.460E-01    0.436E+00
DAV:   3    -0.656448498542E+03    0.92466E-01   -0.27945E-01   852   0.489E-01    0.295E-01
DAV:   4    -0.656446858131E+03    0.16404E-02   -0.64576E-03   732   0.101E-01    0.109E+00
DAV:   5    -0.656445480166E+03    0.13780E-02   -0.90786E-04   528   0.330E-02    0.699E-01
DAV:   6    -0.656445262545E+03    0.21762E-03   -0.21000E-04   396   0.233E-02    0.609E-01
DAV:   7    -0.656445089593E+03    0.17295E-03   -0.31584E-04   468   0.294E-02    0.506E-01
DAV:   8    -0.656444517847E+03    0.57175E-03   -0.10426E-03   684   0.410E-02    0.115E-01
DAV:   9    -0.656444519423E+03   -0.15754E-05   -0.22170E-04   468   0.246E-02
  13 F= -.67147381E+03 E0= -.67141242E+03  d E =-.285103E-02
 curvature:  -0.96 expect dE=-0.429E-02 dE for cont linesearch -0.266E-04
 ZBRENT: interpolating
 opt :   0.6128  next Energy=  -671.473845 (dE=-0.288E-02)
 bond charge predicted
       N       E                     dE             d eps       ncg     rms          rms(c)
DAV:   1    -0.656444718047E+03   -0.20020E-03   -0.10625E-02   576   0.105E-01    0.117E-01
DAV:   2    -0.656451800220E+03   -0.70822E-02   -0.43036E-02   720   0.123E-01    0.178E+00
DAV:   3    -0.656445605135E+03    0.61951E-02   -0.47277E-02   612   0.123E-01    0.360E-01
DAV:   4    -0.656445051209E+03    0.55393E-03   -0.82679E-04   408   0.461E-02    0.367E-01
DAV:   5    -0.656444715665E+03    0.33554E-03   -0.15628E-04   348   0.189E-02    0.101E-01
DAV:   6    -0.656444696363E+03    0.19302E-04   -0.39991E-05   312   0.971E-03
  14 F= -.67147375E+03 E0= -.67141161E+03  d E =-.278573E-02
 curvature:  -1.15 expect dE=-0.379E-02 dE for cont linesearch -0.736E-05
 trial: gam= 0.57688 g(F)=  0.328E-02 g(S)=  0.000E+00 ort = 0.470E-03 (trialstep = 0.199E+00)
 search vector abs. value=  0.154E-01
 bond charge predicted
       N       E                     dE             d eps       ncg     rms          rms(c)
DAV:   1    -0.656444878867E+03   -0.16320E-03   -0.46006E-02   600   0.223E-01    0.118E-01
DAV:   2    -0.656450250005E+03   -0.53711E-02   -0.59353E-03   840   0.119E-01    0.145E+00
DAV:   3    -0.656445491636E+03    0.47584E-02   -0.51691E-03   624   0.116E-01    0.272E-01
DAV:   4    -0.656445253759E+03    0.23788E-03   -0.60235E-04   564   0.472E-02    0.321E-01
DAV:   5    -0.656445053243E+03    0.20052E-03   -0.10982E-04   336   0.231E-02    0.251E-01
DAV:   6    -0.656444952479E+03    0.10076E-03   -0.61249E-05   312   0.136E-02    0.144E-01
DAV:   7    -0.656444913740E+03    0.38738E-04   -0.56674E-05   348   0.103E-02
  15 F= -.67147436E+03 E0= -.67141255E+03  d E =-.614603E-03
 ZBRENT: can't locate minimum, use default step
 trial-energy change:   -0.000615  1 .order   -0.000630   -0.000706   -0.000555
 step:   0.7954(harm=  0.9271)  dis= 0.00521  next Energy=  -671.475394 (dE=-0.165E-02)
 bond charge predicted
       N       E                     dE             d eps       ncg     rms          rms(c)
DAV:   1    -0.656444104661E+03    0.84782E-03   -0.41136E-01   600   0.664E-01    0.221E-01
DAV:   2    -0.656450525751E+03   -0.64211E-02   -0.14014E-02   840   0.156E-01    0.155E+00
DAV:   3    -0.656445732866E+03    0.47929E-02   -0.87175E-03   780   0.152E-01    0.481E-01
DAV:   4    -0.656446199250E+03   -0.46638E-03   -0.32140E-03   552   0.833E-02    0.824E-01
DAV:   5    -0.656445226583E+03    0.97267E-03   -0.43587E-04   468   0.365E-02    0.489E-01
DAV:   6    -0.656445015013E+03    0.21157E-03   -0.59933E-04   552   0.418E-02    0.277E-01
DAV:   7    -0.656444722123E+03    0.29289E-03   -0.28692E-04   468   0.316E-02    0.220E-01
DAV:   8    -0.656444631771E+03    0.90352E-04   -0.48138E-05   300   0.140E-02
  16 F= -.67147528E+03 E0= -.67141363E+03  d E =-.153444E-02
 curvature:  -1.94 expect dE=-0.512E-02 dE for cont linesearch -0.880E-05
 trial: gam= 0.71662 g(F)=  0.264E-02 g(S)=  0.000E+00 ort = 0.264E-03 (trialstep = 0.318E+00)
 search vector abs. value=  0.109E-01
 bond charge predicted
       N       E                     dE             d eps       ncg     rms          rms(c)
DAV:   1    -0.656444955500E+03   -0.23338E-03   -0.49357E-02   600   0.261E-01    0.905E-02
DAV:   2    -0.656445840892E+03   -0.88539E-03   -0.25494E-03   696   0.798E-02    0.589E-01
DAV:   3    -0.656445218889E+03    0.62200E-03   -0.15337E-03   528   0.558E-02    0.245E-01
DAV:   4    -0.656445067460E+03    0.15143E-03   -0.12915E-04   372   0.197E-02    0.780E-02
DAV:   5    -0.656445129242E+03   -0.61782E-04   -0.52473E-05   348   0.131E-02
  17 F= -.67147617E+03 E0= -.67141485E+03  d E =-.888833E-03
 ZBRENT: can't locate minimum, use default step
 trial-energy change:   -0.000889  1 .order   -0.000821   -0.000900   -0.000742
 step:   1.2726(harm=  1.8152)  dis= 0.00753  next Energy=  -671.477850 (dE=-0.257E-02)
 bond charge predicted
       N       E                     dE             d eps       ncg     rms          rms(c)
DAV:   1    -0.656444628277E+03    0.43918E-03   -0.44395E-01   600   0.782E-01    0.266E-01
DAV:   2    -0.656452157336E+03   -0.75291E-02   -0.62388E-02   816   0.228E-01    0.167E+00
DAV:   3    -0.656447610285E+03    0.45471E-02   -0.73729E-02   804   0.169E-01    0.882E-01
DAV:   4    -0.656446103842E+03    0.15064E-02   -0.13826E-03   696   0.672E-02    0.363E-01
DAV:   5    -0.656446160583E+03   -0.56741E-04   -0.83783E-04   672   0.515E-02
  18 F= -.67147839E+03 E0= -.67141859E+03  d E =-.310299E-02
 curvature:  -3.04 expect dE=-0.104E-01 dE for cont linesearch -0.191E-03
 ZBRENT: increasing intervall
 opt :   3.1816  next Energy=  -671.477095 (dE=-0.181E-02)
 bond charge predicted
       N       E                     dE             d eps       ncg     rms          rms(c)
DAV:   1    -0.656438942307E+03    0.71615E-02   -0.17710E+00   600   0.157E+00    0.698E-01
DAV:   2    -0.656540205388E+03   -0.10126E+00   -0.94428E-01   792   0.758E-01    0.423E+00
DAV:   3    -0.656450558200E+03    0.89647E-01   -0.39229E-01   864   0.620E-01    0.155E+00
DAV:   4    -0.656442586471E+03    0.79717E-02   -0.76739E-03   708   0.127E-01    0.368E-01
DAV:   5    -0.656441812470E+03    0.77400E-03   -0.35353E-03   792   0.912E-02    0.577E-01
DAV:   6    -0.656442568760E+03   -0.75629E-03   -0.21315E-03   696   0.674E-02    0.596E-01
DAV:   7    -0.656441848795E+03    0.71996E-03   -0.10332E-03   684   0.538E-02    0.654E-01
DAV:   8    -0.656441242139E+03    0.60666E-03   -0.25739E-04   468   0.278E-02    0.386E-01
DAV:   9    -0.656440913265E+03    0.32887E-03   -0.21273E-04   384   0.243E-02    0.799E-02
DAV:  10    -0.656440926334E+03   -0.13069E-04   -0.62023E-05   372   0.110E-02
  19 F= -.67147555E+03 E0= -.67141369E+03  d E =-.272196E-03
 curvature:  20.52 expect dE= 0.531E+00 dE for cont linesearch  0.132E-01
 ZBRENT: bracketing found
 ZBRENT: interpolating
 opt :   1.7277  next Energy=  -671.478574 (dE=-0.329E-02)
 bond charge predicted
       N       E                     dE             d eps       ncg     rms          rms(c)
DAV:   1    -0.656443312171E+03   -0.23989E-02   -0.10360E+00   600   0.120E+00    0.375E-01
DAV:   2    -0.656452179654E+03   -0.88675E-02   -0.71383E-02   852   0.251E-01    0.184E+00
DAV:   3    -0.656447176066E+03    0.50036E-02   -0.62530E-02   804   0.187E-01    0.737E-01
DAV:   4    -0.656448039137E+03   -0.86307E-03   -0.11036E-02   672   0.117E-01    0.123E+00
DAV:   5    -0.656445514531E+03    0.25246E-02   -0.30845E-03   612   0.579E-02    0.491E-01
DAV:   6    -0.656445603607E+03   -0.89076E-04   -0.13206E-03   720   0.530E-02    0.453E-01
DAV:   7    -0.656445017278E+03    0.58633E-03   -0.65890E-04   588   0.358E-02    0.347E-01
DAV:   8    -0.656444873818E+03    0.14346E-03   -0.50596E-05   348   0.145E-02    0.231E-01
DAV:   9    -0.656444783431E+03    0.90387E-04   -0.79223E-05   360   0.134E-02
  20 F= -.67147758E+03 E0= -.67141529E+03  d E =-.229424E-02
 curvature:  -0.29 expect dE=-0.208E-02 dE for cont linesearch -0.148E-06
 trial: gam= 2.80080 g(F)=  0.710E-02 g(S)=  0.000E+00 ort =-0.741E-04 (trialstep = 0.710E-01)
 search vector abs. value=  0.923E-01
 bond charge predicted
       N       E                     dE             d eps       ncg     rms          rms(c)
DAV:   1    -0.656444822663E+03    0.51156E-04   -0.17742E-02   600   0.153E-01    0.427E-02
DAV:   2    -0.656444921065E+03   -0.98402E-04   -0.46093E-04   516   0.296E-02
  21 F= -.67147810E+03 E0= -.67141664E+03  d E =-.518608E-03
 ZBRENT: can't locate minimum, use default step
 trial-energy change:   -0.000519  1 .order   -0.000437   -0.000489   -0.000385
 step:   0.2838(harm=  0.3350)  dis= 0.00485  next Energy=  -671.478731 (dE=-0.115E-02)
 bond charge predicted
       N       E                     dE             d eps       ncg     rms          rms(c)
DAV:   1    -0.656444585604E+03    0.23706E-03   -0.16022E-01   600   0.459E-01    0.214E-01
DAV:   2    -0.656462201300E+03   -0.17616E-01   -0.18921E-02   912   0.199E-01    0.236E+00
DAV:   3    -0.656445709305E+03    0.16492E-01   -0.14119E-02   792   0.202E-01    0.182E-01
DAV:   4    -0.656445819152E+03   -0.10985E-03   -0.14655E-03   600   0.628E-02    0.728E-01
DAV:   5    -0.656444770161E+03    0.10490E-02   -0.55168E-04   564   0.358E-02    0.196E-01
DAV:   6    -0.656444671373E+03    0.98788E-04   -0.58133E-04   540   0.344E-02
  22 F= -.67147899E+03 E0= -.67141651E+03  d E =-.141324E-02
 curvature:  -2.16 expect dE=-0.812E-02 dE for cont linesearch -0.258E-03
 ZBRENT: increasing intervall
 opt :   0.7095  next Energy=  -671.479506 (dE=-0.193E-02)
 bond charge predicted
       N       E                     dE             d eps       ncg     rms          rms(c)
DAV:   1    -0.656441762371E+03    0.30078E-02   -0.63833E-01   600   0.912E-01    0.291E-01
DAV:   2    -0.656457042962E+03   -0.15281E-01   -0.27127E-02   852   0.232E-01    0.221E+00
DAV:   3    -0.656444642460E+03    0.12401E-01   -0.16941E-02   792   0.234E-01    0.625E-01
DAV:   4    -0.656444390785E+03    0.25167E-03   -0.32114E-03   768   0.106E-01    0.624E-01
DAV:   5    -0.656443233410E+03    0.11574E-02   -0.12456E-03   684   0.624E-02    0.588E-01
DAV:   6    -0.656442559372E+03    0.67404E-03   -0.57884E-04   612   0.387E-02    0.201E-01
DAV:   7    -0.656442463022E+03    0.96350E-04   -0.28274E-04   444   0.229E-02
  23 F= -.67147908E+03 E0= -.67141709E+03  d E =-.149947E-02
 curvature:  -4.31 expect dE=-0.411E-01 dE for cont linesearch -0.250E-03
 ZBRENT: bracketing found
 ZBRENT: interpolating
 opt :   0.5348  next Energy=  -671.479278 (dE=-0.170E-02)
 bond charge predicted
       N       E                     dE             d eps       ncg     rms          rms(c)
DAV:   1    -0.656443530214E+03   -0.97084E-03   -0.10828E-01   600   0.374E-01    0.110E-01
DAV:   2    -0.656445409711E+03   -0.18795E-02   -0.51005E-03   840   0.850E-02    0.904E-01
DAV:   3    -0.656443944618E+03    0.14651E-02   -0.33972E-03   588   0.726E-02    0.232E-01
DAV:   4    -0.656443936672E+03    0.79465E-05   -0.53840E-04   444   0.404E-02
  24 F= -.67147961E+03 E0= -.67141655E+03  d E =-.203020E-02
 curvature:  -3.48 expect dE=-0.219E-01 dE for cont linesearch -0.625E-05
 trial: gam= 0.69430 g(F)=  0.627E-02 g(S)=  0.000E+00 ort =-0.407E-03 (trialstep = 0.164E+00)
 search vector abs. value=  0.502E-01
 bond charge predicted
       N       E                     dE             d eps       ncg     rms          rms(c)
DAV:   1    -0.656443625063E+03    0.31956E-03   -0.48796E-02   600   0.275E-01    0.278E-01
DAV:   2    -0.656473047171E+03   -0.29422E-01   -0.54789E-02   900   0.284E-01    0.273E+00
DAV:   3    -0.656446906283E+03    0.26141E-01   -0.27911E-02   828   0.309E-01    0.714E-01
DAV:   4    -0.656443784567E+03    0.31217E-02   -0.15437E-02   768   0.844E-02    0.151E-01
DAV:   5    -0.656443510084E+03    0.27448E-03   -0.31378E-04   528   0.309E-02    0.320E-02
DAV:   6    -0.656443514493E+03   -0.44092E-05   -0.86416E-05   372   0.140E-02
  25 F= -.67148019E+03 E0= -.67141833E+03  d E =-.578971E-03
 ZBRENT: can't locate minimum, use default step
 trial-energy change:   -0.000579  1 .order   -0.000860   -0.000980   -0.000740
 step:   0.6548(harm=  0.6683)  dis= 0.01006  next Energy=  -671.481608 (dE=-0.200E-02)
 bond charge predicted
       N       E                     dE             d eps       ncg     rms          rms(c)
DAV:   1    -0.656441327617E+03    0.21825E-02   -0.42954E-01   600   0.819E-01    0.322E-01
DAV:   2    -0.656460014574E+03   -0.18687E-01   -0.26644E-02   852   0.254E-01    0.240E+00
DAV:   3    -0.656444443816E+03    0.15571E-01   -0.26553E-02   816   0.254E-01    0.812E-01
DAV:   4    -0.656443272115E+03    0.11717E-02   -0.56102E-03   756   0.936E-02    0.727E-01
DAV:   5    -0.656442093516E+03    0.11786E-02   -0.14108E-03   720   0.533E-02    0.109E-01
DAV:   6    -0.656442166156E+03   -0.72640E-04   -0.87082E-04   672   0.500E-02
  26 F= -.67148185E+03 E0= -.67141887E+03  d E =-.224020E-02
 curvature:  -2.80 expect dE=-0.606E-02 dE for cont linesearch -0.912E-04
 ZBRENT: extrapolating
 opt :   0.8486  next Energy=  -671.481971 (dE=-0.236E-02)
 bond charge predicted
       N       E                     dE             d eps       ncg     rms          rms(c)
DAV:   1    -0.656440681706E+03    0.14118E-02   -0.66835E-02   600   0.325E-01    0.270E-01
DAV:   2    -0.656468945048E+03   -0.28263E-01   -0.30632E-02   900   0.270E-01    0.274E+00
DAV:   3    -0.656442470978E+03    0.26474E-01   -0.26990E-02   840   0.298E-01    0.461E-01
DAV:   4    -0.656441559490E+03    0.91149E-03   -0.20383E-03   744   0.736E-02    0.506E-01
DAV:   5    -0.656440896210E+03    0.66328E-03   -0.39225E-04   528   0.383E-02    0.333E-01
DAV:   6    -0.656440653335E+03    0.24287E-03   -0.33709E-04   492   0.265E-02    0.656E-02
DAV:   7    -0.656440666017E+03   -0.12682E-04   -0.10995E-04   396   0.152E-02
  27 F= -.67148154E+03 E0= -.67141920E+03  d E =-.192965E-02
 curvature:  -3.80 expect dE=-0.114E-01 dE for cont linesearch -0.153E-04
 trial: gam= 0.54319 g(F)=  0.301E-02 g(S)=  0.000E+00 ort =-0.449E-03 (trialstep = 0.301E+00)
 search vector abs. value=  0.173E-01
 bond charge predicted
       N       E                     dE             d eps       ncg     rms          rms(c)
DAV:   1    -0.656439796746E+03    0.85659E-03   -0.61551E-02   600   0.321E-01    0.214E-01
DAV:   2    -0.656455950852E+03   -0.16154E-01   -0.17184E-02   876   0.217E-01    0.229E+00
DAV:   3    -0.656441352671E+03    0.14598E-01   -0.17457E-02   792   0.213E-01    0.518E-01
DAV:   4    -0.656440326965E+03    0.10257E-02   -0.19840E-03   588   0.619E-02    0.375E-01
DAV:   5    -0.656439911267E+03    0.41570E-03   -0.46832E-04   468   0.324E-02    0.526E-02
DAV:   6    -0.656439938068E+03   -0.26801E-04   -0.16386E-04   432   0.266E-02
  28 F= -.67148205E+03 E0= -.67141937E+03  d E =-.515603E-03
 trial-energy change:   -0.000516  1 .order   -0.000509   -0.000831   -0.000187
 step:   0.3881(harm=  0.3881)  dis= 0.00313  next Energy=  -671.482073 (dE=-0.536E-03)
 bond charge predicted
       N       E                     dE             d eps       ncg     rms          rms(c)
DAV:   1    -0.656439575420E+03    0.33585E-03   -0.51489E-03   564   0.937E-02    0.213E-01
DAV:   2    -0.656460745497E+03   -0.21170E-01   -0.21722E-02   816   0.228E-01    0.251E+00
DAV:   3    -0.656440948879E+03    0.19797E-01   -0.19751E-02   756   0.234E-01    0.410E-01
DAV:   4    -0.656440013754E+03    0.93512E-03   -0.16132E-03   600   0.552E-02    0.416E-01
DAV:   5    -0.656439570971E+03    0.44278E-03   -0.18454E-04   396   0.241E-02    0.170E-01
DAV:   6    -0.656439493641E+03    0.77330E-04   -0.86823E-05   324   0.155E-02
  29 F= -.67148197E+03 E0= -.67142007E+03  d E =-.433111E-03
 curvature:  -1.22 expect dE=-0.138E-02 dE for cont linesearch -0.130E-04
 ZBRENT: interpolating
 opt :   0.3524  next Energy=  -671.481977 (dE=-0.441E-03)
 bond charge predicted
       N       E                     dE             d eps       ncg     rms          rms(c)
DAV:   1    -0.656439646814E+03   -0.75843E-04   -0.94225E-04   600   0.408E-02    0.169E-02
DAV:   2    -0.656439672323E+03   -0.25508E-04   -0.47217E-05   348   0.124E-02
  30 F= -.67148200E+03 E0= -.67141966E+03  d E =-.463716E-03
 curvature:  -0.72 expect dE=-0.677E-03 dE for cont linesearch -0.165E-06
 trial: gam= 0.20450 g(F)=  0.941E-03 g(S)=  0.000E+00 ort = 0.631E-04 (trialstep = 0.311E+00)
 search vector abs. value=  0.169E-02
 bond charge predicted
       N       E                     dE             d eps       ncg     rms          rms(c)
DAV:   1    -0.656439551582E+03    0.95232E-04   -0.10221E-02   624   0.142E-01    0.607E-02
DAV:   2    -0.656439774131E+03   -0.22255E-03   -0.55859E-04   564   0.402E-02    0.307E-01
DAV:   3    -0.656439627041E+03    0.14709E-03   -0.43158E-04   444   0.323E-02    0.151E-01
DAV:   4    -0.656439616885E+03    0.10155E-04   -0.15279E-04   396   0.218E-02
  31 F= -.67148224E+03 E0= -.67141984E+03  d E =-.239766E-03
 trial-energy change:   -0.000240  1 .order   -0.000219   -0.000297   -0.000142
 step:   0.5948(harm=  0.5948)  dis= 0.00115  next Energy=  -671.482284 (dE=-0.284E-03)
 bond charge predicted
       N       E                     dE             d eps       ncg     rms          rms(c)
DAV:   1    -0.656439361623E+03    0.26542E-03   -0.85121E-03   612   0.129E-01    0.941E-02
DAV:   2    -0.656442298179E+03   -0.29366E-02   -0.32466E-03   684   0.948E-02    0.110E+00
DAV:   3    -0.656439770840E+03    0.25273E-02   -0.35609E-03   564   0.968E-02    0.292E-01
DAV:   4    -0.656439471083E+03    0.29976E-03   -0.58845E-04   444   0.362E-02    0.726E-02
DAV:   5    -0.656439364807E+03    0.10628E-03   -0.94679E-05   348   0.197E-02    0.195E-02
DAV:   6    -0.656439369390E+03   -0.45825E-05   -0.24341E-05   336   0.822E-03
  32 F= -.67148226E+03 E0= -.67142003E+03  d E =-.262124E-03
 curvature:  -0.53 expect dE=-0.289E-03 dE for cont linesearch -0.288E-07
 trial: gam= 0.57997 g(F)=  0.549E-03 g(S)=  0.000E+00 ort = 0.961E-05 (trialstep = 0.368E+00)
 search vector abs. value=  0.113E-02
 bond charge predicted
       N       E                     dE             d eps       ncg     rms          rms(c)
DAV:   1    -0.656439436596E+03   -0.71788E-04   -0.11237E-02   612   0.142E-01    0.768E-02
DAV:   2    -0.656442038445E+03   -0.26018E-02   -0.28669E-03   720   0.858E-02    0.104E+00
DAV:   3    -0.656439694047E+03    0.23444E-02   -0.26653E-03   540   0.864E-02    0.204E-01
DAV:   4    -0.656439490538E+03    0.20351E-03   -0.29320E-04   396   0.277E-02    0.803E-02
DAV:   5    -0.656439450008E+03    0.40531E-04   -0.65744E-05   336   0.141E-02
  33 F= -.67148244E+03 E0= -.67142035E+03  d E =-.174737E-03
 ZBRENT: can't locate minimum, use default step
 trial-energy change:   -0.000175  1 .order   -0.000179   -0.000204   -0.000154
 step:   1.4711(harm=  1.5084)  dis= 0.00247  next Energy=  -671.482680 (dE=-0.418E-03)
 bond charge predicted
       N       E                     dE             d eps       ncg     rms          rms(c)
DAV:   1    -0.656439210133E+03    0.28041E-03   -0.10123E-01   624   0.423E-01    0.129E-01
DAV:   2    -0.656441437059E+03   -0.22269E-02   -0.49218E-03   864   0.127E-01    0.911E-01
DAV:   3    -0.656439927711E+03    0.15093E-02   -0.36736E-03   636   0.956E-02    0.446E-01
DAV:   4    -0.656439508218E+03    0.41949E-03   -0.66068E-04   480   0.376E-02    0.106E-01
DAV:   5    -0.656439448610E+03    0.59608E-04   -0.19379E-04   360   0.252E-02
  34 F= -.67148272E+03 E0= -.67142027E+03  d E =-.457949E-03
 curvature:  -1.53 expect dE=-0.223E-02 dE for cont linesearch -0.197E-05
 trial: gam= 2.65607 g(F)=  0.145E-02 g(S)=  0.000E+00 ort = 0.381E-04 (trialstep = 0.691E-01)
 search vector abs. value=  0.961E-02
 bond charge predicted
       N       E                     dE             d eps       ncg     rms          rms(c)
DAV:   1    -0.656439558276E+03   -0.50058E-04   -0.33147E-03   576   0.762E-02    0.254E-01
DAV:   2    -0.656468741825E+03   -0.29184E-01   -0.31455E-02   828   0.268E-01    0.275E+00
DAV:   3    -0.656441184139E+03    0.27558E-01   -0.28185E-02   756   0.308E-01    0.432E-01
DAV:   4    -0.656439792388E+03    0.13918E-02   -0.21812E-03   588   0.588E-02    0.300E-01
DAV:   5    -0.656439476948E+03    0.31544E-03   -0.22232E-04   420   0.242E-02    0.131E-01
DAV:   6    -0.656439436607E+03    0.40341E-04   -0.54312E-05   336   0.119E-02
  35 F= -.67148273E+03 E0= -.67142081E+03  d E =-.857879E-05
 ZBRENT: can't locate minimum, use default step
 trial-energy change:   -0.000009  1 .order   -0.000099   -0.000107   -0.000091
 step:   0.2763(harm=  0.4575)  dis= 0.00131  next Energy=  -671.483075 (dE=-0.355E-03)
 bond charge predicted
       N       E                     dE             d eps       ncg     rms          rms(c)
DAV:   1    -0.656439553011E+03   -0.76063E-04   -0.32058E-02   624   0.229E-01    0.606E-02
DAV:   2    -0.656440009467E+03   -0.45646E-03   -0.14248E-03   720   0.522E-02    0.429E-01
DAV:   3    -0.656439678952E+03    0.33051E-03   -0.79854E-04   456   0.376E-02    0.142E-01
DAV:   4    -0.656439704387E+03   -0.25435E-04   -0.13153E-04   384   0.255E-02
  36 F= -.67148306E+03 E0= -.67142038E+03  d E =-.338569E-03
 curvature:  -1.11 expect dE=-0.103E-02 dE for cont linesearch -0.109E-03
 ZBRENT: increasing intervall
 opt :   0.6907  next Energy=  -671.483319 (dE=-0.599E-03)
 bond charge predicted
       N       E                     dE             d eps       ncg     rms          rms(c)
DAV:   1    -0.656439545619E+03    0.13333E-03   -0.12835E-01   624   0.457E-01    0.156E-01
DAV:   2    -0.656445262541E+03   -0.57169E-02   -0.94212E-03   852   0.162E-01    0.146E+00
DAV:   3    -0.656440591418E+03    0.46711E-02   -0.72472E-03   708   0.135E-01    0.495E-01
DAV:   4    -0.656439835826E+03    0.75559E-03   -0.66243E-04   612   0.435E-02    0.678E-02
DAV:   5    -0.656439797337E+03    0.38489E-04   -0.15691E-04   456   0.278E-02
  37 F= -.67148328E+03 E0= -.67142059E+03  d E =-.558061E-03
 curvature:  -2.64 expect dE=-0.378E-02 dE for cont linesearch -0.345E-04
 ZBRENT: increasing intervall
 opt :   1.5195  next Energy=  -671.483059 (dE=-0.339E-03)
 bond charge predicted
       N       E                     dE             d eps       ncg     rms          rms(c)
DAV:   1    -0.656438338895E+03    0.14969E-02   -0.51078E-01   600   0.914E-01    0.334E-01
DAV:   2    -0.656466678644E+03   -0.28340E-01   -0.44237E-02   840   0.352E-01    0.267E+00
DAV:   3    -0.656441656190E+03    0.25022E-01   -0.32994E-02   828   0.311E-01    0.794E-01
DAV:   4    -0.656439599827E+03    0.20564E-02   -0.30031E-03   804   0.826E-02    0.209E-01
DAV:   5    -0.656439097603E+03    0.50222E-03   -0.75595E-04   672   0.500E-02    0.173E-01
DAV:   6    -0.656439115987E+03   -0.18384E-04   -0.42783E-04   564   0.314E-02
  38 F= -.67148286E+03 E0= -.67142004E+03  d E =-.138293E-03
 curvature:  16.81 expect dE= 0.129E+00 dE for cont linesearch  0.267E-02
 ZBRENT: bracketing found
 ZBRENT: interpolating
 opt :   0.8754  next Energy=  -671.483311 (dE=-0.591E-03)
 bond charge predicted
       N       E                     dE             d eps       ncg     rms          rms(c)
DAV:   1    -0.656439458076E+03   -0.36047E-03   -0.31347E-01   612   0.715E-01    0.424E-01
DAV:   2    -0.656498425885E+03   -0.58968E-01   -0.75509E-02   840   0.416E-01    0.323E+00
DAV:   3    -0.656441705804E+03    0.56720E-01   -0.63186E-02   828   0.464E-01    0.379E-01
DAV:   4    -0.656441837882E+03   -0.13208E-03   -0.69216E-03   756   0.103E-01    0.835E-01
DAV:   5    -0.656440161362E+03    0.16765E-02   -0.13181E-03   600   0.462E-02    0.468E-01
DAV:   6    -0.656439708099E+03    0.45326E-03   -0.21675E-04   432   0.248E-02    0.226E-01
DAV:   7    -0.656439617165E+03    0.90934E-04   -0.30601E-04   456   0.252E-02
  39 F= -.67148316E+03 E0= -.67142077E+03  d E =-.435201E-03
 curvature:  -0.21 expect dE=-0.488E-03 dE for cont linesearch -0.242E-05
 ZBRENT: interpolating
 opt :   0.7855  next Energy=  -671.483171 (dE=-0.450E-03)
 bond charge predicted
       N       E                     dE             d eps       ncg     rms          rms(c)
DAV:   1    -0.656439681873E+03    0.26227E-04   -0.59363E-03   612   0.997E-02    0.393E-02
DAV:   2    -0.656439916934E+03   -0.23506E-03   -0.30693E-04   516   0.324E-02    0.133E-01
DAV:   3    -0.656439779996E+03    0.13694E-03   -0.21752E-04   396   0.325E-02    0.237E-01
DAV:   4    -0.656439669685E+03    0.11031E-03   -0.15968E-04   384   0.217E-02    0.327E-02
DAV:   5    -0.656439672347E+03   -0.26617E-05   -0.28417E-05   336   0.109E-02
  40 F= -.67148318E+03 E0= -.67142133E+03  d E =-.462420E-03
 curvature:  -1.29 expect dE=-0.250E-02 dE for cont linesearch -0.206E-05
 trial: gam= 1.27353 g(F)=  0.194E-02 g(S)=  0.000E+00 ort =-0.124E-03 (trialstep = 0.119E+00)
 search vector abs. value=  0.172E-01
 bond charge predicted
       N       E                     dE             d eps       ncg     rms          rms(c)
DAV:   1    -0.656439886272E+03   -0.21659E-03   -0.18481E-02   624   0.175E-01    0.650E-02
DAV:   2    -0.656441165573E+03   -0.12793E-02   -0.22310E-03   648   0.640E-02    0.763E-01
DAV:   3    -0.656440052256E+03    0.11133E-02   -0.20850E-03   480   0.568E-02    0.164E-01
DAV:   4    -0.656439985254E+03    0.67002E-04   -0.18696E-04   384   0.242E-02
  41 F= -.67148345E+03 E0= -.67142093E+03  d E =-.267900E-03
 ZBRENT: can't locate minimum, use default step
 trial-energy change:   -0.000268  1 .order   -0.000198   -0.000212   -0.000184
 step:   0.4743(harm=  0.9218)  dis= 0.00331  next Energy=  -671.484005 (dE=-0.823E-03)
 bond charge predicted
       N       E                     dE             d eps       ncg     rms          rms(c)
DAV:   1    -0.656440246281E+03   -0.19403E-03   -0.16359E-01   600   0.521E-01    0.132E-01
DAV:   2    -0.656441119304E+03   -0.87302E-03   -0.46136E-03   828   0.111E-01    0.479E-01
DAV:   3    -0.656441251058E+03   -0.13175E-03   -0.26301E-03   600   0.718E-02    0.576E-01
DAV:   4    -0.656440664823E+03    0.58624E-03   -0.10655E-03   504   0.448E-02    0.913E-02
DAV:   5    -0.656440546902E+03    0.11792E-03   -0.25679E-04   396   0.312E-02    0.173E-01
DAV:   6    -0.656440494479E+03    0.52423E-04   -0.15755E-04   468   0.199E-02
  42 F= -.67148383E+03 E0= -.67142143E+03  d E =-.643945E-03
 curvature:  -3.07 expect dE=-0.315E-02 dE for cont linesearch -0.151E-03
 ZBRENT: increasing intervall
 opt :   1.1856  next Energy=  -671.484031 (dE=-0.848E-03)
 bond charge predicted
       N       E                     dE             d eps       ncg     rms          rms(c)
DAV:   1    -0.656439774646E+03    0.77226E-03   -0.65456E-01   600   0.104E+00    0.255E-01
DAV:   2    -0.656441360812E+03   -0.15862E-02   -0.15535E-02   792   0.179E-01    0.482E-01
DAV:   3    -0.656445611888E+03   -0.42511E-02   -0.74470E-03   792   0.126E-01    0.136E+00
DAV:   4    -0.656441592459E+03    0.40194E-02   -0.59662E-03   744   0.127E-01    0.459E-01
DAV:   5    -0.656441162859E+03    0.42960E-03   -0.12080E-03   672   0.487E-02    0.347E-01
DAV:   6    -0.656440889474E+03    0.27339E-03   -0.26253E-04   540   0.280E-02    0.144E-01
DAV:   7    -0.656440864521E+03    0.24953E-04   -0.89176E-05   396   0.200E-02
  43 F= -.67148394E+03 E0= -.67142252E+03  d E =-.756099E-03
 curvature:  -4.14 expect dE=-0.144E-01 dE for cont linesearch -0.797E-04
 ZBRENT: bracketing found
 ZBRENT: interpolating
 opt :   0.9120  next Energy=  -671.484018 (dE=-0.835E-03)
 bond charge predicted
       N       E                     dE             d eps       ncg     rms          rms(c)
DAV:   1    -0.656440649923E+03    0.23955E-03   -0.97161E-02   600   0.403E-01    0.118E-01
DAV:   2    -0.656443060860E+03   -0.24109E-02   -0.73757E-03   840   0.115E-01    0.100E+00
DAV:   3    -0.656441205761E+03    0.18551E-02   -0.56402E-03   576   0.832E-02    0.304E-01
DAV:   4    -0.656440867562E+03    0.33820E-03   -0.28018E-04   420   0.349E-02    0.785E-02
DAV:   5    -0.656440831139E+03    0.36423E-04   -0.82736E-05   372   0.215E-02
  44 F= -.67148400E+03 E0= -.67142221E+03  d E =-.820583E-03
 curvature:  -4.09 expect dE=-0.831E-02 dE for cont linesearch -0.324E-04
 trial: gam= 1.03104 g(F)=  0.203E-02 g(S)=  0.000E+00 ort =-0.370E-03 (trialstep = 0.244E+00)
 search vector abs. value=  0.196E-01
 bond charge predicted
       N       E                     dE             d eps       ncg     rms          rms(c)
DAV:   1    -0.656441113150E+03   -0.24559E-03   -0.80063E-02   600   0.365E-01    0.138E-01
DAV:   2    -0.656444017231E+03   -0.29041E-02   -0.90851E-03   828   0.109E-01    0.111E+00
DAV:   3    -0.656441891818E+03    0.21254E-02   -0.91561E-03   648   0.969E-02    0.412E-01
DAV:   4    -0.656441611449E+03    0.28037E-03   -0.59937E-04   600   0.527E-02    0.243E-01
DAV:   5    -0.656441285654E+03    0.32580E-03   -0.14624E-04   396   0.277E-02    0.973E-02
DAV:   6    -0.656441280777E+03    0.48767E-05   -0.60924E-05   336   0.159E-02
  45 F= -.67148434E+03 E0= -.67142199E+03  d E =-.337613E-03
 trial-energy change:   -0.000338  1 .order   -0.000338   -0.000402   -0.000274
 step:   0.7671(harm=  0.7671)  dis= 0.00649  next Energy=  -671.484636 (dE=-0.632E-03)
 bond charge predicted
       N       E                     dE             d eps       ncg     rms          rms(c)
DAV:   1    -0.656440833433E+03    0.45222E-03   -0.36184E-01   600   0.777E-01    0.230E-01
DAV:   2    -0.656442098593E+03   -0.12652E-02   -0.10380E-02   816   0.151E-01    0.518E-01
DAV:   3    -0.656445325568E+03   -0.32270E-02   -0.67373E-03   756   0.119E-01    0.123E+00
DAV:   4    -0.656441982800E+03    0.33428E-02   -0.39641E-03   696   0.112E-01    0.309E-01
DAV:   5    -0.656441716104E+03    0.26670E-03   -0.86318E-04   588   0.410E-02    0.218E-01
DAV:   6    -0.656441586106E+03    0.13000E-03   -0.30997E-04   516   0.303E-02    0.147E-01
DAV:   7    -0.656441514934E+03    0.71172E-04   -0.71383E-05   324   0.188E-02
  46 F= -.67148434E+03 E0= -.67142265E+03  d E =-.335734E-03
 curvature:  -4.55 expect dE=-0.209E-01 dE for cont linesearch -0.120E-03
 ZBRENT: interpolating
 opt :   0.5632  next Energy=  -671.484412 (dE=-0.409E-03)
 bond charge predicted
       N       E                     dE             d eps       ncg     rms          rms(c)
DAV:   1    -0.656441410779E+03    0.17533E-03   -0.55595E-02   600   0.304E-01    0.103E-01
DAV:   2    -0.656442468027E+03   -0.10572E-02   -0.31720E-03   876   0.884E-02    0.652E-01
DAV:   3    -0.656441803251E+03    0.66478E-03   -0.21785E-03   576   0.609E-02    0.305E-01
DAV:   4    -0.656441553856E+03    0.24940E-03   -0.23855E-04   396   0.292E-02    0.663E-02
DAV:   5    -0.656441530009E+03    0.23847E-04   -0.71648E-05   360   0.167E-02
  47 F= -.67148445E+03 E0= -.67142253E+03  d E =-.442135E-03
 curvature:  -2.78 expect dE=-0.642E-02 dE for cont linesearch -0.345E-04
 ZBRENT: bisectioning
 opt :   0.4035  next Energy=  -671.484510 (dE=-0.507E-03)
 bond charge predicted
       N       E                     dE             d eps       ncg     rms          rms(c)
DAV:   1    -0.656441400860E+03    0.15300E-03   -0.32998E-02   600   0.236E-01    0.693E-02
DAV:   2    -0.656441808134E+03   -0.40727E-03   -0.12072E-03   816   0.596E-02    0.243E-01
DAV:   3    -0.656441745328E+03    0.62806E-04   -0.61233E-04   504   0.443E-02
  48 F= -.67148473E+03 E0= -.67142384E+03  d E =-.729536E-03
 curvature:  -5.20 expect dE=-0.775E-02 dE for cont linesearch -0.316E-04
 ZBRENT: interpolating
 opt :   0.4692  next Energy=  -671.484744 (dE=-0.741E-03)
 bond charge predicted
       N       E                     dE             d eps       ncg     rms          rms(c)
DAV:   1    -0.656441563506E+03    0.24463E-03   -0.64756E-03   648   0.111E-01    0.102E-01
DAV:   2    -0.656446371707E+03   -0.48082E-02   -0.15743E-02   804   0.117E-01    0.127E+00
DAV:   3    -0.656442448373E+03    0.39233E-02   -0.35576E-03   672   0.110E-01    0.278E-01
DAV:   4    -0.656441601604E+03    0.84677E-03   -0.29095E-03   648   0.517E-02    0.203E-01
DAV:   5    -0.656441494010E+03    0.10759E-03   -0.10355E-04   372   0.203E-02    0.326E-02
DAV:   6    -0.656441487385E+03    0.66252E-05   -0.33788E-05   336   0.106E-02
  49 F= -.67148445E+03 E0= -.67142254E+03  d E =-.441875E-03
 curvature:  -1.86 expect dE=-0.303E-02 dE for cont linesearch -0.294E-05
 trial: gam= 0.67941 g(F)=  0.162E-02 g(S)=  0.000E+00 ort = 0.176E-03 (trialstep = 0.289E+00)
 search vector abs. value=  0.109E-01
 bond charge predicted
       N       E                     dE             d eps       ncg     rms          rms(c)
DAV:   1    -0.656441861079E+03   -0.36707E-03   -0.58193E-02   600   0.311E-01    0.107E-01
DAV:   2    -0.656443107217E+03   -0.12461E-02   -0.33328E-03   840   0.886E-02    0.716E-01
DAV:   3    -0.656442355916E+03    0.75130E-03   -0.27096E-03   528   0.672E-02    0.369E-01
DAV:   4    -0.656442034707E+03    0.32121E-03   -0.31679E-04   420   0.330E-02    0.669E-02
DAV:   5    -0.656441998722E+03    0.35985E-04   -0.92285E-05   336   0.164E-02
  50 F= -.67148490E+03 E0= -.67142289E+03  d E =-.453456E-03
 ZBRENT: can't locate minimum, use default step
 trial-energy change:   -0.000453  1 .order   -0.000468   -0.000504   -0.000432
 step:   1.1559(harm=  2.0151)  dis= 0.00769  next Energy=  -671.486203 (dE=-0.176E-02)
 bond charge predicted
       N       E                     dE             d eps       ncg     rms          rms(c)
DAV:   1    -0.656441786847E+03    0.24786E-03   -0.52210E-01   600   0.932E-01    0.319E-01
DAV:   2    -0.656452365644E+03   -0.10579E-01   -0.79879E-02   840   0.263E-01    0.202E+00
DAV:   3    -0.656446497006E+03    0.58686E-02   -0.10196E-01   840   0.213E-01    0.110E+00
DAV:   4    -0.656443389714E+03    0.31073E-02   -0.26402E-03   732   0.886E-02    0.161E-01
DAV:   5    -0.656442987319E+03    0.40239E-03   -0.10171E-03   636   0.490E-02    0.200E-01
DAV:   6    -0.656442815321E+03    0.17200E-03   -0.36519E-04   576   0.353E-02    0.182E-01
DAV:   7    -0.656442939925E+03   -0.12460E-03   -0.17421E-04   396   0.247E-02    0.309E-01
DAV:   8    -0.656442769377E+03    0.17055E-03   -0.77025E-05   384   0.171E-02    0.137E-01
DAV:   9    -0.656442747524E+03    0.21853E-04   -0.30015E-05   336   0.873E-03
  51 F= -.67148548E+03 E0= -.67142376E+03  d E =-.103358E-02
 curvature:  -4.74 expect dE=-0.131E-01 dE for cont linesearch -0.208E-04
 trial: gam= 1.83889 g(F)=  0.277E-02 g(S)=  0.000E+00 ort = 0.219E-03 (trialstep = 0.125E+00)
 search vector abs. value=  0.404E-01
 bond charge predicted
       N       E                     dE             d eps       ncg     rms          rms(c)
DAV:   1    -0.656442955798E+03   -0.18642E-03   -0.41278E-02   600   0.268E-01    0.890E-02
DAV:   2    -0.656444438862E+03   -0.14831E-02   -0.33826E-03   780   0.826E-02    0.803E-01
DAV:   3    -0.656443268725E+03    0.11701E-02   -0.27752E-03   504   0.637E-02    0.245E-01
DAV:   4    -0.656443081338E+03    0.18739E-03   -0.22646E-04   396   0.270E-02    0.109E-01
DAV:   5    -0.656443042104E+03    0.39235E-04   -0.57810E-05   336   0.121E-02
  52 F= -.67148584E+03 E0= -.67142371E+03  d E =-.359676E-03
 ZBRENT: can't locate minimum, use default step
 trial-energy change:   -0.000360  1 .order   -0.000379   -0.000395   -0.000363
 step:   0.4986(harm=  1.5040)  dis= 0.00606  next Energy=  -671.487863 (dE=-0.238E-02)
 bond charge predicted
       N       E                     dE             d eps       ncg     rms          rms(c)
DAV:   1    -0.656443030939E+03    0.50399E-04   -0.37183E-01   600   0.798E-01    0.213E-01
DAV:   2    -0.656444001585E+03   -0.97065E-03   -0.97182E-03   792   0.148E-01    0.299E-01
DAV:   3    -0.656448058598E+03   -0.40570E-02   -0.55311E-03   732   0.114E-01    0.132E+00
DAV:   4    -0.656444376700E+03    0.36819E-02   -0.42669E-03   696   0.108E-01    0.212E-01
DAV:   5    -0.656443753838E+03    0.62286E-03   -0.97840E-04   588   0.465E-02    0.183E-01
DAV:   6    -0.656443648569E+03    0.10527E-03   -0.25423E-04   576   0.264E-02    0.550E-02
DAV:   7    -0.656443642018E+03    0.65506E-05   -0.61653E-05   396   0.146E-02
  53 F= -.67148664E+03 E0= -.67142476E+03  d E =-.115724E-02
 curvature:  -4.49 expect dE=-0.847E-02 dE for cont linesearch -0.364E-03
 ZBRENT: increasing intervall
 opt :   1.2465  next Energy=  -671.487169 (dE=-0.169E-02)
 bond charge predicted
       N       E                     dE             d eps       ncg     rms          rms(c)
DAV:   1    -0.656441075824E+03    0.25727E-02   -0.14893E+00   600   0.160E+00    0.432E-01
DAV:   2    -0.656446148712E+03   -0.50729E-02   -0.43139E-02   792   0.307E-01    0.990E-01
DAV:   3    -0.656457102196E+03   -0.10953E-01   -0.28653E-02   876   0.226E-01    0.211E+00
DAV:   4    -0.656444621611E+03    0.12481E-01   -0.82993E-03   804   0.168E-01    0.172E-01
DAV:   5    -0.656444196169E+03    0.42544E-03   -0.14822E-03   744   0.534E-02    0.496E-01
DAV:   6    -0.656443821024E+03    0.37514E-03   -0.34045E-04   564   0.290E-02    0.278E-01
DAV:   7    -0.656443746741E+03    0.74283E-04   -0.16269E-04   396   0.235E-02
  54 F= -.67148715E+03 E0= -.67142584E+03  d E =-.166776E-02
 curvature:  -6.57 expect dE=-0.521E-01 dE for cont linesearch -0.181E-04
 trial: gam= 3.23383 g(F)=  0.793E-02 g(S)=  0.000E+00 ort =-0.333E-03 (trialstep = 0.329E-01)
 search vector abs. value=  0.429E+00
 bond charge predicted
       N       E                     dE             d eps       ncg     rms          rms(c)
DAV:   1    -0.656443725040E+03    0.95984E-04   -0.31026E-02   600   0.233E-01    0.101E-01
DAV:   2    -0.656447239349E+03   -0.35143E-02   -0.14797E-02   828   0.103E-01    0.121E+00
DAV:   3    -0.656444326419E+03    0.29129E-02   -0.14283E-02   600   0.935E-02    0.285E-01
DAV:   4    -0.656443932832E+03    0.39359E-03   -0.49032E-04   600   0.438E-02    0.143E-01
DAV:   5    -0.656443781047E+03    0.15179E-03   -0.90475E-05   372   0.216E-02    0.697E-02
DAV:   6    -0.656443784110E+03   -0.30631E-05   -0.28672E-05   336   0.107E-02
  55 F= -.67148727E+03 E0= -.67142500E+03  d E =-.125021E-03
 ZBRENT: can't locate minimum, use default step
 trial-energy change:   -0.000125  1 .order   -0.000218   -0.000226   -0.000209
 step:   0.1317(harm=  0.4584)  dis= 0.00481  next Energy=  -671.488718 (dE=-0.157E-02)
 bond charge predicted
       N       E                     dE             d eps       ncg     rms          rms(c)
DAV:   1    -0.656443568674E+03    0.21237E-03   -0.28047E-01   600   0.695E-01    0.179E-01
DAV:   2    -0.656444115284E+03   -0.54661E-03   -0.71808E-03   804   0.121E-01    0.109E-01
DAV:   3    -0.656444600039E+03   -0.48475E-03   -0.93182E-04   600   0.508E-02    0.507E-01
DAV:   4    -0.656444144951E+03    0.45509E-03   -0.10846E-03   432   0.449E-02    0.199E-01
DAV:   5    -0.656444092751E+03    0.52200E-04   -0.25944E-04   480   0.270E-02
  56 F= -.67148784E+03 E0= -.67142562E+03  d E =-.698028E-03
 curvature:  -5.88 expect dE=-0.403E-01 dE for cont linesearch -0.464E-03
 ZBRENT: increasing intervall
 opt :   0.3292  next Energy=  -671.488884 (dE=-0.174E-02)
 bond charge predicted
       N       E                     dE             d eps       ncg     rms          rms(c)
DAV:   1    -0.656442366298E+03    0.17787E-02   -0.11207E+00   600   0.139E+00    0.356E-01
DAV:   2    -0.656445632390E+03   -0.32661E-02   -0.30480E-02   792   0.255E-01    0.521E-01
DAV:   3    -0.656455325798E+03   -0.96934E-02   -0.20036E-02   816   0.202E-01    0.197E+00
DAV:   4    -0.656447037897E+03    0.82879E-02   -0.91408E-03   756   0.166E-01    0.422E-01
DAV:   5    -0.656444573995E+03    0.24639E-02   -0.26500E-02   720   0.850E-02    0.395E-01
DAV:   6    -0.656444251321E+03    0.32267E-03   -0.64855E-04   684   0.411E-02    0.116E-01
DAV:   7    -0.656444130721E+03    0.12060E-03   -0.28112E-04   540   0.251E-02    0.465E-02
DAV:   8    -0.656444129782E+03    0.93899E-06   -0.52375E-05   336   0.132E-02
  57 F= -.67148842E+03 E0= -.67142642E+03  d E =-.127031E-02
 curvature: -13.19 expect dE=-0.794E-01 dE for cont linesearch -0.155E-03
 ZBRENT: increasing intervall
 opt :   0.7243  next Energy=  -671.487891 (dE=-0.744E-03)
 bond charge predicted
       N       E                     dE             d eps       ncg     rms          rms(c)
DAV:   1    -0.656435243327E+03    0.88874E-02   -0.44982E+00   600   0.278E+00    0.719E-01
DAV:   2    -0.656444459210E+03   -0.92159E-02   -0.11591E-01   804   0.493E-01    0.519E-01
DAV:   3    -0.656468168811E+03   -0.23710E-01   -0.34494E-02   792   0.292E-01    0.267E+00
DAV:   4    -0.656444313275E+03    0.23856E-01   -0.20046E-02   768   0.251E-01    0.272E-01
DAV:   5    -0.656444945568E+03   -0.63229E-03   -0.17796E-02   756   0.999E-02    0.700E-01
DAV:   6    -0.656443582102E+03    0.13635E-02   -0.15587E-02   696   0.791E-02    0.542E-01
DAV:   7    -0.656442982123E+03    0.59998E-03   -0.56926E-04   660   0.421E-02    0.325E-01
DAV:   8    -0.656442727016E+03    0.25511E-03   -0.37449E-04   468   0.348E-02    0.873E-02
DAV:   9    -0.656442750451E+03   -0.23435E-04   -0.49700E-05   396   0.132E-02
  58 F= -.67148813E+03 E0= -.67142637E+03  d E =-.987827E-03
 curvature:  44.88 expect dE= 0.438E+00 dE for cont linesearch  0.103E-02
 ZBRENT: bracketing found
 ZBRENT: interpolating
 opt :   0.4937  next Energy=  -671.488601 (dE=-0.145E-02)
 bond charge predicted
       N       E                     dE             d eps       ncg     rms          rms(c)
DAV:   1    -0.656441269480E+03    0.14575E-02   -0.15341E+00   600   0.162E+00    0.430E-01
DAV:   2    -0.656444607380E+03   -0.33379E-02   -0.39818E-02   816   0.293E-01    0.375E-01
DAV:   3    -0.656460383849E+03   -0.15776E-01   -0.15918E-01   804   0.217E-01    0.258E+00
DAV:   4    -0.656445419213E+03    0.14965E-01   -0.13285E-01   708   0.192E-01    0.267E-01
DAV:   5    -0.656445313273E+03    0.10594E-03   -0.48133E-03   744   0.808E-02    0.638E-01
DAV:   6    -0.656444678105E+03    0.63517E-03   -0.15500E-03   696   0.516E-02    0.603E-01
DAV:   7    -0.656444421172E+03    0.25693E-03   -0.20427E-04   480   0.261E-02    0.542E-01
DAV:   8    -0.656443812571E+03    0.60860E-03   -0.64564E-04   456   0.332E-02    0.115E-01
DAV:   9    -0.656443795692E+03    0.16879E-04   -0.70974E-05   432   0.143E-02
  59 F= -.67148854E+03 E0= -.67142627E+03  d E =-.138857E-02
 curvature:  -8.00 expect dE=-0.558E-01 dE for cont linesearch -0.117E-04
 trial: gam= 0.31541 g(F)=  0.697E-02 g(S)=  0.000E+00 ort =-0.791E-03 (trialstep = 0.125E+00)
 search vector abs. value=  0.491E-01
 bond charge predicted
       N       E                     dE             d eps       ncg     rms          rms(c)
DAV:   1    -0.656444186507E+03   -0.37394E-03   -0.52237E-02   600   0.302E-01    0.952E-02
DAV:   2    -0.656444826124E+03   -0.63962E-03   -0.20162E-03   864   0.706E-02    0.489E-01
DAV:   3    -0.656444524667E+03    0.30146E-03   -0.13053E-03   492   0.581E-02    0.297E-01
DAV:   4    -0.656444329287E+03    0.19538E-03   -0.35061E-04   408   0.304E-02    0.129E-01
DAV:   5    -0.656444292984E+03    0.36303E-04   -0.85689E-05   324   0.166E-02
  60 F= -.67148935E+03 E0= -.67142707E+03  d E =-.811877E-03
 ZBRENT: can't locate minimum, use default step
 trial-energy change:   -0.000812  1 .order   -0.000802   -0.000841   -0.000764
 step:   0.5003(harm=  1.3661)  dis= 0.00551  next Energy=  -671.493126 (dE=-0.459E-02)
 bond charge predicted
       N       E                     dE             d eps       ncg     rms          rms(c)
DAV:   1    -0.656444048086E+03    0.28120E-03   -0.46642E-01   600   0.903E-01    0.274E-01
DAV:   2    -0.656449413422E+03   -0.53653E-02   -0.17176E-02   852   0.212E-01    0.134E+00
DAV:   3    -0.656447196521E+03    0.22169E-02   -0.14016E-02   804   0.163E-01    0.953E-01
DAV:   4    -0.656445208250E+03    0.19883E-02   -0.39086E-03   696   0.769E-02    0.250E-01
DAV:   5    -0.656445194132E+03    0.14119E-04   -0.52693E-04   600   0.432E-02
  61 F= -.67149120E+03 E0= -.67142810E+03  d E =-.266119E-02
 curvature:  -2.56 expect dE=-0.136E-01 dE for cont linesearch -0.415E-03
 ZBRENT: increasing intervall
 opt :   1.2508  next Energy=  -671.490850 (dE=-0.231E-02)
 bond charge predicted
       N       E                     dE             d eps       ncg     rms          rms(c)
DAV:   1    -0.656439384436E+03    0.58238E-02   -0.18698E+00   600   0.180E+00    0.666E-01
DAV:   2    -0.656508164412E+03   -0.68780E-01   -0.15170E-01   864   0.619E-01    0.327E+00
DAV:   3    -0.656449066516E+03    0.59098E-01   -0.10071E-01   780   0.599E-01    0.138E+00
DAV:   4    -0.656447156821E+03    0.19097E-02   -0.45056E-02   804   0.192E-01    0.724E-01
DAV:   5    -0.656442493682E+03    0.46631E-02   -0.42214E-03   804   0.111E-01    0.417E-01
DAV:   6    -0.656442091308E+03    0.40237E-03   -0.10321E-03   708   0.451E-02    0.193E-01
DAV:   7    -0.656442700346E+03   -0.60904E-03   -0.92139E-04   588   0.442E-02    0.519E-01
DAV:   8    -0.656442359166E+03    0.34118E-03   -0.18979E-04   444   0.199E-02    0.388E-01
DAV:   9    -0.656442008721E+03    0.35045E-03   -0.32131E-04   480   0.242E-02    0.625E-02
DAV:  10    -0.656442018641E+03   -0.99199E-05   -0.66951E-05   384   0.133E-02
  62 F= -.67148994E+03 E0= -.67142760E+03  d E =-.140202E-02
 curvature:   2.14 expect dE= 0.582E-01 dE for cont linesearch  0.902E-03
 ZBRENT: bracketing found
 ZBRENT: interpolating
 opt :   0.7875  next Energy=  -671.491601 (dE=-0.307E-02)
 bond charge predicted
       N       E                     dE             d eps       ncg     rms          rms(c)
DAV:   1    -0.656443203494E+03   -0.11948E-02   -0.71436E-01   600   0.112E+00    0.335E-01
DAV:   2    -0.656449712954E+03   -0.65095E-02   -0.45991E-02   840   0.243E-01    0.151E+00
DAV:   3    -0.656448564221E+03    0.11487E-02   -0.52610E-02   804   0.185E-01    0.123E+00
DAV:   4    -0.656444784892E+03    0.37793E-02   -0.29060E-03   756   0.109E-01    0.134E-01
DAV:   5    -0.656444747815E+03    0.37077E-04   -0.66051E-04   660   0.430E-02
  63 F= -.67149148E+03 E0= -.67143086E+03  d E =-.294488E-02
 curvature:  -0.96 expect dE=-0.876E-02 dE for cont linesearch -0.180E-04
 trial: gam= 1.43116 g(F)=  0.914E-02 g(S)=  0.000E+00 ort =-0.961E-03 (trialstep = 0.118E+00)
 search vector abs. value=  0.107E+00
 bond charge predicted
       N       E                     dE             d eps       ncg     rms          rms(c)
DAV:   1    -0.656444827672E+03   -0.42780E-04   -0.10416E-01   600   0.425E-01    0.251E-01
DAV:   2    -0.656470234602E+03   -0.25407E-01   -0.26493E-01   840   0.262E-01    0.299E+00
DAV:   3    -0.656448017793E+03    0.22217E-01   -0.26176E-01   804   0.237E-01    0.630E-01
DAV:   4    -0.656445919774E+03    0.20980E-02   -0.36996E-03   744   0.102E-01    0.438E-01
DAV:   5    -0.656444963730E+03    0.95604E-03   -0.13230E-03   600   0.462E-02    0.247E-01
DAV:   6    -0.656444954092E+03    0.96381E-05   -0.74895E-05   360   0.169E-02
  64 F= -.67149213E+03 E0= -.67142937E+03  d E =-.653476E-03
 ZBRENT: can't locate minimum, use default step
 trial-energy change:   -0.000653  1 .order   -0.000898   -0.000918   -0.000879
 step:   0.4730(harm=  2.8060)  dis= 0.00743  next Energy=  -671.502370 (dE=-0.109E-01)
 bond charge predicted
       N       E                     dE             d eps       ncg     rms          rms(c)
DAV:   1    -0.656443209530E+03    0.17542E-02   -0.92306E-01   600   0.126E+00    0.445E-01
DAV:   2    -0.656471944138E+03   -0.28735E-01   -0.57020E-02   864   0.415E-01    0.265E+00
DAV:   3    -0.656449644297E+03    0.22300E-01   -0.59969E-02   804   0.379E-01    0.126E+00
DAV:   4    -0.656445561538E+03    0.40828E-02   -0.13703E-02   768   0.104E-01    0.295E-01
DAV:   5    -0.656445320577E+03    0.24096E-03   -0.22169E-03   744   0.542E-02    0.433E-01
DAV:   6    -0.656445729931E+03   -0.40935E-03   -0.92016E-04   684   0.481E-02    0.596E-01
DAV:   7    -0.656445447910E+03    0.28202E-03   -0.43364E-04   540   0.323E-02    0.579E-01
DAV:   8    -0.656445070724E+03    0.37719E-03   -0.23596E-04   384   0.232E-02    0.403E-01
DAV:   9    -0.656444779047E+03    0.29168E-03   -0.17557E-04   408   0.170E-02    0.165E-01
DAV:  10    -0.656444762451E+03    0.16596E-04   -0.33864E-05   360   0.869E-03
  65 F= -.67149330E+03 E0= -.67143090E+03  d E =-.181537E-02
 curvature:  -4.77 expect dE=-0.205E-01 dE for cont linesearch -0.251E-04
 trial: gam= 0.31385 g(F)=  0.429E-02 g(S)=  0.000E+00 ort = 0.750E-03 (trialstep = 0.189E+00)
 search vector abs. value=  0.153E-01
 bond charge predicted
       N       E                     dE             d eps       ncg     rms          rms(c)
DAV:   1    -0.656445339308E+03   -0.56026E-03   -0.38854E-02   600   0.252E-01    0.117E-01
DAV:   2    -0.656449148805E+03   -0.38095E-02   -0.52819E-03   852   0.115E-01    0.123E+00
DAV:   3    -0.656445808557E+03    0.33402E-02   -0.42253E-03   588   0.107E-01    0.262E-01
DAV:   4    -0.656445488600E+03    0.31996E-03   -0.49143E-04   432   0.341E-02    0.150E-01
DAV:   5    -0.656445411500E+03    0.77100E-04   -0.12596E-04   372   0.179E-02
  66 F= -.67149406E+03 E0= -.67143203E+03  d E =-.764429E-03
 ZBRENT: can't locate minimum, use default step
 trial-energy change:   -0.000764  1 .order   -0.000771   -0.000857   -0.000685
 step:   0.7567(harm=  0.9423)  dis= 0.00465  next Energy=  -671.495429 (dE=-0.213E-02)
 bond charge predicted
       N       E                     dE             d eps       ncg     rms          rms(c)
DAV:   1    -0.656445560404E+03   -0.71803E-04   -0.34861E-01   600   0.754E-01    0.252E-01
DAV:   2    -0.656446886090E+03   -0.13257E-02   -0.12900E-02   816   0.165E-01    0.482E-01
DAV:   3    -0.656452774333E+03   -0.58882E-02   -0.49215E-02   720   0.152E-01    0.173E+00
DAV:   4    -0.656446806430E+03    0.59679E-02   -0.39220E-02   660   0.124E-01    0.120E-01
DAV:   5    -0.656446472682E+03    0.33375E-03   -0.11899E-03   576   0.514E-02    0.414E-01
DAV:   6    -0.656446338306E+03    0.13438E-03   -0.25104E-04   480   0.252E-02    0.374E-01
DAV:   7    -0.656446038216E+03    0.30009E-03   -0.25005E-04   420   0.242E-02    0.456E-02
DAV:   8    -0.656446039836E+03   -0.16204E-05   -0.97442E-05   336   0.141E-02
  67 F= -.67149504E+03 E0= -.67143303E+03  d E =-.174491E-02
 curvature:  -1.50 expect dE=-0.502E-02 dE for cont linesearch -0.286E-05
 trial: gam= 0.86547 g(F)=  0.336E-02 g(S)=  0.000E+00 ort = 0.171E-03 (trialstep = 0.303E+00)
 search vector abs. value=  0.151E-01
 bond charge predicted
       N       E                     dE             d eps       ncg     rms          rms(c)
DAV:   1    -0.656446815038E+03   -0.77682E-03   -0.95542E-02   600   0.409E-01    0.128E-01
DAV:   2    -0.656449925636E+03   -0.31106E-02   -0.89574E-03   792   0.105E-01    0.117E+00
DAV:   3    -0.656447534326E+03    0.23913E-02   -0.91376E-03   588   0.102E-01    0.379E-01
DAV:   4    -0.656447211583E+03    0.32274E-03   -0.76445E-04   432   0.449E-02    0.301E-01
DAV:   5    -0.656446989121E+03    0.22246E-03   -0.16111E-04   336   0.184E-02    0.823E-02
DAV:   6    -0.656446988916E+03    0.20489E-06   -0.61510E-05   312   0.152E-02
  68 F= -.67149591E+03 E0= -.67143399E+03  d E =-.870441E-03
 trial-energy change:   -0.000870  1 .order   -0.000875   -0.001061   -0.000690
 step:   0.8647(harm=  0.8647)  dis= 0.00504  next Energy=  -671.496556 (dE=-0.152E-02)
 bond charge predicted
       N       E                     dE             d eps       ncg     rms          rms(c)
DAV:   1    -0.656447113503E+03   -0.12438E-03   -0.32859E-01   600   0.759E-01    0.221E-01
DAV:   2    -0.656455317258E+03   -0.82038E-02   -0.67062E-02   780   0.177E-01    0.185E+00
DAV:   3    -0.656449237315E+03    0.60799E-02   -0.75995E-02   792   0.163E-01    0.607E-01
DAV:   4    -0.656448607922E+03    0.62939E-03   -0.20642E-03   684   0.778E-02    0.584E-01
DAV:   5    -0.656447949036E+03    0.65889E-03   -0.29431E-04   492   0.374E-02    0.333E-01
DAV:   6    -0.656447681959E+03    0.26708E-03   -0.26748E-04   492   0.252E-02    0.176E-01
DAV:   7    -0.656447619631E+03    0.62328E-04   -0.21719E-04   456   0.221E-02
  69 F= -.67149640E+03 E0= -.67143451E+03  d E =-.136179E-02
 curvature:  -1.86 expect dE=-0.952E-02 dE for cont linesearch -0.131E-05
 trial: gam= 1.52242 g(F)=  0.511E-02 g(S)=  0.000E+00 ort =-0.103E-03 (trialstep = 0.158E+00)
 search vector abs. value=  0.398E-01
 bond charge predicted
       N       E                     dE             d eps       ncg     rms          rms(c)
DAV:   1    -0.656448277206E+03   -0.59525E-03   -0.69390E-02   600   0.341E-01    0.126E-01
DAV:   2    -0.656452029985E+03   -0.37528E-02   -0.11645E-02   804   0.106E-01    0.129E+00
DAV:   3    -0.656448992982E+03    0.30370E-02   -0.12619E-02   576   0.115E-01    0.379E-01
DAV:   4    -0.656448589103E+03    0.40388E-03   -0.73145E-04   444   0.444E-02    0.267E-01
DAV:   5    -0.656448397833E+03    0.19127E-03   -0.13510E-04   372   0.175E-02    0.931E-02
DAV:   6    -0.656448401817E+03   -0.39842E-05   -0.46994E-05   348   0.135E-02
  70 F= -.67149707E+03 E0= -.67143510E+03  d E =-.670551E-03
 trial-energy change:   -0.000671  1 .order   -0.000662   -0.000780   -0.000543
 step:   0.5200(harm=  0.5200)  dis= 0.00555  next Energy=  -671.497689 (dE=-0.129E-02)
 bond charge predicted
       N       E                     dE             d eps       ncg     rms          rms(c)
DAV:   1    -0.656448633513E+03   -0.23568E-03   -0.36606E-01   600   0.781E-01    0.244E-01
DAV:   2    -0.656456799794E+03   -0.81663E-02   -0.64570E-02   780   0.185E-01    0.183E+00
DAV:   3    -0.656451149452E+03    0.56503E-02   -0.75611E-02   816   0.165E-01    0.709E-01
DAV:   4    -0.656450080796E+03    0.10687E-02   -0.25527E-03   648   0.803E-02    0.548E-01
DAV:   5    -0.656449508701E+03    0.57210E-03   -0.39266E-04   528   0.376E-02    0.278E-01
DAV:   6    -0.656449272044E+03    0.23666E-03   -0.32817E-04   540   0.304E-02    0.169E-01
DAV:   7    -0.656449194253E+03    0.77791E-04   -0.19471E-04   444   0.244E-02
  71 F= -.67149761E+03 E0= -.67143573E+03  d E =-.121291E-02
 curvature:  -2.09 expect dE=-0.563E-02 dE for cont linesearch -0.183E-05
 trial: gam= 0.37862 g(F)=  0.269E-02 g(S)=  0.000E+00 ort = 0.186E-03 (trialstep = 0.230E+00)
 search vector abs. value=  0.854E-02
 bond charge predicted
       N       E                     dE             d eps       ncg     rms          rms(c)
DAV:   1    -0.656449636195E+03   -0.36415E-03   -0.33613E-02   600   0.247E-01    0.842E-02
DAV:   2    -0.656451103898E+03   -0.14677E-02   -0.31433E-03   780   0.748E-02    0.800E-01
DAV:   3    -0.656449917831E+03    0.11861E-02   -0.30517E-03   528   0.715E-02    0.246E-01
DAV:   4    -0.656449746059E+03    0.17177E-03   -0.23816E-04   408   0.268E-02    0.117E-01
DAV:   5    -0.656449692681E+03    0.53377E-04   -0.57809E-05   360   0.111E-02
  72 F= -.67149815E+03 E0= -.67143626E+03  d E =-.531825E-03
 trial-energy change:   -0.000532  1 .order   -0.000542   -0.000635   -0.000448
 step:   0.7823(harm=  0.7823)  dis= 0.00392  next Energy=  -671.498695 (dE=-0.108E-02)
 bond charge predicted
       N       E                     dE             d eps       ncg     rms          rms(c)
DAV:   1    -0.656449772835E+03   -0.26777E-04   -0.19335E-01   600   0.590E-01    0.193E-01
DAV:   2    -0.656456024843E+03   -0.62520E-02   -0.35257E-02   816   0.160E-01    0.162E+00
DAV:   3    -0.656451240590E+03    0.47843E-02   -0.39208E-02   744   0.138E-01    0.529E-01
DAV:   4    -0.656450371362E+03    0.86923E-03   -0.12386E-03   528   0.547E-02    0.281E-01
DAV:   5    -0.656450118721E+03    0.25264E-03   -0.41044E-04   456   0.251E-02    0.608E-02
DAV:   6    -0.656450169108E+03   -0.50388E-04   -0.14786E-04   360   0.222E-02
  73 F= -.67149871E+03 E0= -.67143716E+03  d E =-.109267E-02
 curvature:  -1.21 expect dE=-0.197E-02 dE for cont linesearch -0.331E-06
 trial: gam= 0.64804 g(F)=  0.163E-02 g(S)=  0.000E+00 ort = 0.483E-04 (trialstep = 0.340E+00)
 search vector abs. value=  0.528E-02
 bond charge predicted
       N       E                     dE             d eps       ncg     rms          rms(c)
DAV:   1    -0.656450056302E+03    0.62418E-04   -0.46092E-02   600   0.287E-01    0.124E-01
DAV:   2    -0.656455715581E+03   -0.56593E-02   -0.31078E-02   804   0.121E-01    0.157E+00
DAV:   3    -0.656450808699E+03    0.49069E-02   -0.33101E-02   636   0.118E-01    0.334E-01
DAV:   4    -0.656450269475E+03    0.53922E-03   -0.57685E-04   444   0.397E-02    0.194E-01
DAV:   5    -0.656450134973E+03    0.13450E-03   -0.83831E-05   372   0.186E-02    0.507E-02
DAV:   6    -0.656450115539E+03    0.19435E-04   -0.53307E-05   336   0.137E-02
  74 F= -.67149898E+03 E0= -.67143703E+03  d E =-.277184E-03
 trial-energy change:   -0.000277  1 .order   -0.000388   -0.000565   -0.000211
 step:   0.5433(harm=  0.5433)  dis= 0.00236  next Energy=  -671.499159 (dE=-0.451E-03)
 bond charge predicted
       N       E                     dE             d eps       ncg     rms          rms(c)
DAV:   1    -0.656449972058E+03    0.16292E-03   -0.16294E-02   600   0.171E-01    0.127E-01
DAV:   2    -0.656458346683E+03   -0.83746E-02   -0.57070E-02   780   0.131E-01    0.190E+00
DAV:   3    -0.656450866575E+03    0.74801E-02   -0.60291E-02   636   0.133E-01    0.327E-01
DAV:   4    -0.656450206613E+03    0.65996E-03   -0.94598E-04   456   0.434E-02    0.270E-01
DAV:   5    -0.656449997299E+03    0.20931E-03   -0.18077E-04   372   0.186E-02    0.116E-01
DAV:   6    -0.656449972607E+03    0.24692E-04   -0.20441E-05   348   0.102E-02
  75 F= -.67149904E+03 E0= -.67143685E+03  d E =-.331812E-03
 curvature:  -0.86 expect dE=-0.178E-02 dE for cont linesearch -0.979E-07
 trial: gam= 1.20734 g(F)=  0.206E-02 g(S)=  0.000E+00 ort =-0.245E-04 (trialstep = 0.207E+00)
 search vector abs. value=  0.969E-02
 bond charge predicted
       N       E                     dE             d eps       ncg     rms          rms(c)
DAV:   1    -0.656449850350E+03    0.14695E-03   -0.30916E-02   600   0.223E-01    0.569E-02
DAV:   2    -0.656449919674E+03   -0.69323E-04   -0.80455E-04   780   0.426E-02
  76 F= -.67149943E+03 E0= -.67143756E+03  d E =-.390427E-03
 ZBRENT: can't locate minimum, use default step
 trial-energy change:   -0.000390  1 .order   -0.000380   -0.000421   -0.000339
 step:   0.8298(harm=  1.0628)  dis= 0.00419  next Energy=  -671.500118 (dE=-0.108E-02)
 bond charge predicted
       N       E                     dE             d eps       ncg     rms          rms(c)
DAV:   1    -0.656449304135E+03    0.54622E-03   -0.27862E-01   600   0.667E-01    0.414E-01
DAV:   2    -0.656510135467E+03   -0.60831E-01   -0.77987E-02   888   0.445E-01    0.323E+00
DAV:   3    -0.656451028971E+03    0.59106E-01   -0.60094E-02   804   0.468E-01    0.193E-01
DAV:   4    -0.656450818642E+03    0.21033E-03   -0.35193E-03   828   0.908E-02    0.795E-01
DAV:   5    -0.656449580180E+03    0.12385E-02   -0.52989E-04   576   0.380E-02    0.292E-01
DAV:   6    -0.656449487915E+03    0.92265E-04   -0.10037E-03   516   0.436E-02    0.242E-01
DAV:   7    -0.656449388800E+03    0.99115E-04   -0.25242E-04   456   0.219E-02
  77 F= -.67150023E+03 E0= -.67143790E+03  d E =-.119294E-02
 curvature:  -2.35 expect dE=-0.440E-02 dE for cont linesearch -0.273E-03
 ZBRENT: increasing intervall
 opt :   2.0746  next Energy=  -671.500840 (dE=-0.180E-02)
 bond charge predicted
       N       E                     dE             d eps       ncg     rms          rms(c)
DAV:   1    -0.656445475728E+03    0.40122E-02   -0.11114E+00   600   0.133E+00    0.598E-01
DAV:   2    -0.656529349708E+03   -0.83874E-01   -0.14508E-01   900   0.588E-01    0.346E+00
DAV:   3    -0.656449826118E+03    0.79524E-01   -0.10201E-01   828   0.606E-01    0.565E-01
DAV:   4    -0.656450963671E+03   -0.11376E-02   -0.14277E-02   792   0.167E-01    0.103E+00
DAV:   5    -0.656447543863E+03    0.34198E-02   -0.21627E-03   780   0.793E-02    0.609E-01
DAV:   6    -0.656446698317E+03    0.84555E-03   -0.70272E-04   720   0.436E-02    0.217E-01
DAV:   7    -0.656446774939E+03   -0.76622E-04   -0.93712E-04   552   0.371E-02
  78 F= -.67150030E+03 E0= -.67143725E+03  d E =-.126097E-02
 curvature:  -5.23 expect dE=-0.434E-01 dE for cont linesearch -0.170E-03
 ZBRENT: bracketing found
 ZBRENT: interpolating
 opt :   1.6443  next Energy=  -671.500421 (dE=-0.138E-02)
 bond charge predicted
       N       E                     dE             d eps       ncg     rms          rms(c)
DAV:   1    -0.656447588319E+03   -0.89000E-03   -0.13436E-01   600   0.463E-01    0.151E-01
DAV:   2    -0.656448821521E+03   -0.12332E-02   -0.51499E-03   828   0.122E-01    0.306E-01
DAV:   3    -0.656449583371E+03   -0.76185E-03   -0.47871E-03   780   0.103E-01    0.902E-01
DAV:   4    -0.656448373592E+03    0.12098E-02   -0.45258E-03   732   0.805E-02    0.209E-01
DAV:   5    -0.656447855590E+03    0.51800E-03   -0.75133E-04   588   0.462E-02    0.159E-01
DAV:   6    -0.656447780013E+03    0.75577E-04   -0.10892E-04   360   0.195E-02
  79 F= -.67150038E+03 E0= -.67143831E+03  d E =-.133671E-02
 curvature:  -3.72 expect dE=-0.197E-01 dE for cont linesearch -0.107E-03
 ZBRENT: bisectioning
 opt :   1.2371  next Energy=  -671.500584 (dE=-0.154E-02)
 bond charge predicted
       N       E                     dE             d eps       ncg     rms          rms(c)
DAV:   1    -0.656448510740E+03   -0.65515E-03   -0.11833E-01   600   0.437E-01    0.113E-01
DAV:   2    -0.656448734992E+03   -0.22425E-03   -0.30985E-03   816   0.855E-02    0.759E-02
DAV:   3    -0.656448772016E+03   -0.37024E-04   -0.21774E-04   444   0.300E-02
  80 F= -.67150049E+03 E0= -.67143795E+03  d E =-.145136E-02
 curvature:  -7.27 expect dE=-0.234E-01 dE for cont linesearch -0.138E-06
 trial: gam= 1.35600 g(F)=  0.322E-02 g(S)=  0.000E+00 ort = 0.136E-04 (trialstep = 0.190E+00)
 search vector abs. value=  0.211E-01
 bond charge predicted
       N       E                     dE             d eps       ncg     rms          rms(c)
DAV:   1    -0.656448515643E+03    0.21935E-03   -0.58659E-02   600   0.309E-01    0.111E-01
DAV:   2    -0.656449247807E+03   -0.73216E-03   -0.29987E-03   864   0.801E-02    0.426E-01
DAV:   3    -0.656449064298E+03    0.18351E-03   -0.20845E-03   588   0.584E-02    0.409E-01
DAV:   4    -0.656449055899E+03    0.83988E-05   -0.75376E-04   648   0.539E-02
  81 F= -.67150141E+03 E0= -.67143859E+03  d E =-.923608E-03
 ZBRENT: can't locate minimum, use default step
 trial-energy change:   -0.000924  1 .order   -0.000589   -0.000615   -0.000562
 step:   0.7604(harm=  2.2114)  dis= 0.00618  next Energy=  -671.504069 (dE=-0.358E-02)
 bond charge predicted
[...]
DAV:   5    -0.656398423175E+03    0.55938E-03   -0.41267E-04   540   0.403E-02    0.570E-02
DAV:   6    -0.656398422079E+03    0.10954E-05   -0.77100E-05   360   0.173E-02
 156 F= -.67159391E+03 E0= -.67153206E+03  d E =-.612565E-03
 trial-energy change:   -0.000613  1 .order   -0.000720   -0.001017   -0.000424
 step:   0.6972(harm=  0.6972)  dis= 0.00681  next Energy=  -671.594168 (dE=-0.872E-03)
 bond charge predicted
       N       E                     dE             d eps       ncg     rms          rms(c)
DAV:   1    -0.656397795604E+03    0.62757E-03   -0.79713E-02   600   0.370E-01    0.116E-01
DAV:   2    -0.656398450883E+03   -0.65528E-03   -0.38227E-03   900   0.929E-02    0.460E-01
DAV:   3    -0.656398322816E+03    0.12807E-03   -0.45536E-03   588   0.818E-02    0.406E-01
DAV:   4    -0.656397954048E+03    0.36877E-03   -0.92254E-04   420   0.358E-02    0.533E-02
DAV:   5    -0.656397946377E+03    0.76718E-05   -0.71347E-05   372   0.156E-02
 157 F= -.67159402E+03 E0= -.67153202E+03  d E =-.726531E-03
 curvature:  -2.39 expect dE=-0.700E-02 dE for cont linesearch -0.382E-07
 trial: gam= 1.12834 g(F)=  0.292E-02 g(S)=  0.000E+00 ort = 0.165E-04 (trialstep = 0.321E+00)
 search vector abs. value=  0.248E-01
 bond charge predicted
       N       E                     dE             d eps       ncg     rms          rms(c)
DAV:   1    -0.656397252912E+03    0.70114E-03   -0.14620E-01   600   0.509E-01    0.150E-01
DAV:   2    -0.656399807691E+03   -0.25548E-02   -0.10381E-02   900   0.158E-01    0.944E-01
DAV:   3    -0.656398064466E+03    0.17432E-02   -0.88404E-03   756   0.121E-01    0.416E-01
DAV:   4    -0.656397801465E+03    0.26300E-03   -0.77522E-04   672   0.546E-02    0.119E-01
DAV:   5    -0.656397472056E+03    0.32941E-03   -0.38695E-04   504   0.348E-02    0.738E-02
DAV:   6    -0.656397468351E+03    0.37053E-05   -0.13932E-04   408   0.195E-02
 158 F= -.67159456E+03 E0= -.67153278E+03  d E =-.535562E-03
 trial-energy change:   -0.000536  1 .order   -0.000602   -0.000946   -0.000257
 step:   0.4415(harm=  0.4415)  dis= 0.00584  next Energy=  -671.594672 (dE=-0.650E-03)
 bond charge predicted
       N       E                     dE             d eps       ncg     rms          rms(c)
DAV:   1    -0.656397095050E+03    0.37701E-03   -0.20453E-02   600   0.190E-01    0.736E-02
DAV:   2    -0.656398613488E+03   -0.15184E-02   -0.43288E-03   816   0.958E-02    0.787E-01
DAV:   3    -0.656397285042E+03    0.13284E-02   -0.43113E-03   516   0.841E-02    0.195E-01
DAV:   4    -0.656397176539E+03    0.10850E-03   -0.21220E-04   396   0.283E-02    0.666E-02
DAV:   5    -0.656397121803E+03    0.54737E-04   -0.67139E-05   360   0.177E-02
 159 F= -.67159459E+03 E0= -.67153289E+03  d E =-.568557E-03
 curvature:  -1.86 expect dE=-0.212E-02 dE for cont linesearch -0.677E-06
 trial: gam= 0.28355 g(F)=  0.114E-02 g(S)=  0.000E+00 ort = 0.950E-04 (trialstep = 0.345E+00)
 search vector abs. value=  0.319E-02
 bond charge predicted
       N       E                     dE             d eps       ncg     rms          rms(c)
DAV:   1    -0.656397050494E+03    0.12604E-03   -0.21890E-02   600   0.205E-01    0.813E-02
DAV:   2    -0.656398694705E+03   -0.16442E-02   -0.41854E-03   804   0.925E-02    0.828E-01
DAV:   3    -0.656397251341E+03    0.14434E-02   -0.47736E-03   588   0.884E-02    0.208E-01
DAV:   4    -0.656397144948E+03    0.10639E-03   -0.40588E-04   480   0.318E-02    0.137E-01
DAV:   5    -0.656397079263E+03    0.65685E-04   -0.58029E-05   408   0.165E-02
 160 F= -.67159492E+03 E0= -.67153332E+03  d E =-.327849E-03
 trial-energy change:   -0.000328  1 .order   -0.000333   -0.000403   -0.000264
 step:   1.0019(harm=  1.0019)  dis= 0.00308  next Energy=  -671.595175 (dE=-0.584E-03)
 bond charge predicted
       N       E                     dE             d eps       ncg     rms          rms(c)
DAV:   1    -0.656396462083E+03    0.68286E-03   -0.79070E-02   600   0.389E-01    0.116E-01
DAV:   2    -0.656397348742E+03   -0.88666E-03   -0.37915E-03   888   0.946E-02    0.567E-01
DAV:   3    -0.656396876528E+03    0.47221E-03   -0.41811E-03   636   0.813E-02    0.337E-01
DAV:   4    -0.656396775015E+03    0.10151E-03   -0.88158E-04   600   0.518E-02    0.164E-01
DAV:   5    -0.656396598687E+03    0.17633E-03   -0.23408E-04   468   0.305E-02    0.676E-02
DAV:   6    -0.656396576889E+03    0.21798E-04   -0.20047E-04   396   0.228E-02
 161 F= -.67159512E+03 E0= -.67153348E+03  d E =-.531524E-03
 curvature:  -1.37 expect dE=-0.161E-02 dE for cont linesearch -0.510E-06
 trial: gam= 1.12798 g(F)=  0.118E-02 g(S)=  0.000E+00 ort =-0.345E-04 (trialstep = 0.295E+00)
 search vector abs. value=  0.516E-02
 bond charge predicted
       N       E                     dE             d eps       ncg     rms          rms(c)
DAV:   1    -0.656396422289E+03    0.17640E-03   -0.24989E-02   600   0.210E-01    0.685E-02
DAV:   2    -0.656396621643E+03   -0.19935E-03   -0.12630E-03   780   0.548E-02    0.240E-01
DAV:   3    -0.656396655742E+03   -0.34098E-04   -0.17487E-03   468   0.480E-02    0.291E-01
DAV:   4    -0.656396520141E+03    0.13560E-03   -0.21735E-04   396   0.295E-02    0.479E-02
DAV:   5    -0.656396475833E+03    0.44308E-04   -0.49531E-05   348   0.173E-02
 162 F= -.67159535E+03 E0= -.67153396E+03  d E =-.230015E-03
 trial-energy change:   -0.000230  1 .order   -0.000241   -0.000335   -0.000146
 step:   0.5230(harm=  0.5230)  dis= 0.00211  next Energy=  -671.595420 (dE=-0.298E-03)
 bond charge predicted
       N       E                     dE             d eps       ncg     rms          rms(c)
DAV:   1    -0.656396235507E+03    0.28463E-03   -0.14780E-02   600   0.161E-01    0.709E-02
DAV:   2    -0.656397255096E+03   -0.10196E-02   -0.42525E-03   648   0.853E-02    0.649E-01
DAV:   3    -0.656396391810E+03    0.86329E-03   -0.49284E-03   480   0.740E-02    0.204E-01
DAV:   4    -0.656396288116E+03    0.10369E-03   -0.20186E-04   456   0.262E-02    0.451E-02
DAV:   5    -0.656396262685E+03    0.25431E-04   -0.55676E-05   324   0.163E-02
 163 F= -.67159540E+03 E0= -.67153394E+03  d E =-.273669E-03
 curvature:  -1.18 expect dE=-0.133E-02 dE for cont linesearch -0.174E-06
 trial: gam= 0.79931 g(F)=  0.112E-02 g(S)=  0.000E+00 ort =-0.275E-04 (trialstep = 0.340E+00)
 search vector abs. value=  0.437E-02
 bond charge predicted
       N       E                     dE             d eps       ncg     rms          rms(c)
DAV:   1    -0.656396273620E+03    0.14496E-04   -0.33677E-02   600   0.239E-01    0.108E-01
DAV:   2    -0.656397680728E+03   -0.14071E-02   -0.69639E-03   852   0.104E-01    0.731E-01
DAV:   3    -0.656396773942E+03    0.90679E-03   -0.10047E-02   660   0.939E-02    0.415E-01
DAV:   4    -0.656396563615E+03    0.21033E-03   -0.51037E-04   624   0.463E-02    0.959E-02
DAV:   5    -0.656396313696E+03    0.24992E-03   -0.23211E-04   372   0.287E-02    0.109E-01
DAV:   6    -0.656396302761E+03    0.10935E-04   -0.64898E-05   300   0.164E-02
 164 F= -.67159567E+03 E0= -.67153421E+03  d E =-.270532E-03
 trial-energy change:   -0.000271  1 .order   -0.000286   -0.000374   -0.000198
 step:   0.7240(harm=  0.7240)  dis= 0.00285  next Energy=  -671.595793 (dE=-0.397E-03)
 bond charge predicted
       N       E                     dE             d eps       ncg     rms          rms(c)
DAV:   1    -0.656396099397E+03    0.21430E-03   -0.42434E-02   600   0.269E-01    0.142E-01
DAV:   2    -0.656398999127E+03   -0.28997E-02   -0.12537E-02   828   0.133E-01    0.110E+00
DAV:   3    -0.656396869849E+03    0.21293E-02   -0.19329E-02   708   0.127E-01    0.508E-01
DAV:   4    -0.656396248097E+03    0.62175E-03   -0.92787E-04   468   0.447E-02    0.839E-02
DAV:   5    -0.656396147902E+03    0.10019E-03   -0.13315E-04   384   0.215E-02    0.840E-02
DAV:   6    -0.656396142111E+03    0.57915E-05   -0.86634E-05   324   0.155E-02
 165 F= -.67159577E+03 E0= -.67153431E+03  d E =-.370761E-03
 curvature:  -1.44 expect dE=-0.102E-02 dE for cont linesearch -0.138E-06
 trial: gam= 0.70965 g(F)=  0.706E-03 g(S)=  0.000E+00 ort =-0.205E-04 (trialstep = 0.417E+00)
 search vector abs. value=  0.288E-02
 bond charge predicted
       N       E                     dE             d eps       ncg     rms          rms(c)
DAV:   1    -0.656396233921E+03   -0.86018E-04   -0.29918E-02   600   0.217E-01    0.119E-01
DAV:   2    -0.656401490075E+03   -0.52562E-02   -0.27603E-02   684   0.158E-01    0.146E+00
DAV:   3    -0.656396853500E+03    0.46366E-02   -0.30760E-02   672   0.144E-01    0.355E-01
DAV:   4    -0.656396381183E+03    0.47232E-03   -0.91519E-04   456   0.428E-02    0.784E-02
DAV:   5    -0.656396258878E+03    0.12231E-03   -0.97419E-05   348   0.211E-02    0.409E-02
DAV:   6    -0.656396271936E+03   -0.13058E-04   -0.79742E-05   300   0.127E-02
 166 F= -.67159599E+03 E0= -.67153455E+03  d E =-.221726E-03
 trial-energy change:   -0.000222  1 .order   -0.000234   -0.000288   -0.000180
 step:   1.1087(harm=  1.1087)  dis= 0.00306  next Energy=  -671.596150 (dE=-0.383E-03)
 bond charge predicted
       N       E                     dE             d eps       ncg     rms          rms(c)
DAV:   1    -0.656396128028E+03    0.13085E-03   -0.82819E-02   600   0.360E-01    0.119E-01
DAV:   2    -0.656398916195E+03   -0.27882E-02   -0.10763E-02   840   0.142E-01    0.103E+00
DAV:   3    -0.656396713109E+03    0.22031E-02   -0.12801E-02   696   0.123E-01    0.373E-01
DAV:   4    -0.656396484536E+03    0.22857E-03   -0.12485E-03   540   0.459E-02    0.110E-01
DAV:   5    -0.656396282426E+03    0.20211E-03   -0.28240E-04   372   0.279E-02    0.152E-01
DAV:   6    -0.656396264445E+03    0.17981E-04   -0.11946E-04   384   0.197E-02
 167 F= -.67159614E+03 E0= -.67153496E+03  d E =-.368251E-03
 curvature:  -2.31 expect dE=-0.209E-02 dE for cont linesearch -0.795E-08
 trial: gam= 1.20849 g(F)=  0.906E-03 g(S)=  0.000E+00 ort =-0.315E-05 (trialstep = 0.313E+00)
 search vector abs. value=  0.510E-02
 bond charge predicted
       N       E                     dE             d eps       ncg     rms          rms(c)
DAV:   1    -0.656396400707E+03   -0.11828E-03   -0.25292E-02   600   0.206E-01    0.136E-01
DAV:   2    -0.656403775328E+03   -0.73746E-02   -0.47376E-02   732   0.173E-01    0.172E+00
DAV:   3    -0.656397241840E+03    0.65335E-02   -0.51277E-02   696   0.167E-01    0.398E-01
DAV:   4    -0.656396548189E+03    0.69365E-03   -0.11415E-03   468   0.483E-02    0.882E-02
DAV:   5    -0.656396414385E+03    0.13380E-03   -0.17215E-04   372   0.230E-02    0.460E-02
DAV:   6    -0.656396421702E+03   -0.73166E-05   -0.94687E-05   300   0.129E-02
 168 F= -.67159634E+03 E0= -.67153460E+03  d E =-.200456E-03
 trial-energy change:   -0.000200  1 .order   -0.000218   -0.000283   -0.000152
 step:   0.6786(harm=  0.6786)  dis= 0.00301  next Energy=  -671.596442 (dE=-0.306E-03)
 bond charge predicted
       N       E                     dE             d eps       ncg     rms          rms(c)
DAV:   1    -0.656396375842E+03    0.38543E-04   -0.34306E-02   600   0.240E-01    0.640E-02
DAV:   2    -0.656396534820E+03   -0.15898E-03   -0.12174E-03   756   0.506E-02    0.156E-01
DAV:   3    -0.656396563373E+03   -0.28553E-04   -0.12541E-03   444   0.405E-02    0.237E-01
DAV:   4    -0.656396530112E+03    0.33262E-04   -0.47627E-04   408   0.352E-02
 169 F= -.67159650E+03 E0= -.67153566E+03  d E =-.360036E-03
 curvature:  -1.92 expect dE=-0.213E-02 dE for cont linesearch -0.104E-06
 trial: gam= 1.30646 g(F)=  0.111E-02 g(S)=  0.000E+00 ort = 0.167E-04 (trialstep = 0.200E+00)
 search vector abs. value=  0.986E-02
 bond charge predicted
       N       E                     dE             d eps       ncg     rms          rms(c)
DAV:   1    -0.656396544683E+03    0.18690E-04   -0.18087E-02   600   0.174E-01    0.778E-02
DAV:   2    -0.656397719865E+03   -0.11752E-02   -0.53805E-03   660   0.845E-02    0.701E-01
DAV:   3    -0.656396739543E+03    0.98032E-03   -0.63696E-03   552   0.800E-02    0.241E-01
DAV:   4    -0.656396628656E+03    0.11089E-03   -0.18156E-04   360   0.263E-02    0.598E-02
DAV:   5    -0.656396563378E+03    0.65278E-04   -0.14886E-04   312   0.193E-02
 170 F= -.67159657E+03 E0= -.67153527E+03  d E =-.738824E-04
 trial-energy change:   -0.000074  1 .order   -0.000192   -0.000227   -0.000156
 step:   0.6446(harm=  0.6446)  dis= 0.00424  next Energy=  -671.596861 (dE=-0.366E-03)
 bond charge predicted
       N       E                     dE             d eps       ncg     rms          rms(c)
DAV:   1    -0.656396516732E+03    0.11192E-03   -0.90412E-02   600   0.385E-01    0.122E-01
DAV:   2    -0.656396938458E+03   -0.42173E-03   -0.31003E-03   864   0.860E-02    0.310E-01
DAV:   3    -0.656397477711E+03   -0.53925E-03   -0.56524E-03   612   0.842E-02    0.604E-01
DAV:   4    -0.656396903922E+03    0.57379E-03   -0.12304E-03   552   0.589E-02    0.109E-01
DAV:   5    -0.656396672312E+03    0.23161E-03   -0.27721E-04   480   0.337E-02    0.125E-01
DAV:   6    -0.656396633378E+03    0.38934E-04   -0.76877E-05   336   0.164E-02
 171 F= -.67159673E+03 E0= -.67153551E+03  d E =-.236134E-03
 curvature:  -2.80 expect dE=-0.219E-02 dE for cont linesearch -0.183E-05
 trial: gam= 0.49454 g(F)=  0.782E-03 g(S)=  0.000E+00 ort = 0.802E-04 (trialstep = 0.289E+00)
 search vector abs. value=  0.327E-02
 bond charge predicted
       N       E                     dE             d eps       ncg     rms          rms(c)
DAV:   1    -0.656396660058E+03    0.12254E-04   -0.12393E-02   600   0.152E-01    0.492E-02
DAV:   2    -0.656396899933E+03   -0.23987E-03   -0.10855E-03   528   0.463E-02    0.308E-01
DAV:   3    -0.656396744199E+03    0.15573E-03   -0.14013E-03   396   0.439E-02    0.156E-01
DAV:   4    -0.656396703723E+03    0.40476E-04   -0.15900E-04   348   0.186E-02
 172 F= -.67159694E+03 E0= -.67153527E+03  d E =-.207003E-03
 trial-energy change:   -0.000207  1 .order   -0.000199   -0.000237   -0.000161
 step:   0.9007(harm=  0.9007)  dis= 0.00304  next Energy=  -671.597101 (dE=-0.370E-03)
 bond charge predicted
       N       E                     dE             d eps       ncg     rms          rms(c)
DAV:   1    -0.656396459434E+03    0.28476E-03   -0.56169E-02   600   0.321E-01    0.100E-01
DAV:   2    -0.656397170163E+03   -0.71073E-03   -0.33298E-03   876   0.859E-02    0.506E-01
DAV:   3    -0.656396800786E+03    0.36938E-03   -0.40591E-03   612   0.694E-02    0.319E-01
DAV:   4    -0.656396602009E+03    0.19878E-03   -0.39250E-04   456   0.313E-02    0.574E-02
DAV:   5    -0.656396587459E+03    0.14551E-04   -0.10904E-04   384   0.199E-02
 173 F= -.67159711E+03 E0= -.67153538E+03  d E =-.381478E-03
 curvature:  -1.79 expect dE=-0.285E-02 dE for cont linesearch -0.315E-05
 trial: gam= 1.95424 g(F)=  0.159E-02 g(S)=  0.000E+00 ort = 0.758E-04 (trialstep = 0.936E-01)
 search vector abs. value=  0.144E-01
 bond charge predicted
       N       E                     dE             d eps       ncg     rms          rms(c)
DAV:   1    -0.656396599667E+03    0.23426E-05   -0.56581E-03   588   0.103E-01    0.875E-02
DAV:   2    -0.656399460055E+03   -0.28604E-02   -0.87020E-03   792   0.118E-01    0.103E+00
DAV:   3    -0.656397104048E+03    0.23560E-02   -0.76957E-03   612   0.112E-01    0.312E-01
DAV:   4    -0.656396607925E+03    0.49612E-03   -0.38531E-04   552   0.399E-02    0.445E-02
DAV:   5    -0.656396581881E+03    0.26044E-04   -0.65226E-05   324   0.165E-02
 174 F= -.67159722E+03 E0= -.67153568E+03  d E =-.107002E-03
 ZBRENT: can't locate minimum, use default step
 trial-energy change:   -0.000107  1 .order   -0.000144   -0.000162   -0.000125
 step:   0.3742(harm=  0.4102)  dis= 0.00239  next Energy=  -671.597469 (dE=-0.356E-03)
 bond charge predicted
       N       E                     dE             d eps       ncg     rms          rms(c)
DAV:   1    -0.656396407986E+03    0.19994E-03   -0.52134E-02   600   0.310E-01    0.125E-01
DAV:   2    -0.656399122107E+03   -0.27141E-02   -0.66968E-03   876   0.127E-01    0.103E+00
DAV:   3    -0.656396935463E+03    0.21866E-02   -0.10065E-02   696   0.117E-01    0.359E-01
DAV:   4    -0.656396686623E+03    0.24884E-03   -0.17069E-03   516   0.459E-02    0.106E-01
DAV:   5    -0.656396493423E+03    0.19320E-03   -0.26657E-04   408   0.292E-02    0.379E-02
DAV:   6    -0.656396513331E+03   -0.19908E-04   -0.58717E-05   348   0.164E-02
 175 F= -.67159749E+03 E0= -.67153569E+03  d E =-.377251E-03
 curvature:  -1.68 expect dE=-0.961E-03 dE for cont linesearch -0.443E-04
 ZBRENT: increasing intervall
 opt :   0.9356  next Energy=  -671.597430 (dE=-0.317E-03)
 bond charge predicted
       N       E                     dE             d eps       ncg     rms          rms(c)
DAV:   1    -0.656395301260E+03    0.11922E-02   -0.20835E-01   600   0.620E-01    0.254E-01
DAV:   2    -0.656406906942E+03   -0.11606E-01   -0.24917E-02   888   0.269E-01    0.201E+00
DAV:   3    -0.656397321597E+03    0.95853E-02   -0.38100E-02   864   0.256E-01    0.677E-01
DAV:   4    -0.656396276886E+03    0.10447E-02   -0.74379E-03   696   0.864E-02    0.253E-01
DAV:   5    -0.656395654650E+03    0.62224E-03   -0.92051E-04   612   0.470E-02    0.769E-02
DAV:   6    -0.656395680305E+03   -0.25655E-04   -0.33961E-04   492   0.290E-02
 176 F= -.67159734E+03 E0= -.67153525E+03  d E =-.226570E-03
 curvature:   2.28 expect dE= 0.593E-02 dE for cont linesearch  0.170E-03
 ZBRENT: bracketing found
 ZBRENT: interpolating
 opt :   0.5836  next Energy=  -671.597555 (dE=-0.442E-03)
 bond charge predicted
       N       E                     dE             d eps       ncg     rms          rms(c)
DAV:   1    -0.656396174307E+03   -0.51966E-03   -0.83100E-02   600   0.391E-01    0.180E-01
DAV:   2    -0.656405489493E+03   -0.93152E-02   -0.23375E-02   876   0.226E-01    0.186E+00
DAV:   3    -0.656397106531E+03    0.83830E-02   -0.20601E-02   780   0.207E-01    0.344E-01
DAV:   4    -0.656396599694E+03    0.50684E-03   -0.12938E-03   636   0.541E-02    0.274E-01
DAV:   5    -0.656396312465E+03    0.28723E-03   -0.24057E-04   360   0.300E-02    0.153E-01
DAV:   6    -0.656396278279E+03    0.34186E-04   -0.36693E-04   324   0.226E-02
 177 F= -.67159751E+03 E0= -.67153630E+03  d E =-.395921E-03
 curvature:  -0.86 expect dE=-0.863E-03 dE for cont linesearch -0.923E-05
 ZBRENT: interpolating
 opt :   0.5022  next Energy=  -671.597525 (dE=-0.412E-03)
 bond charge predicted
       N       E                     dE             d eps       ncg     rms          rms(c)
DAV:   1    -0.656396362991E+03   -0.50526E-04   -0.42059E-03   564   0.902E-02    0.592E-02
DAV:   2    -0.656397509553E+03   -0.11466E-02   -0.32775E-03   516   0.721E-02    0.696E-01
DAV:   3    -0.656396429623E+03    0.10799E-02   -0.30781E-03   456   0.657E-02    0.104E-01
DAV:   4    -0.656396407250E+03    0.22373E-04   -0.15067E-04   360   0.207E-02
 178 F= -.67159754E+03 E0= -.67153650E+03  d E =-.426155E-03
 curvature:  -1.49 expect dE=-0.116E-02 dE for cont linesearch -0.441E-07
 trial: gam= 0.40601 g(F)=  0.774E-03 g(S)=  0.000E+00 ort =-0.206E-04 (trialstep = 0.175E+00)
 search vector abs. value=  0.313E-02
 bond charge predicted
       N       E                     dE             d eps       ncg     rms          rms(c)
DAV:   1    -0.656396476572E+03   -0.46949E-04   -0.51331E-03   588   0.985E-02    0.662E-02
DAV:   2    -0.656398394056E+03   -0.19175E-02   -0.93331E-03   636   0.892E-02    0.903E-01
DAV:   3    -0.656396670626E+03    0.17234E-02   -0.91830E-03   528   0.925E-02    0.195E-01
DAV:   4    -0.656396502175E+03    0.16845E-03   -0.20132E-04   372   0.248E-02    0.362E-02
DAV:   5    -0.656396488031E+03    0.14144E-04   -0.40311E-05   312   0.127E-02
 179 F= -.67159762E+03 E0= -.67153608E+03  d E =-.774845E-04
 trial-energy change:   -0.000077  1 .order   -0.000114   -0.000134   -0.000093
 step:   0.5703(harm=  0.5703)  dis= 0.00170  next Energy=  -671.597757 (dE=-0.218E-03)
 reached required accuracy - stopping structural energy minimisation
