<?xml version="1.0" encoding="ISO-8859-1"?>
<modeling>
 <generator>
  <i name="program" type="string">vasp </i>
  <i name="version" type="string">5.4.1  </i>
  <i name="subversion" type="string">05Feb16 (build Apr 21 2017 13:36:42) gamma-only                       parallel </i>
  <i name="platform" type="string">IFC91_ompi </i>
  <i name="date" type="string">2020 09 15 </i>
  <i name="time" type="string">07:36:06 </i>
 </generator>
 <incar>
  <i type="string" name="SYSTEM"> basalPlane</i>
  <i type="int" name="ISTART">     0</i>
  <i type="string" name="PREC">accurate  !=accurate, max(enmax) no wra</i>
  <i type="string" name="ALGO"> Normal    !=Normal, blocked Davidson it</i>
  <i type="int" name="NSIM">     4</i>
  <i type="int" name="ISPIN">     1</i>
  <i type="int" name="ICHARG">     2</i>
  <i type="int" name="INIWAV">     1</i>
  <i type="int" name="NELM">   200</i>
  <i type="int" name="NELMDL">    -5</i>
  <i type="int" name="NELMIN">     2</i>
  <i type="int" name="IBRION">     2</i>
  <i name="EDIFF">      0.00010000</i>
  <i name="EDIFFG">     -0.02000000</i>
  <i type="int" name="NSW"> 10000</i>
  <i type="int" name="ISIF">     2</i>
  <i type="int" name="ISYM">     2</i>
  <i name="ENCUT">    400.00000000</i>
  <i name="ENAUG">    645.00000000</i>
  <i type="string" name="LREAL"> Auto     !=Auto projection operators ev</i>
  <i type="logical" name="LPLANE"> T  </i>
  <i type="int" name="ISMEAR">     0</i>
  <i name="SIGMA">      0.10000000</i>
  <i type="int" name="NWRITE">     2</i>
  <i type="logical" name="LWAVE"> F  </i>
  <i type="logical" name="LCHARG"> F  </i>
  <i type="logical" name="LORBIT"> F  </i>
  <i type="logical" name="LELF"> F  </i>
  <i type="logical" name="LSCALU"> F  </i>
  <v type="int" name="KPOINT_BSE">    -1     0     0     0</v>
  <i type="int" name="NELM">   200</i>
 </incar>
 <kpoints>
  <varray name="kpointlist" >
   <v>       0.00000000       0.00000000       0.00000000 </v>
  </varray>
  <varray name="weights" >
   <v>       1.00000000 </v>
  </varray>
 </kpoints>
 <parameters>
  <separator name="general" >
   <i type="string" name="SYSTEM">basalPlane</i>
   <i type="logical" name="LCOMPAT"> F  </i>
  </separator>
  <separator name="electronic" >
   <i type="string" name="PREC">accura</i>
   <i name="ENMAX">    400.00000000</i>
   <i name="ENAUG">    645.00000000</i>
   <i name="EDIFF">      0.00010000</i>
   <i type="int" name="IALGO">    38</i>
   <i type="int" name="IWAVPR">    11</i>
   <i type="int" name="NBANDS">   300</i>
   <i name="NELECT">    491.00000000</i>
   <i type="int" name="TURBO">     0</i>
   <i type="int" name="IRESTART">     0</i>
   <i type="int" name="NREBOOT">     0</i>
   <i type="int" name="NMIN">     0</i>
   <i name="EREF">      0.00000000</i>
   <separator name="electronic smearing" >
    <i type="int" name="ISMEAR">     0</i>
    <i name="SIGMA">      0.10000000</i>
    <i name="KSPACING">      0.50000000</i>
    <i type="logical" name="KGAMMA"> T  </i>
   </separator>
   <separator name="electronic projectors" >
    <i type="logical" name="LREAL"> T  </i>
    <v name="ROPT">     -0.00025000     -0.00025000     -0.00025000     -0.00025000     -0.00025000</v>
    <i type="int" name="LMAXPAW">  -100</i>
    <i type="int" name="LMAXMIX">     2</i>
    <i type="logical" name="NLSPLINE"> F  </i>
   </separator>
   <separator name="electronic startup" >
    <i type="int" name="ISTART">     0</i>
    <i type="int" name="ICHARG">     2</i>
    <i type="int" name="INIWAV">     1</i>
   </separator>
   <separator name="electronic spin" >
    <i type="int" name="ISPIN">     1</i>
    <i type="logical" name="LNONCOLLINEAR"> F  </i>
    <v name="MAGMOM">      1.00000000      1.00000000      1.00000000      1.00000000      1.00000000      1.00000000      1.00000000      1.00000000      1.00000000      1.00000000      1.00000000      1.00000000      1.00000000      1.00000000      1.00000000      1.00000000      1.00000000      1.00000000      1.00000000      1.00000000
      1.00000000      1.00000000      1.00000000      1.00000000      1.00000000      1.00000000      1.00000000      1.00000000      1.00000000      1.00000000      1.00000000      1.00000000      1.00000000      1.00000000      1.00000000      1.00000000      1.00000000      1.00000000      1.00000000      1.00000000
      1.00000000      1.00000000      1.00000000      1.00000000      1.00000000      1.00000000      1.00000000      1.00000000      1.00000000      1.00000000      1.00000000      1.00000000      1.00000000      1.00000000      1.00000000      1.00000000      1.00000000      1.00000000      1.00000000      1.00000000
      1.00000000      1.00000000      1.00000000      1.00000000      1.00000000      1.00000000      1.00000000      1.00000000      1.00000000      1.00000000      1.00000000      1.00000000      1.00000000      1.00000000      1.00000000      1.00000000      1.00000000      1.00000000      1.00000000      1.00000000
      1.00000000      1.00000000      1.00000000      1.00000000      1.00000000      1.00000000      1.00000000      1.00000000      1.00000000      1.00000000      1.00000000      1.00000000      1.00000000</v>
    <i name="NUPDOWN">     -1.00000000</i>
    <i type="logical" name="LSORBIT"> F  </i>
    <v name="SAXIS">      0.00000000      0.00000000      1.00000000</v>
    <i type="logical" name="LSPIRAL"> F  </i>
    <v name="QSPIRAL">      0.00000000      0.00000000      0.00000000</v>
    <i type="logical" name="LZEROZ"> F  </i>
   </separator>
   <separator name="electronic exchange-correlation" >
    <i type="logical" name="LASPH"> F  </i>
    <i type="logical" name="LMETAGGA"> F  </i>
   </separator>
   <separator name="electronic convergence" >
    <i type="int" name="NELM">   200</i>
    <i type="int" name="NELMDL">    -5</i>
    <i type="int" name="NELMIN">     2</i>
    <i name="ENINI">    400.00000000</i>
    <separator name="electronic convergence detail" >
     <i type="logical" name="LDIAG"> T  </i>
     <i type="logical" name="LSUBROT"> F  </i>
     <i name="WEIMIN">      0.00100000</i>
     <i name="EBREAK">      0.00000008</i>
     <i name="DEPER">      0.30000000</i>
     <i type="int" name="NRMM">     4</i>
     <i name="TIME">      0.40000000</i>
    </separator>
   </separator>
   <separator name="electronic mixer" >
    <i name="AMIX">      0.40000000</i>
    <i name="BMIX">      1.00000000</i>
    <i name="AMIN">      0.10000000</i>
    <i name="AMIX_MAG">      1.60000000</i>
    <i name="BMIX_MAG">      1.00000000</i>
    <separator name="electronic mixer details" >
     <i type="int" name="IMIX">     4</i>
     <i type="logical" name="MIXFIRST"> F  </i>
     <i type="int" name="MAXMIX">   -45</i>
     <i name="WC">    100.00000000</i>
     <i type="int" name="INIMIX">     1</i>
     <i type="int" name="MIXPRE">     1</i>
     <i type="int" name="MREMOVE">     5</i>
    </separator>
   </separator>
   <separator name="electronic dipolcorrection" >
    <i type="logical" name="LDIPOL"> F  </i>
    <i type="logical" name="LMONO"> F  </i>
    <i type="int" name="IDIPOL">     0</i>
    <i name="EPSILON">      1.00000000</i>
    <v name="DIPOL">   -100.00000000   -100.00000000   -100.00000000</v>
    <i name="EFIELD">      0.00000000</i>
   </separator>
  </separator>
  <separator name="grids" >
   <i type="int" name="NGX">    64</i>
   <i type="int" name="NGY">    84</i>
   <i type="int" name="NGZ">   240</i>
   <i type="int" name="NGXF">   128</i>
   <i type="int" name="NGYF">   168</i>
   <i type="int" name="NGZF">   480</i>
   <i type="logical" name="ADDGRID"> F  </i>
  </separator>
  <separator name="ionic" >
   <i type="int" name="NSW"> 10000</i>
   <i type="int" name="IBRION">     2</i>
   <i type="int" name="ISIF">     2</i>
   <i name="PSTRESS">      0.00000000</i>
   <i name="EDIFFG">     -0.02000000</i>
   <i type="int" name="NFREE">     1</i>
   <i name="POTIM">      0.50000000</i>
   <i name="SMASS">     -3.00000000</i>
   <i name="SCALEE">      1.00000000</i>
  </separator>
  <separator name="ionic md" >
   <i name="TEBEG">      0.00010000</i>
   <i name="TEEND">      0.00010000</i>
   <i type="int" name="NBLOCK">     1</i>
   <i type="int" name="KBLOCK"> 10000</i>
   <i type="int" name="NPACO">   256</i>
   <i name="APACO">     16.00000000</i>
  </separator>
  <separator name="symmetry" >
   <i type="int" name="ISYM">     2</i>
   <i name="SYMPREC">      0.00001000</i>
  </separator>
  <separator name="dos" >
   <i type="logical" name="LORBIT"> F  </i>
   <v name="RWIGS">     -1.00000000     -1.00000000     -1.00000000     -1.00000000     -1.00000000</v>
   <i type="int" name="NEDOS">   301</i>
   <i name="EMIN">     10.00000000</i>
   <i name="EMAX">    -10.00000000</i>
   <i name="EFERMI">      0.00000000</i>
  </separator>
  <separator name="writing" >
   <i type="int" name="NWRITE">     2</i>
   <i type="logical" name="LWAVE"> F  </i>
   <i type="logical" name="LCHARG"> F  </i>
   <i type="logical" name="LPARD"> F  </i>
   <i type="logical" name="LVTOT"> F  </i>
   <i type="logical" name="LVHAR"> F  </i>
   <i type="logical" name="LELF"> F  </i>
   <i type="logical" name="LOPTICS"> F  </i>
   <v name="STM">      0.00000000      0.00000000      0.00000000      0.00000000      0.00000000      0.00000000      0.00000000</v>
  </separator>
  <separator name="performance" >
   <i type="int" name="NPAR">    12</i>
   <i type="int" name="NSIM">     4</i>
   <i type="int" name="NBLK">    -1</i>
   <i type="logical" name="LPLANE"> T  </i>
   <i type="logical" name="LSCALAPACK"> T  </i>
   <i type="logical" name="LSCAAWARE"> F  </i>
   <i type="logical" name="LSCALU"> F  </i>
   <i type="logical" name="LASYNC"> F  </i>
   <i type="logical" name="LORBITALREAL"> F  </i>
  </separator>
  <separator name="miscellaneous" >
   <i type="int" name="IDIOT">     3</i>
   <i type="logical" name="LMUSIC"> F  </i>
   <v name="POMASS">     12.01100000     58.93300000      1.00000000     95.94000000     32.06600000</v>
   <v name="DARWINR">      0.00000000      0.00000000      0.00000000      0.00000000      0.00000000</v>
   <v name="DARWINV">      1.00000000      1.00000000      1.00000000      1.00000000      1.00000000</v>
   <i type="logical" name="LCORR"> T  </i>
  </separator>
  <i type="logical" name="GGA_COMPAT"> T  </i>
  <i type="logical" name="LBERRY"> F  </i>
  <i type="int" name="ICORELEVEL">     0</i>
  <i type="logical" name="LDAU"> F  </i>
  <i type="int" name="I_CONSTRAINED_M">     0</i>
  <separator name="electronic exchange-correlation" >
   <i type="string" name="GGA">--</i>
   <i type="int" name="VOSKOWN">     0</i>
   <i type="logical" name="LHFCALC"> F  </i>
   <i type="string" name="PRECFOCK"></i>
   <i type="logical" name="LSYMGRAD"> F  </i>
   <i type="logical" name="LHFONE"> F  </i>
   <i type="logical" name="LRHFCALC"> F  </i>
   <i type="logical" name="LTHOMAS"> F  </i>
   <i type="logical" name="LMODELHF"> F  </i>
   <i name="ENCUT4O">     -1.00000000</i>
   <i type="int" name="EXXOEP">     0</i>
   <i type="int" name="FOURORBIT">     0</i>
   <i name="AEXX">      0.00000000</i>
   <i name="HFALPHA">      0.00000000</i>
   <i name="MCALPHA">      0.00000000</i>
   <i name="ALDAX">      1.00000000</i>
   <i name="AGGAX">      1.00000000</i>
   <i name="ALDAC">      1.00000000</i>
   <i name="AGGAC">      1.00000000</i>
   <i type="int" name="NKREDX">     1</i>
   <i type="int" name="NKREDY">     1</i>
   <i type="int" name="NKREDZ">     1</i>
   <i type="logical" name="SHIFTRED"> F  </i>
   <i type="logical" name="ODDONLY"> F  </i>
   <i type="logical" name="EVENONLY"> F  </i>
   <i type="int" name="LMAXFOCK">     0</i>
   <i type="int" name="NMAXFOCKAE">     0</i>
   <i type="logical" name="LFOCKAEDFT"> F  </i>
   <i name="HFSCREEN">      0.00000000</i>
   <i name="HFSCREENC">      0.00000000</i>
   <i type="int" name="NBANDSGWLOW">     0</i>
  </separator>
  <separator name="vdW DFT" >
   <i type="logical" name="LUSE_VDW"> F  </i>
   <i name="Zab_VDW">     -0.84910000</i>
   <i name="PARAM1">      0.12340000</i>
   <i name="PARAM2">      1.00000000</i>
   <i name="PARAM3">      0.00000000</i>
  </separator>
  <separator name="model GW" >
   <i type="int" name="MODEL_GW">     0</i>
   <i name="MODEL_EPS0">     23.80275655</i>
   <i name="MODEL_ALPHA">      1.00000000</i>
  </separator>
  <separator name="linear response parameters" >
   <i type="logical" name="LEPSILON"> F  </i>
   <i type="logical" name="LRPA"> F  </i>
   <i type="logical" name="LNABLA"> F  </i>
   <i type="logical" name="LVEL"> F  </i>
   <i type="int" name="KINTER">     0</i>
   <i name="CSHIFT">      0.10000000</i>
   <i name="OMEGAMAX">     -1.00000000</i>
   <i name="DEG_THRESHOLD">      0.00200000</i>
  </separator>
  <separator name="orbital magnetization" >
   <i type="logical" name="NUCIND"> F  </i>
   <v name="MAGPOS">      0.00000000      0.00000000      0.00000000</v>
   <i type="logical" name="LNICSALL"> T  </i>
   <i type="logical" name="ORBITALMAG"> F  </i>
   <i type="logical" name="LMAGBLOCH"> F  </i>
   <i type="logical" name="LCHIMAG"> F  </i>
   <i type="logical" name="LGAUGE"> T  </i>
   <i type="int" name="MAGATOM">     0</i>
   <v name="MAGDIPOL">      0.00000000      0.00000000      0.00000000</v>
   <v name="AVECCONST">      0.00000000      0.00000000      0.00000000</v>
  </separator>
  <separator name="response functions" >
   <i type="logical" name="LADDER"> F  </i>
   <i type="logical" name="LFXC"> F  </i>
   <i type="logical" name="LHARTREE"> T  </i>
   <i type="int" name="IBSE">     0</i>
   <v type="int" name="KPOINT">    -1     0     0     0</v>
   <i type="logical" name="LTCTE"> F  </i>
   <i type="logical" name="LTETE"> F  </i>
   <i type="logical" name="LTRIPLET"> F  </i>
   <i type="logical" name="LFXCEPS"> F  </i>
   <i type="logical" name="LFXHEG"> F  </i>
   <i type="int" name="NATURALO">     0</i>
   <i type="logical" name="L2ORDER"> F  </i>
   <i type="logical" name="LUSEW"> F  </i>
   <i name="ENCUTGW">     -2.00000000</i>
   <i name="ENCUTGWSOFT">     -2.00000000</i>
   <i name="ENCUTLF">     -1.00000000</i>
   <i type="int" name="LMAXMP2">    -1</i>
   <i name="SCISSOR">      0.00000000</i>
   <i type="int" name="NOMEGA">     0</i>
   <i type="int" name="NOMEGAR">     0</i>
   <i type="int" name="NBANDSGW">    -1</i>
   <i type="int" name="NBANDSO">    -1</i>
   <i type="int" name="NBANDSV">    -1</i>
   <i type="int" name="NELM">   200</i>
   <i type="int" name="NELMHF">     1</i>
   <i type="int" name="DIM">     3</i>
   <i type="int" name="ANTIRES">     0</i>
   <i name="OMEGAMAX">    -30.00000000</i>
   <i name="OMEGAMIN">    -30.00000000</i>
   <i name="OMEGATL">   -200.00000000</i>
   <i type="int" name="OMEGAGRID">     0</i>
   <i name="CSHIFT">     -0.10000000</i>
   <i type="logical" name="SELFENERGY"> F  </i>
   <i type="logical" name="LSPECTRAL"> F  </i>
   <i type="logical" name="LSPECTRALGW"> F  </i>
   <i type="logical" name="LSINGLES"> F  </i>
   <i type="logical" name="LFERMIGW"> F  </i>
   <i type="logical" name="ODDONLYGW"> F  </i>
   <i type="logical" name="EVENONLYGW"> F  </i>
   <i type="int" name="NKREDLFX">     1</i>
   <i type="int" name="NKREDLFY">     1</i>
   <i type="int" name="NKREDLFZ">     1</i>
   <i type="int" name="MAXMEM">  1800</i>
   <i type="int" name="TELESCOPE">     0</i>
   <i type="int" name="TAUPAR">     1</i>
   <i type="int" name="OMEGAPAR">    -1</i>
   <i name="LAMBDA">      1.00000000</i>
  </separator>
  <separator name="External order field" >
   <i name="OFIELD_KAPPA">      0.00000000</i>
   <v name="OFIELD_K">      0.00000000      0.00000000      0.00000000</v>
   <i name="OFIELD_Q6_NEAR">      0.00000000</i>
   <i name="OFIELD_Q6_FAR">      0.00000000</i>
   <i name="OFIELD_A">      0.00000000</i>
  </separator>
 </parameters>
 <atominfo>
  <atoms>      93 </atoms>
  <types>       5 </types>
  <array name="atoms" >
   <dimension dim="1">ion</dimension>
   <field type="string">element</field>
   <field type="int">atomtype</field>
   <set>
    <rc><c>C </c><c>   1</c></rc>
    <rc><c>C </c><c>   1</c></rc>
    <rc><c>C </c><c>   1</c></rc>
    <rc><c>C </c><c>   1</c></rc>
    <rc><c>C </c><c>   1</c></rc>
    <rc><c>C </c><c>   1</c></rc>
    <rc><c>C </c><c>   1</c></rc>
    <rc><c>C </c><c>   1</c></rc>
    <rc><c>C </c><c>   1</c></rc>
    <rc><c>C </c><c>   1</c></rc>
    <rc><c>Co</c><c>   2</c></rc>
    <rc><c>H </c><c>   3</c></rc>
    <rc><c>H </c><c>   3</c></rc>
    <rc><c>H </c><c>   3</c></rc>
    <rc><c>H </c><c>   3</c></rc>
    <rc><c>H </c><c>   3</c></rc>
    <rc><c>H </c><c>   3</c></rc>
    <rc><c>H </c><c>   3</c></rc>
    <rc><c>H </c><c>   3</c></rc>
    <rc><c>H </c><c>   3</c></rc>
    <rc><c>H </c><c>   3</c></rc>
    <rc><c>Mo</c><c>   4</c></rc>
    <rc><c>Mo</c><c>   4</c></rc>
    <rc><c>Mo</c><c>   4</c></rc>
    <rc><c>Mo</c><c>   4</c></rc>
    <rc><c>Mo</c><c>   4</c></rc>
    <rc><c>Mo</c><c>   4</c></rc>
    <rc><c>Mo</c><c>   4</c></rc>
    <rc><c>Mo</c><c>   4</c></rc>
    <rc><c>Mo</c><c>   4</c></rc>
    <rc><c>Mo</c><c>   4</c></rc>
    <rc><c>Mo</c><c>   4</c></rc>
    <rc><c>Mo</c><c>   4</c></rc>
    <rc><c>Mo</c><c>   4</c></rc>
    <rc><c>Mo</c><c>   4</c></rc>
    <rc><c>Mo</c><c>   4</c></rc>
    <rc><c>Mo</c><c>   4</c></rc>
    <rc><c>Mo</c><c>   4</c></rc>
    <rc><c>Mo</c><c>   4</c></rc>
    <rc><c>Mo</c><c>   4</c></rc>
    <rc><c>Mo</c><c>   4</c></rc>
    <rc><c>Mo</c><c>   4</c></rc>
    <rc><c>Mo</c><c>   4</c></rc>
    <rc><c>Mo</c><c>   4</c></rc>
    <rc><c>Mo</c><c>   4</c></rc>
    <rc><c>S </c><c>   5</c></rc>
    <rc><c>S </c><c>   5</c></rc>
    <rc><c>S </c><c>   5</c></rc>
    <rc><c>S </c><c>   5</c></rc>
    <rc><c>S </c><c>   5</c></rc>
    <rc><c>S </c><c>   5</c></rc>
    <rc><c>S </c><c>   5</c></rc>
    <rc><c>S </c><c>   5</c></rc>
    <rc><c>S </c><c>   5</c></rc>
    <rc><c>S </c><c>   5</c></rc>
    <rc><c>S </c><c>   5</c></rc>
    <rc><c>S </c><c>   5</c></rc>
    <rc><c>S </c><c>   5</c></rc>
    <rc><c>S </c><c>   5</c></rc>
    <rc><c>S </c><c>   5</c></rc>
    <rc><c>S </c><c>   5</c></rc>
    <rc><c>S </c><c>   5</c></rc>
    <rc><c>S </c><c>   5</c></rc>
    <rc><c>S </c><c>   5</c></rc>
    <rc><c>S </c><c>   5</c></rc>
    <rc><c>S </c><c>   5</c></rc>
    <rc><c>S </c><c>   5</c></rc>
    <rc><c>S </c><c>   5</c></rc>
    <rc><c>S </c><c>   5</c></rc>
    <rc><c>S </c><c>   5</c></rc>
    <rc><c>S </c><c>   5</c></rc>
    <rc><c>S </c><c>   5</c></rc>
    <rc><c>S </c><c>   5</c></rc>
    <rc><c>S </c><c>   5</c></rc>
    <rc><c>S </c><c>   5</c></rc>
    <rc><c>S </c><c>   5</c></rc>
    <rc><c>S </c><c>   5</c></rc>
    <rc><c>S </c><c>   5</c></rc>
    <rc><c>S </c><c>   5</c></rc>
    <rc><c>S </c><c>   5</c></rc>
    <rc><c>S </c><c>   5</c></rc>
    <rc><c>S </c><c>   5</c></rc>
    <rc><c>S </c><c>   5</c></rc>
    <rc><c>S </c><c>   5</c></rc>
    <rc><c>S </c><c>   5</c></rc>
    <rc><c>S </c><c>   5</c></rc>
    <rc><c>S </c><c>   5</c></rc>
    <rc><c>S </c><c>   5</c></rc>
    <rc><c>S </c><c>   5</c></rc>
    <rc><c>S </c><c>   5</c></rc>
    <rc><c>S </c><c>   5</c></rc>
    <rc><c>S </c><c>   5</c></rc>
    <rc><c>S </c><c>   5</c></rc>
   </set>
  </array>
  <array name="atomtypes" >
   <dimension dim="1">type</dimension>
   <field type="int">atomspertype</field>
   <field type="string">element</field>
   <field>mass</field>
   <field>valence</field>
   <field type="string">pseudopotential</field>
   <set>
    <rc><c>  10</c><c>C </c><c>     12.01100000</c><c>      4.00000000</c><c>  PAW_PBE C 08Apr2002                   </c></rc>
    <rc><c>   1</c><c>Co</c><c>     58.93300000</c><c>      9.00000000</c><c>  PAW_PBE Co 02Aug2007                  </c></rc>
    <rc><c>  10</c><c>H </c><c>      1.00000000</c><c>      1.00000000</c><c>  PAW_PBE H 15Jun2001                   </c></rc>
    <rc><c>  24</c><c>Mo</c><c>     95.94000000</c><c>      6.00000000</c><c>  PAW_PBE Mo 08Apr2002                  </c></rc>
    <rc><c>  48</c><c>S </c><c>     32.06600000</c><c>      6.00000000</c><c>  PAW_PBE S 06Sep2000                   </c></rc>
   </set>
  </array>
 </atominfo>
 <structure name="initialpos" >
  <crystal>
   <varray name="basis" >
    <v>       9.57094646       0.00000000       0.00000000 </v>
    <v>      -6.38062803      11.05157872       0.00000000 </v>
    <v>       0.00000000       0.00000000      34.88026251 </v>
   </varray>
   <i name="volume">   3689.42726549 </i>
   <varray name="rec_basis" >
    <v>       0.10448287       0.06032318       0.00000000 </v>
    <v>       0.00000000       0.09048481       0.00000000 </v>
    <v>       0.00000000       0.00000000       0.02866951 </v>
   </varray>
  </crystal>
  <varray name="positions" >
   <v>       0.40486637       0.64979643       0.07934719 </v>
   <v>       0.27928470       0.61703034       0.05166975 </v>
   <v>       0.42324072       0.75278882       0.10008694 </v>
   <v>       0.30858297       0.78340642       0.08530620 </v>
   <v>       0.21982000       0.69964077       0.05535375 </v>
   <v>       0.59329146       0.79960546       0.99269741 </v>
   <v>       0.54305677       0.95274244       0.01039488 </v>
   <v>       0.49445062       0.85217449       0.98501813 </v>
   <v>       0.67161581       0.96208314       0.03385291 </v>
   <v>       0.70271212       0.86747569       0.02287551 </v>
   <v>       0.46473225       0.79376516       0.04178601 </v>
   <v>       0.12618095       0.70051236       0.03793449 </v>
   <v>       0.39739810       0.81983147       0.96409264 </v>
   <v>       0.73316529       0.02825605       0.05642675 </v>
   <v>       0.48900754       0.00995469       0.01215770 </v>
   <v>       0.58448695       0.72043160       0.97866420 </v>
   <v>       0.23855627       0.54385113       0.03094525 </v>
   <v>       0.47605829       0.60575558       0.08330890 </v>
   <v>       0.51069867       0.80048158       0.12267584 </v>
   <v>       0.29383938       0.85869280       0.09453792 </v>
   <v>       0.79160769       0.84892113       0.03571548 </v>
   <v>       0.55555566       0.08333325       0.25000928 </v>
   <v>       0.55555566       0.33333325       0.25000928 </v>
   <v>       0.44444432       0.41666674       0.74999076 </v>
   <v>       0.55555566       0.58333325       0.25000928 </v>
   <v>       0.44444432       0.66666674       0.74999076 </v>
   <v>       0.55555566       0.83333325       0.25000928 </v>
   <v>       0.44444432       0.91666674       0.74999076 </v>
   <v>       0.88888899       0.33333325       0.25000928 </v>
   <v>       0.77777765       0.16666674       0.74999076 </v>
   <v>       0.77777765       0.41666674       0.74999076 </v>
   <v>       0.88888899       0.58333325       0.25000928 </v>
   <v>       0.77777765       0.66666674       0.74999076 </v>
   <v>       0.88888899       0.83333325       0.25000928 </v>
   <v>       0.77777765       0.91666674       0.74999076 </v>
   <v>       0.11111099       0.91666674       0.74999076 </v>
   <v>       0.88888899       0.08333325       0.25000928 </v>
   <v>       0.22222233       0.83333325       0.25000928 </v>
   <v>       0.44444432       0.16666674       0.74999076 </v>
   <v>       0.22222233       0.58333325       0.25000928 </v>
   <v>       0.11111099       0.41666674       0.74999076 </v>
   <v>       0.22222233       0.33333325       0.25000928 </v>
   <v>       0.22222233       0.08333325       0.25000928 </v>
   <v>       0.11111099       0.16666674       0.74999076 </v>
   <v>       0.11111099       0.66666674       0.74999076 </v>
   <v>       0.77777765       0.16666674       0.29487388 </v>
   <v>       0.88888899       0.08333325       0.79485533 </v>
   <v>       0.77777765       0.16666674       0.20514467 </v>
   <v>       0.88888899       0.08333325       0.70512613 </v>
   <v>       0.22222233       0.08333325       0.70512613 </v>
   <v>       0.11111099       0.16666674       0.20514467 </v>
   <v>       0.77777765       0.41666674       0.29487388 </v>
   <v>       0.88888899       0.33333325       0.79485533 </v>
   <v>       0.11111099       0.66666674       0.20514467 </v>
   <v>       0.55555566       0.83333325       0.70512613 </v>
   <v>       0.88888899       0.33333325       0.70512613 </v>
   <v>       0.22222233       0.08333325       0.79485533 </v>
   <v>       0.11111099       0.16666674       0.29487388 </v>
   <v>       0.77777765       0.66666674       0.29487388 </v>
   <v>       0.88888899       0.58333325       0.79485533 </v>
   <v>       0.77777765       0.66666674       0.20514467 </v>
   <v>       0.88888899       0.58333325       0.70512613 </v>
   <v>       0.77777765       0.91666674       0.29487388 </v>
   <v>       0.88888899       0.83333325       0.79485533 </v>
   <v>       0.77777765       0.41666674       0.20514467 </v>
   <v>       0.44444432       0.91666674       0.20514467 </v>
   <v>       0.44444432       0.91666674       0.29487388 </v>
   <v>       0.22222233       0.58333325       0.70512613 </v>
   <v>       0.22222233       0.58333325       0.79485533 </v>
   <v>       0.11111099       0.91666674       0.29487388 </v>
   <v>       0.22222233       0.83333325       0.79485533 </v>
   <v>       0.11111099       0.91666674       0.20514467 </v>
   <v>       0.22222233       0.83333325       0.70512613 </v>
   <v>       0.11111099       0.66666674       0.29487388 </v>
   <v>       0.77777765       0.91666674       0.20514467 </v>
   <v>       0.44444432       0.16666674       0.29487388 </v>
   <v>       0.55555566       0.08333325       0.79485533 </v>
   <v>       0.44444432       0.16666674       0.20514467 </v>
   <v>       0.55555566       0.08333325       0.70512613 </v>
   <v>       0.44444432       0.41666674       0.29487388 </v>
   <v>       0.55555566       0.33333325       0.79485533 </v>
   <v>       0.44444432       0.41666674       0.20514467 </v>
   <v>       0.55555566       0.33333325       0.70512613 </v>
   <v>       0.22222233       0.33333325       0.70512613 </v>
   <v>       0.11111099       0.41666674       0.20514467 </v>
   <v>       0.44444432       0.66666674       0.29487388 </v>
   <v>       0.55555566       0.58333325       0.79485533 </v>
   <v>       0.44444432       0.66666674       0.20514467 </v>
   <v>       0.55555566       0.58333325       0.70512613 </v>
   <v>       0.22222233       0.33333325       0.79485533 </v>
   <v>       0.11111099       0.41666674       0.29487388 </v>
   <v>       0.55555566       0.83333325       0.79485533 </v>
   <v>       0.88888899       0.83333325       0.70512613 </v>
  </varray>
 </structure>
 <calculation>
  <scstep>
   <time name="dav">    5.29    5.30</time>
   <time name="total">    5.69    5.71</time>
   <energy>
    <i name="alphaZ">    562.94535741 </i>
    <i name="ewald">  38774.71830691 </i>
    <i name="hartreedc"> -58190.94479633 </i>
    <i name="XCdc">   -700.99226276 </i>
    <i name="pawpsdc">  18640.80374730 </i>
    <i name="pawaedc"> -16838.49265242 </i>
    <i name="eentropy">     -0.11604434 </i>
    <i name="bandstr">   1226.21811291 </i>
    <i name="atom">  20917.06298232 </i>
    <i name="e_fr_energy">   4391.20275101 </i>
    <i name="e_wo_entrp">   4391.31879535 </i>
    <i name="e_0_energy">   4391.26077318 </i>
   </energy>
  </scstep>
  <scstep>
   <time name="dav">    8.36    8.38</time>
   <time name="total">    8.36    8.38</time>
   <energy>
    <i name="e_fr_energy">     -5.26766971 </i>
    <i name="e_wo_entrp">     -5.19726928 </i>
    <i name="e_0_energy">     -5.23246950 </i>
   </energy>
  </scstep>
  <scstep>
   <time name="dav">    6.73    6.75</time>
   <time name="total">    6.73    6.76</time>
   <energy>
    <i name="e_fr_energy">   -677.13210357 </i>
    <i name="e_wo_entrp">   -677.04225229 </i>
    <i name="e_0_energy">   -677.08717793 </i>
   </energy>
  </scstep>
  <scstep>
   <time name="dav">    7.25    7.27</time>
   <time name="total">    7.25    7.31</time>
   <energy>
    <i name="e_fr_energy">   -709.51977383 </i>
    <i name="e_wo_entrp">   -709.42970286 </i>
    <i name="e_0_energy">   -709.47473834 </i>
   </energy>
  </scstep>
  <scstep>
   <time name="dav">    8.03    8.06</time>
   <time name="total">    8.62    8.65</time>
   <energy>
    <i name="e_fr_energy">   -710.80765225 </i>
    <i name="e_wo_entrp">   -710.71207724 </i>
    <i name="e_0_energy">   -710.75986475 </i>
   </energy>
  </scstep>
  <scstep>
   <time name="dav">    7.06    7.08</time>
   <time name="total">    8.01    8.03</time>
   <energy>
    <i name="e_fr_energy">   -691.22160429 </i>
    <i name="e_wo_entrp">   -691.07959692 </i>
    <i name="e_0_energy">   -691.15060061 </i>
   </energy>
  </scstep>
  <scstep>
   <time name="dav">    7.39    7.45</time>
   <time name="total">    8.39    8.46</time>
   <energy>
    <i name="e_fr_energy">   -712.30608747 </i>
    <i name="e_wo_entrp">   -712.10936315 </i>
    <i name="e_0_energy">   -712.20772531 </i>
   </energy>
  </scstep>
  <scstep>
   <time name="dav">    7.43    7.47</time>
   <time name="total">    8.40    8.45</time>
   <energy>
    <i name="e_fr_energy">   -732.24264896 </i>
    <i name="e_wo_entrp">   -731.81498524 </i>
    <i name="e_0_energy">   -732.02881710 </i>
   </energy>
  </scstep>
  <scstep>
   <time name="dav">    7.15    7.17</time>
   <time name="total">    8.12    8.15</time>
   <energy>
    <i name="e_fr_energy">   -784.92349074 </i>
    <i name="e_wo_entrp">   -784.57294401 </i>
    <i name="e_0_energy">   -784.74821738 </i>
   </energy>
  </scstep>
  <scstep>
   <time name="dav">    7.58    7.60</time>
   <time name="total">    8.52    8.55</time>
   <energy>
    <i name="e_fr_energy">   -686.64145995 </i>
    <i name="e_wo_entrp">   -686.58504099 </i>
    <i name="e_0_energy">   -686.61325047 </i>
   </energy>
  </scstep>
  <scstep>
   <time name="dav">    7.61    7.63</time>
   <time name="total">    8.55    8.59</time>
   <energy>
    <i name="e_fr_energy">   -663.73771412 </i>
    <i name="e_wo_entrp">   -663.62410298 </i>
    <i name="e_0_energy">   -663.68090855 </i>
   </energy>
  </scstep>
  <scstep>
   <time name="dav">    7.58    7.61</time>
   <time name="total">    8.52    8.56</time>
   <energy>
    <i name="e_fr_energy">   -659.08894066 </i>
    <i name="e_wo_entrp">   -658.99949354 </i>
    <i name="e_0_energy">   -659.04421710 </i>
   </energy>
  </scstep>
  <scstep>
   <time name="dav">    7.50    7.54</time>
   <time name="total">    8.45    8.50</time>
   <energy>
    <i name="e_fr_energy">   -659.34650458 </i>
    <i name="e_wo_entrp">   -659.25684830 </i>
    <i name="e_0_energy">   -659.30167644 </i>
   </energy>
  </scstep>
  <scstep>
   <time name="dav">    7.79    7.84</time>
   <time name="total">    8.75    8.81</time>
   <energy>
    <i name="e_fr_energy">   -659.58087712 </i>
    <i name="e_wo_entrp">   -659.49162870 </i>
    <i name="e_0_energy">   -659.53625291 </i>
   </energy>
  </scstep>
  <scstep>
   <time name="dav">    7.38    7.41</time>
   <time name="total">    8.34    8.37</time>
   <energy>
    <i name="e_fr_energy">   -659.57769242 </i>
    <i name="e_wo_entrp">   -659.48829268 </i>
    <i name="e_0_energy">   -659.53299255 </i>
   </energy>
  </scstep>
  <scstep>
   <time name="dav">    7.25    7.28</time>
   <time name="total">    8.21    8.24</time>
   <energy>
    <i name="e_fr_energy">   -659.70091328 </i>
    <i name="e_wo_entrp">   -659.53007391 </i>
    <i name="e_0_energy">   -659.61549359 </i>
   </energy>
  </scstep>
  <scstep>
   <time name="dav">    7.12    7.14</time>
   <time name="total">    8.06    8.25</time>
   <energy>
    <i name="e_fr_energy">   -659.96945368 </i>
    <i name="e_wo_entrp">   -659.82133594 </i>
    <i name="e_0_energy">   -659.89539481 </i>
   </energy>
  </scstep>
  <scstep>
   <time name="dav">    7.67    7.69</time>
   <time name="total">    8.62    8.65</time>
   <energy>
    <i name="e_fr_energy">   -659.14756363 </i>
    <i name="e_wo_entrp">   -658.98827089 </i>
    <i name="e_0_energy">   -659.06791726 </i>
   </energy>
  </scstep>
  <scstep>
   <time name="dav">    7.52    8.03</time>
   <time name="total">    8.47    8.99</time>
   <energy>
    <i name="e_fr_energy">   -658.30248085 </i>
    <i name="e_wo_entrp">   -658.21481788 </i>
    <i name="e_0_energy">   -658.25864937 </i>
   </energy>
  </scstep>
  <scstep>
   <time name="dav">    7.74    7.76</time>
   <time name="total">    8.73    8.76</time>
   <energy>
    <i name="e_fr_energy">   -659.05647442 </i>
    <i name="e_wo_entrp">   -658.90057927 </i>
    <i name="e_0_energy">   -658.97852684 </i>
   </energy>
  </scstep>
  <scstep>
   <time name="dav">    7.57    7.62</time>
   <time name="total">    8.54    8.64</time>
   <energy>
    <i name="e_fr_energy">   -657.59500688 </i>
    <i name="e_wo_entrp">   -657.50108562 </i>
    <i name="e_0_energy">   -657.54804625 </i>
   </energy>
  </scstep>
  <scstep>
   <time name="dav">    7.43    7.47</time>
   <time name="total">    8.40    8.47</time>
   <energy>
    <i name="e_fr_energy">   -657.18963740 </i>
    <i name="e_wo_entrp">   -657.09324991 </i>
    <i name="e_0_energy">   -657.14144366 </i>
   </energy>
  </scstep>
  <scstep>
   <time name="dav">    7.97    7.99</time>
   <time name="total">    8.96    8.99</time>
   <energy>
    <i name="e_fr_energy">   -657.13213873 </i>
    <i name="e_wo_entrp">   -657.03718303 </i>
    <i name="e_0_energy">   -657.08466088 </i>
   </energy>
  </scstep>
  <scstep>
   <time name="dav">    7.78    7.80</time>
   <time name="total">    8.78    8.81</time>
   <energy>
    <i name="e_fr_energy">   -656.96119203 </i>
    <i name="e_wo_entrp">   -656.86554556 </i>
    <i name="e_0_energy">   -656.91336880 </i>
   </energy>
  </scstep>
  <scstep>
   <time name="dav">    7.37    7.39</time>
   <time name="total">    8.37    8.40</time>
   <energy>
    <i name="e_fr_energy">   -656.97279276 </i>
    <i name="e_wo_entrp">   -656.87926111 </i>
    <i name="e_0_energy">   -656.92602693 </i>
   </energy>
  </scstep>
  <scstep>
   <time name="dav">    6.59    6.61</time>
   <time name="total">    7.59    7.62</time>
   <energy>
    <i name="e_fr_energy">   -656.97499018 </i>
    <i name="e_wo_entrp">   -656.88108748 </i>
    <i name="e_0_energy">   -656.92803883 </i>
   </energy>
  </scstep>
  <scstep>
   <time name="dav">    7.50    7.53</time>
   <time name="total">    8.50    8.53</time>
   <energy>
    <i name="e_fr_energy">   -656.91160695 </i>
    <i name="e_wo_entrp">   -656.81310021 </i>
    <i name="e_0_energy">   -656.86235358 </i>
   </energy>
  </scstep>
  <scstep>
   <time name="dav">    6.93    7.12</time>
   <time name="total">    7.87    8.13</time>
   <energy>
    <i name="e_fr_energy">   -656.94892016 </i>
    <i name="e_wo_entrp">   -656.85470929 </i>
    <i name="e_0_energy">   -656.90181472 </i>
   </energy>
  </scstep>
  <scstep>
   <time name="dav">    7.22    7.33</time>
   <time name="total">    8.19    8.36</time>
   <energy>
    <i name="e_fr_energy">   -656.94608272 </i>
    <i name="e_wo_entrp">   -656.85138435 </i>
    <i name="e_0_energy">   -656.89873354 </i>
   </energy>
  </scstep>
  <scstep>
   <time name="dav">    7.21    7.23</time>
   <time name="total">    8.22    8.25</time>
   <energy>
    <i name="e_fr_energy">   -656.98645521 </i>
    <i name="e_wo_entrp">   -656.89018042 </i>
    <i name="e_0_energy">   -656.93831781 </i>
   </energy>
  </scstep>
  <scstep>
   <time name="dav">    6.78    6.80</time>
   <time name="total">    7.79    7.82</time>
   <energy>
    <i name="e_fr_energy">   -657.05470970 </i>
    <i name="e_wo_entrp">   -656.94943558 </i>
    <i name="e_0_energy">   -657.00207264 </i>
   </energy>
  </scstep>
  <scstep>
   <time name="dav">    7.93    7.95</time>
   <time name="total">    8.95    8.98</time>
   <energy>
    <i name="e_fr_energy">   -657.13828543 </i>
    <i name="e_wo_entrp">   -657.01965143 </i>
    <i name="e_0_energy">   -657.07896843 </i>
   </energy>
  </scstep>
  <scstep>
   <time name="dav">    7.16    7.19</time>
   <time name="total">    8.17    8.20</time>
   <energy>
    <i name="e_fr_energy">   -657.08280677 </i>
    <i name="e_wo_entrp">   -656.97570118 </i>
    <i name="e_0_energy">   -657.02925398 </i>
   </energy>
  </scstep>
  <scstep>
   <time name="dav">    7.55    7.58</time>
   <time name="total">    8.57    8.60</time>
   <energy>
    <i name="e_fr_energy">   -656.95957660 </i>
    <i name="e_wo_entrp">   -656.84817069 </i>
    <i name="e_0_energy">   -656.90387365 </i>
   </energy>
  </scstep>
  <scstep>
   <time name="dav">    6.99    7.05</time>
   <time name="total">    7.98    8.08</time>
   <energy>
    <i name="e_fr_energy">   -656.87373989 </i>
    <i name="e_wo_entrp">   -656.75596629 </i>
    <i name="e_0_energy">   -656.81485309 </i>
   </energy>
  </scstep>
  <scstep>
   <time name="dav">    7.55    7.58</time>
   <time name="total">    8.58    8.62</time>
   <energy>
    <i name="e_fr_energy">   -656.76811751 </i>
    <i name="e_wo_entrp">   -656.64924445 </i>
    <i name="e_0_energy">   -656.70868098 </i>
   </energy>
  </scstep>
  <scstep>
   <time name="dav">    7.35    7.38</time>
   <time name="total">    8.37    8.41</time>
   <energy>
    <i name="e_fr_energy">   -656.64824974 </i>
    <i name="e_wo_entrp">   -656.53056319 </i>
    <i name="e_0_energy">   -656.58940647 </i>
   </energy>
  </scstep>
  <scstep>
   <time name="dav">    7.70    7.73</time>
   <time name="total">    8.72    8.75</time>
   <energy>
    <i name="e_fr_energy">   -656.57391274 </i>
    <i name="e_wo_entrp">   -656.45586149 </i>
    <i name="e_0_energy">   -656.51488712 </i>
   </energy>
  </scstep>
  <scstep>
   <time name="dav">    7.29    7.32</time>
   <time name="total">    8.31    8.35</time>
   <energy>
    <i name="e_fr_energy">   -656.49778497 </i>
    <i name="e_wo_entrp">   -656.38319930 </i>
    <i name="e_0_energy">   -656.44049214 </i>
   </energy>
  </scstep>
  <scstep>
   <time name="dav">    7.52    7.55</time>
   <time name="total">    8.54    8.58</time>
   <energy>
    <i name="e_fr_energy">   -656.39352111 </i>
    <i name="e_wo_entrp">   -656.27665658 </i>
    <i name="e_0_energy">   -656.33508884 </i>
   </energy>
  </scstep>
  <scstep>
   <time name="dav">    6.91    6.93</time>
   <time name="total">    7.92    7.95</time>
   <energy>
    <i name="e_fr_energy">   -656.39024333 </i>
    <i name="e_wo_entrp">   -656.27259474 </i>
    <i name="e_0_energy">   -656.33141904 </i>
   </energy>
  </scstep>
  <scstep>
   <time name="dav">    6.33    6.35</time>
   <time name="total">    7.35    7.38</time>
   <energy>
    <i name="e_fr_energy">   -656.38928732 </i>
    <i name="e_wo_entrp">   -656.26815859 </i>
    <i name="e_0_energy">   -656.32872295 </i>
   </energy>
  </scstep>
  <scstep>
   <time name="dav">    6.73    6.82</time>
   <time name="total">    7.74    7.84</time>
   <energy>
    <i name="e_fr_energy">   -656.38886447 </i>
    <i name="e_wo_entrp">   -656.27109466 </i>
    <i name="e_0_energy">   -656.32997957 </i>
   </energy>
  </scstep>
  <scstep>
   <time name="dav">    7.16    7.18</time>
   <time name="total">    8.17    8.21</time>
   <energy>
    <i name="e_fr_energy">   -656.38584176 </i>
    <i name="e_wo_entrp">   -656.26420875 </i>
    <i name="e_0_energy">   -656.32502525 </i>
   </energy>
  </scstep>
  <scstep>
   <time name="dav">    7.53    7.56</time>
   <time name="total">    8.54    8.58</time>
   <energy>
    <i name="e_fr_energy">   -656.38931170 </i>
    <i name="e_wo_entrp">   -656.27894961 </i>
    <i name="e_0_energy">   -656.33413065 </i>
   </energy>
  </scstep>
  <scstep>
   <time name="dav">    7.52    7.55</time>
   <time name="total">    8.54    8.57</time>
   <energy>
    <i name="e_fr_energy">   -656.38642467 </i>
    <i name="e_wo_entrp">   -656.25955115 </i>
    <i name="e_0_energy">   -656.32298791 </i>
   </energy>
  </scstep>
  <scstep>
   <time name="dav">    7.36    7.39</time>
   <time name="total">    8.37    8.49</time>
   <energy>
    <i name="e_fr_energy">   -656.39573630 </i>
    <i name="e_wo_entrp">   -656.29285726 </i>
    <i name="e_0_energy">   -656.34429678 </i>
   </energy>
  </scstep>
  <scstep>
   <time name="dav">    7.08    7.10</time>
   <time name="total">    8.10    8.13</time>
   <energy>
    <i name="e_fr_energy">   -656.38729143 </i>
    <i name="e_wo_entrp">   -656.26963658 </i>
    <i name="e_0_energy">   -656.32846401 </i>
   </energy>
  </scstep>
  <scstep>
   <time name="dav">    6.19    6.21</time>
   <time name="total">    7.22    7.24</time>
   <energy>
    <i name="e_fr_energy">   -656.39156331 </i>
    <i name="e_wo_entrp">   -656.28291983 </i>
    <i name="e_0_energy">   -656.33724157 </i>
   </energy>
  </scstep>
  <scstep>
   <time name="dav">    5.90    5.95</time>
   <time name="total">    6.94    6.99</time>
   <energy>
    <i name="e_fr_energy">   -656.38794872 </i>
    <i name="e_wo_entrp">   -656.26997375 </i>
    <i name="e_0_energy">   -656.32896124 </i>
   </energy>
  </scstep>
  <scstep>
   <time name="dav">    7.65    7.68</time>
   <time name="total">    8.65    8.71</time>
   <energy>
    <i name="e_fr_energy">   -656.39243614 </i>
    <i name="e_wo_entrp">   -656.28368708 </i>
    <i name="e_0_energy">   -656.33806161 </i>
   </energy>
  </scstep>
  <scstep>
   <time name="dav">    6.67    6.71</time>
   <time name="total">    7.69    7.74</time>
   <energy>
    <i name="e_fr_energy">   -656.38812844 </i>
    <i name="e_wo_entrp">   -656.26371413 </i>
    <i name="e_0_energy">   -656.32592128 </i>
   </energy>
  </scstep>
  <scstep>
   <time name="dav">    5.83    5.86</time>
   <time name="total">    6.22    6.26</time>
   <energy>
    <i name="alphaZ">    562.94535741 </i>
    <i name="ewald">  38774.71830691 </i>
    <i name="hartreedc"> -58703.58099981 </i>
    <i name="XCdc">   -664.73873438 </i>
    <i name="pawpsdc">  43234.72565039 </i>
    <i name="pawaedc"> -41474.93224628 </i>
    <i name="eentropy">     -0.12538196 </i>
    <i name="bandstr">  -3302.46303119 </i>
    <i name="atom">  20917.06298232 </i>
    <i name="e_fr_energy">   -656.38809659 </i>
    <i name="e_wo_entrp">   -656.26271463 </i>
    <i name="e_0_energy">   -656.32540561 </i>
   </energy>
  </scstep>
  <structure>
   <crystal>
    <varray name="basis" >
     <v>       9.57094646       0.00000000       0.00000000 </v>
     <v>      -6.38062803      11.05157872       0.00000000 </v>
     <v>       0.00000000       0.00000000      34.88026251 </v>
    </varray>
    <i name="volume">   3689.42726549 </i>
    <varray name="rec_basis" >
     <v>       0.10448287       0.06032318       0.00000000 </v>
     <v>       0.00000000       0.09048481       0.00000000 </v>
     <v>       0.00000000       0.00000000       0.02866951 </v>
    </varray>
   </crystal>
   <varray name="positions" >
    <v>       0.40486637       0.64979643       0.07934719 </v>
    <v>       0.27928470       0.61703034       0.05166975 </v>
    <v>       0.42324072       0.75278882       0.10008694 </v>
    <v>       0.30858297       0.78340642       0.08530620 </v>
    <v>       0.21982000       0.69964077       0.05535375 </v>
    <v>       0.59329146       0.79960546       0.99269741 </v>
    <v>       0.54305677       0.95274244       0.01039488 </v>
    <v>       0.49445062       0.85217449       0.98501813 </v>
    <v>       0.67161581       0.96208314       0.03385291 </v>
    <v>       0.70271212       0.86747569       0.02287551 </v>
    <v>       0.46473225       0.79376516       0.04178601 </v>
    <v>       0.12618095       0.70051236       0.03793449 </v>
    <v>       0.39739810       0.81983147       0.96409264 </v>
    <v>       0.73316529       0.02825605       0.05642675 </v>
    <v>       0.48900754       0.00995469       0.01215770 </v>
    <v>       0.58448695       0.72043160       0.97866420 </v>
    <v>       0.23855627       0.54385113       0.03094525 </v>
    <v>       0.47605829       0.60575558       0.08330890 </v>
    <v>       0.51069867       0.80048158       0.12267584 </v>
    <v>       0.29383938       0.85869280       0.09453792 </v>
    <v>       0.79160769       0.84892113       0.03571548 </v>
    <v>       0.55555566       0.08333325       0.25000928 </v>
    <v>       0.55555566       0.33333325       0.25000928 </v>
    <v>       0.44444432       0.41666674       0.74999076 </v>
    <v>       0.55555566       0.58333325       0.25000928 </v>
    <v>       0.44444432       0.66666674       0.74999076 </v>
    <v>       0.55555566       0.83333325       0.25000928 </v>
    <v>       0.44444432       0.91666674       0.74999076 </v>
    <v>       0.88888899       0.33333325       0.25000928 </v>
    <v>       0.77777765       0.16666674       0.74999076 </v>
    <v>       0.77777765       0.41666674       0.74999076 </v>
    <v>       0.88888899       0.58333325       0.25000928 </v>
    <v>       0.77777765       0.66666674       0.74999076 </v>
    <v>       0.88888899       0.83333325       0.25000928 </v>
    <v>       0.77777765       0.91666674       0.74999076 </v>
    <v>       0.11111099       0.91666674       0.74999076 </v>
    <v>       0.88888899       0.08333325       0.25000928 </v>
    <v>       0.22222233       0.83333325       0.25000928 </v>
    <v>       0.44444432       0.16666674       0.74999076 </v>
    <v>       0.22222233       0.58333325       0.25000928 </v>
    <v>       0.11111099       0.41666674       0.74999076 </v>
    <v>       0.22222233       0.33333325       0.25000928 </v>
    <v>       0.22222233       0.08333325       0.25000928 </v>
    <v>       0.11111099       0.16666674       0.74999076 </v>
    <v>       0.11111099       0.66666674       0.74999076 </v>
    <v>       0.77777765       0.16666674       0.29487388 </v>
    <v>       0.88888899       0.08333325       0.79485533 </v>
    <v>       0.77777765       0.16666674       0.20514467 </v>
    <v>       0.88888899       0.08333325       0.70512613 </v>
    <v>       0.22222233       0.08333325       0.70512613 </v>
    <v>       0.11111099       0.16666674       0.20514467 </v>
    <v>       0.77777765       0.41666674       0.29487388 </v>
    <v>       0.88888899       0.33333325       0.79485533 </v>
    <v>       0.11111099       0.66666674       0.20514467 </v>
    <v>       0.55555566       0.83333325       0.70512613 </v>
    <v>       0.88888899       0.33333325       0.70512613 </v>
    <v>       0.22222233       0.08333325       0.79485533 </v>
    <v>       0.11111099       0.16666674       0.29487388 </v>
    <v>       0.77777765       0.66666674       0.29487388 </v>
    <v>       0.88888899       0.58333325       0.79485533 </v>
    <v>       0.77777765       0.66666674       0.20514467 </v>
    <v>       0.88888899       0.58333325       0.70512613 </v>
    <v>       0.77777765       0.91666674       0.29487388 </v>
    <v>       0.88888899       0.83333325       0.79485533 </v>
    <v>       0.77777765       0.41666674       0.20514467 </v>
    <v>       0.44444432       0.91666674       0.20514467 </v>
    <v>       0.44444432       0.91666674       0.29487388 </v>
    <v>       0.22222233       0.58333325       0.70512613 </v>
    <v>       0.22222233       0.58333325       0.79485533 </v>
    <v>       0.11111099       0.91666674       0.29487388 </v>
    <v>       0.22222233       0.83333325       0.79485533 </v>
    <v>       0.11111099       0.91666674       0.20514467 </v>
    <v>       0.22222233       0.83333325       0.70512613 </v>
    <v>       0.11111099       0.66666674       0.29487388 </v>
    <v>       0.77777765       0.91666674       0.20514467 </v>
    <v>       0.44444432       0.16666674       0.29487388 </v>
    <v>       0.55555566       0.08333325       0.79485533 </v>
    <v>       0.44444432       0.16666674       0.20514467 </v>
    <v>       0.55555566       0.08333325       0.70512613 </v>
    <v>       0.44444432       0.41666674       0.29487388 </v>
    <v>       0.55555566       0.33333325       0.79485533 </v>
    <v>       0.44444432       0.41666674       0.20514467 </v>
    <v>       0.55555566       0.33333325       0.70512613 </v>
    <v>       0.22222233       0.33333325       0.70512613 </v>
    <v>       0.11111099       0.41666674       0.20514467 </v>
    <v>       0.44444432       0.66666674       0.29487388 </v>
    <v>       0.55555566       0.58333325       0.79485533 </v>
    <v>       0.44444432       0.66666674       0.20514467 </v>
    <v>       0.55555566       0.58333325       0.70512613 </v>
    <v>       0.22222233       0.33333325       0.79485533 </v>
    <v>       0.11111099       0.41666674       0.29487388 </v>
    <v>       0.55555566       0.83333325       0.79485533 </v>
    <v>       0.88888899       0.83333325       0.70512613 </v>
   </varray>
  </structure>
  <varray name="forces" >
   <v>       0.00870508       0.11305526      -0.07144232 </v>
   <v>       0.07672611       0.08818287      -0.07527031 </v>
   <v>       0.04691231       0.08743410      -0.07343392 </v>
   <v>       0.08933745       0.05608154      -0.06936376 </v>
   <v>       0.07598401       0.09580269      -0.05661709 </v>
   <v>      -0.06566191      -0.06342434       0.09424415 </v>
   <v>      -0.01071200      -0.10157955       0.08608949 </v>
   <v>      -0.04181245      -0.07418867       0.09038997 </v>
   <v>      -0.05529616      -0.07635316       0.08183130 </v>
   <v>      -0.08812018      -0.07555180       0.07070092 </v>
   <v>      -0.03013505      -0.03805298      -0.03634672 </v>
   <v>       0.00868707      -0.01065501      -0.02090843 </v>
   <v>      -0.00188600      -0.00218729      -0.00275104 </v>
   <v>      -0.01066029      -0.02135949       0.03149943 </v>
   <v>       0.00052701       0.00531025       0.01047991 </v>
   <v>      -0.01565706      -0.00533020      -0.00603279 </v>
   <v>       0.00348429       0.00805846      -0.01284305 </v>
   <v>       0.00152038       0.01289499       0.02378815 </v>
   <v>      -0.00918933       0.00840410       0.02307886 </v>
   <v>       0.02232108       0.00553860       0.03724633 </v>
   <v>      -0.00485546      -0.00569705       0.03010665 </v>
   <v>       0.02777471       0.18951482      -0.01024182 </v>
   <v>       0.03172001       0.17233038      -0.01386849 </v>
   <v>      -0.02147738      -0.17724717       0.00822051 </v>
   <v>       0.02634087       0.17625281      -0.01032708 </v>
   <v>      -0.02131430      -0.17661238       0.00816271 </v>
   <v>       0.02834892       0.16265073      -0.01430956 </v>
   <v>      -0.02130251      -0.17575636       0.00849945 </v>
   <v>       0.02789502       0.18199510      -0.01815623 </v>
   <v>      -0.01496101      -0.17869889       0.00896860 </v>
   <v>      -0.01540738      -0.17867462       0.00838684 </v>
   <v>       0.03058499       0.17271299      -0.01726079 </v>
   <v>      -0.01499630      -0.17811737       0.00847063 </v>
   <v>       0.03027320       0.16960416      -0.02003820 </v>
   <v>      -0.01501839      -0.17734895       0.00955620 </v>
   <v>      -0.02337339      -0.17650157       0.00885244 </v>
   <v>       0.02550865       0.18406555      -0.01677687 </v>
   <v>       0.01829972       0.16474987      -0.02087265 </v>
   <v>      -0.02133308      -0.17664821       0.00836269 </v>
   <v>       0.01650777       0.17971514      -0.02442789 </v>
   <v>      -0.02289824      -0.17783373       0.00818503 </v>
   <v>       0.01997395       0.17913880      -0.01507886 </v>
   <v>       0.02086602       0.18209242      -0.01434978 </v>
   <v>      -0.02341145      -0.17684226       0.00879237 </v>
   <v>      -0.02334811      -0.17694713       0.00824821 </v>
   <v>      -0.01360860      -0.08853114      -0.21396060 </v>
   <v>       0.01025024       0.08939276      -0.20816859 </v>
   <v>      -0.01356052      -0.08800542       0.22047071 </v>
   <v>       0.01021322       0.08841367       0.20107972 </v>
   <v>       0.01126183       0.08843179       0.20107033 </v>
   <v>      -0.01290428      -0.08688597       0.22146662 </v>
   <v>      -0.01447161      -0.08689242      -0.21232053 </v>
   <v>       0.01067945       0.08854507      -0.20801981 </v>
   <v>      -0.01017441      -0.08734776       0.20654425 </v>
   <v>       0.01026576       0.08855738       0.20127670 </v>
   <v>       0.01063319       0.08810024       0.20097258 </v>
   <v>       0.01114528       0.08951864      -0.20805139 </v>
   <v>      -0.01329569      -0.08816607      -0.21269415 </v>
   <v>      -0.01459144      -0.08597068      -0.21256851 </v>
   <v>       0.01035512       0.08943961      -0.20828547 </v>
   <v>      -0.01357019      -0.09010210       0.21622270 </v>
   <v>       0.01039249       0.08873828       0.20122756 </v>
   <v>      -0.01477150      -0.08779597      -0.21335536 </v>
   <v>       0.01023654       0.08942700      -0.20829418 </v>
   <v>      -0.01341450      -0.08738500       0.22088682 </v>
   <v>      -0.01606172      -0.09305870       0.19771966 </v>
   <v>      -0.01214304      -0.08805558      -0.21306960 </v>
   <v>       0.01100044       0.08841409       0.20135248 </v>
   <v>       0.01102761       0.08930640      -0.20791462 </v>
   <v>      -0.01363188      -0.08768849      -0.21309259 </v>
   <v>       0.01163300       0.08964504      -0.20796049 </v>
   <v>      -0.01105131      -0.09154656       0.21693280 </v>
   <v>       0.01145291       0.08833769       0.20158825 </v>
   <v>      -0.01222327      -0.08711206      -0.21102962 </v>
   <v>      -0.01610317      -0.09189130       0.20713914 </v>
   <v>      -0.01251006      -0.08801247      -0.21337543 </v>
   <v>       0.01062402       0.08927515      -0.20803852 </v>
   <v>      -0.01371616      -0.08893861       0.21951270 </v>
   <v>       0.01061039       0.08822843       0.20143477 </v>
   <v>      -0.01251625      -0.08650285      -0.21243214 </v>
   <v>       0.01005253       0.08898306      -0.20787864 </v>
   <v>      -0.01431539      -0.08847085       0.21457723 </v>
   <v>       0.01005444       0.08840912       0.20104468 </v>
   <v>       0.01129045       0.08859946       0.20127200 </v>
   <v>      -0.01303995      -0.08792045       0.21641430 </v>
   <v>      -0.01375213      -0.08648137      -0.21101163 </v>
   <v>       0.01067867       0.08917815      -0.20814530 </v>
   <v>      -0.01312735      -0.09581469       0.21210059 </v>
   <v>       0.01061174       0.08826327       0.20156751 </v>
   <v>       0.01129088       0.08909190      -0.20827252 </v>
   <v>      -0.01328890      -0.08771544      -0.21152541 </v>
   <v>       0.01024277       0.08985591      -0.20711265 </v>
   <v>       0.01036914       0.08816239       0.20126046 </v>
  </varray>
  <varray name="stress" >
   <v>       0.64836541      -0.04180983       0.24826721 </v>
   <v>      -0.04180988      -6.94462039       0.37385534 </v>
   <v>       0.24826713       0.37385532      -9.13594806 </v>
  </varray>
  <energy>
   <i name="e_fr_energy">   -671.38431659 </i>
   <i name="e_wo_entrp">   -671.32162560 </i>
   <i name="e_0_energy">     -0.12538196 </i>
  </energy>
  <time name="totalsc">  442.15  445.31</time>
 </calculation>
 <calculation>
  <scstep>
   <time name="dav">    5.76    5.78</time>
   <time name="total">    6.77    6.80</time>
   <energy>
    <i name="alphaZ">    562.94535741 </i>
    <i name="ewald">  39023.14535007 </i>
    <i name="hartreedc"> -58941.19294615 </i>
    <i name="XCdc">   -663.55949592 </i>
    <i name="pawpsdc">  43235.71349977 </i>
    <i name="pawaedc"> -41475.92135213 </i>
    <i name="eentropy">     -0.12905376 </i>
    <i name="bandstr">  -3314.47255805 </i>
    <i name="atom">  20917.06298232 </i>
    <i name="e_fr_energy">   -656.40821643 </i>
    <i name="e_wo_entrp">   -656.27916267 </i>
    <i name="e_0_energy">   -656.34368955 </i>
   </energy>
  </scstep>
  <scstep>
   <time name="dav">    6.61    6.63</time>
   <time name="total">    7.55    7.58</time>
   <energy>
    <i name="e_fr_energy">   -656.92867648 </i>
    <i name="e_wo_entrp">   -656.83926368 </i>
    <i name="e_0_energy">   -656.88397008 </i>
   </energy>
  </scstep>
  <scstep>
   <time name="dav">    6.96    6.98</time>
   <time name="total">    7.94    7.98</time>
   <energy>
    <i name="e_fr_energy">   -656.47387070 </i>
    <i name="e_wo_entrp">   -656.34433252 </i>
    <i name="e_0_energy">   -656.40910161 </i>
   </energy>
  </scstep>
  <scstep>
   <time name="dav">    7.08    7.14</time>
   <time name="total">    8.02    8.09</time>
   <energy>
    <i name="e_fr_energy">   -656.53087150 </i>
    <i name="e_wo_entrp">   -656.44122964 </i>
    <i name="e_0_energy">   -656.48605057 </i>
   </energy>
  </scstep>
  <scstep>
   <time name="dav">    7.58    7.60</time>
   <time name="total">    8.56    8.59</time>
   <energy>
    <i name="e_fr_energy">   -656.44944990 </i>
    <i name="e_wo_entrp">   -656.32390192 </i>
    <i name="e_0_energy">   -656.38667591 </i>
   </energy>
  </scstep>
  <scstep>
   <time name="dav">    6.82    6.84</time>
   <time name="total">    7.80    7.84</time>
   <energy>
    <i name="e_fr_energy">   -656.49421062 </i>
    <i name="e_wo_entrp">   -656.38617310 </i>
    <i name="e_0_energy">   -656.44019186 </i>
   </energy>
  </scstep>
  <scstep>
   <time name="dav">    6.25    6.27</time>
   <time name="total">    7.23    7.26</time>
   <energy>
    <i name="e_fr_energy">   -656.46449534 </i>
    <i name="e_wo_entrp">   -656.34521750 </i>
    <i name="e_0_energy">   -656.40485642 </i>
   </energy>
  </scstep>
  <scstep>
   <time name="dav">    7.22    7.26</time>
   <time name="total">    8.21    8.25</time>
   <energy>
    <i name="e_fr_energy">   -656.44646903 </i>
    <i name="e_wo_entrp">   -656.31980104 </i>
    <i name="e_0_energy">   -656.38313504 </i>
   </energy>
  </scstep>
  <scstep>
   <time name="dav">    6.82    6.84</time>
   <time name="total">    7.80    7.92</time>
   <energy>
    <i name="e_fr_energy">   -656.44156537 </i>
    <i name="e_wo_entrp">   -656.32244146 </i>
    <i name="e_0_energy">   -656.38200342 </i>
   </energy>
  </scstep>
  <scstep>
   <time name="dav">    5.90    5.96</time>
   <time name="total">    6.89    6.96</time>
   <energy>
    <i name="e_fr_energy">   -656.44159024 </i>
    <i name="e_wo_entrp">   -656.31697411 </i>
    <i name="e_0_energy">   -656.37928218 </i>
   </energy>
  </scstep>
  <scstep>
   <time name="dav">    5.03    5.05</time>
   <time name="total">    5.42    5.44</time>
   <energy>
    <i name="alphaZ">    562.94535741 </i>
    <i name="ewald">  39023.14535007 </i>
    <i name="hartreedc"> -58944.48350722 </i>
    <i name="XCdc">   -663.58725242 </i>
    <i name="pawpsdc">  43632.98540277 </i>
    <i name="pawaedc"> -41873.88569104 </i>
    <i name="eentropy">     -0.12024059 </i>
    <i name="bandstr">  -3310.50391463 </i>
    <i name="atom">  20917.06298232 </i>
    <i name="e_fr_energy">   -656.44151332 </i>
    <i name="e_wo_entrp">   -656.32127273 </i>
    <i name="e_0_energy">   -656.38139302 </i>
   </energy>
  </scstep>
  <structure>
   <crystal>
    <varray name="basis" >
     <v>       9.57094646       0.00000000       0.00000000 </v>
     <v>      -6.38062803      11.05157872       0.00000000 </v>
     <v>       0.00000000       0.00000000      34.88026251 </v>
    </varray>
    <i name="volume">   3689.42726549 </i>
    <varray name="rec_basis" >
     <v>       0.10448287       0.06032318       0.00000000 </v>
     <v>       0.00000000       0.09048481       0.00000000 </v>
     <v>       0.00000000       0.00000000       0.02866951 </v>
    </varray>
   </crystal>
   <varray name="positions" >
    <v>       0.40523926       0.65028994       0.07924838 </v>
    <v>       0.27992807       0.61741528       0.05156565 </v>
    <v>       0.42373163       0.75317049       0.09998537 </v>
    <v>       0.30919648       0.78365123       0.08521026 </v>
    <v>       0.22048180       0.70005897       0.05527544 </v>
    <v>       0.59277591       0.79932859       0.99282776 </v>
    <v>       0.54270716       0.95229902       0.01051395 </v>
    <v>       0.49402397       0.85185064       0.98514315 </v>
    <v>       0.67111489       0.96174984       0.03396609 </v>
    <v>       0.70204808       0.86714589       0.02297330 </v>
    <v>       0.46446961       0.79359905       0.04173574 </v>
    <v>       0.12619373       0.70046585       0.03790557 </v>
    <v>       0.39738223       0.81982192       0.96408884 </v>
    <v>       0.73304940       0.02816281       0.05647031 </v>
    <v>       0.48902565       0.00997787       0.01217220 </v>
    <v>       0.58439251       0.72040833       0.97865586 </v>
    <v>       0.23859729       0.54388631       0.03092749 </v>
    <v>       0.47610348       0.60581187       0.08334181 </v>
    <v>       0.51067681       0.80051826       0.12270776 </v>
    <v>       0.29396801       0.85871698       0.09458944 </v>
    <v>       0.79156664       0.84889626       0.03575712 </v>
    <v>       0.55624718       0.08416052       0.24999512 </v>
    <v>       0.55621705       0.33408551       0.24999010 </v>
    <v>       0.44382025       0.41589302       0.75000213 </v>
    <v>       0.55620135       0.58410263       0.24999500 </v>
    <v>       0.44382292       0.66589579       0.75000205 </v>
    <v>       0.55617189       0.83404325       0.24998949 </v>
    <v>       0.44382547       0.91589953       0.75000251 </v>
    <v>       0.88955923       0.33412770       0.24998417 </v>
    <v>       0.77718220       0.16588668       0.75000316 </v>
    <v>       0.77718002       0.41588679       0.75000236 </v>
    <v>       0.88954578       0.58408718       0.24998541 </v>
    <v>       0.77718372       0.66588922       0.75000247 </v>
    <v>       0.88953516       0.83407361       0.24998157 </v>
    <v>       0.77718584       0.91589257       0.75000397 </v>
    <v>       0.11047953       0.91589627       0.75000300 </v>
    <v>       0.88955323       0.08413674       0.24998608 </v>
    <v>       0.22279401       0.83405242       0.24998041 </v>
    <v>       0.44382272       0.16589563       0.75000232 </v>
    <v>       0.22282853       0.58411774       0.24997550 </v>
    <v>       0.11047804       0.41589046       0.75000208 </v>
    <v>       0.22284433       0.33411523       0.24998843 </v>
    <v>       0.22285742       0.08412812       0.24998944 </v>
    <v>       0.11047834       0.16589479       0.75000292 </v>
    <v>       0.11047836       0.66589433       0.75000217 </v>
    <v>       0.77745142       0.16628028       0.29457795 </v>
    <v>       0.88920081       0.08372347       0.79456741 </v>
    <v>       0.77745319       0.16628258       0.20544960 </v>
    <v>       0.88919777       0.08371919       0.70540424 </v>
    <v>       0.22253644       0.08371927       0.70540423 </v>
    <v>       0.11079309       0.16628747       0.20545098 </v>
    <v>       0.77745184       0.41628744       0.29458022 </v>
    <v>       0.88920050       0.33371977       0.79456762 </v>
    <v>       0.11080551       0.66628545       0.20543034 </v>
    <v>       0.55586512       0.83371982       0.70540452 </v>
    <v>       0.88919897       0.33371782       0.70540410 </v>
    <v>       0.22253902       0.08372402       0.79456757 </v>
    <v>       0.11078739       0.16628188       0.29457971 </v>
    <v>       0.77745392       0.66629146       0.29457988 </v>
    <v>       0.88920147       0.58372367       0.79456725 </v>
    <v>       0.77744704       0.66627343       0.20544373 </v>
    <v>       0.88919962       0.58372061       0.70540445 </v>
    <v>       0.77744770       0.91628349       0.29457879 </v>
    <v>       0.88920084       0.83372362       0.79456724 </v>
    <v>       0.77745573       0.41628529       0.20545018 </v>
    <v>       0.44409254       0.91626052       0.20541814 </v>
    <v>       0.44412686       0.91628236       0.29457919 </v>
    <v>       0.22253507       0.58371919       0.70540462 </v>
    <v>       0.22253781       0.58372309       0.79456776 </v>
    <v>       0.11078709       0.91628396       0.29457915 </v>
    <v>       0.22254184       0.83372457       0.79456770 </v>
    <v>       0.11078887       0.91626712       0.20544471 </v>
    <v>       0.22253713       0.83371886       0.70540495 </v>
    <v>       0.11079587       0.66628648       0.29458201 </v>
    <v>       0.77742907       0.91626562       0.20543116 </v>
    <v>       0.44412513       0.16628255       0.29457876 </v>
    <v>       0.55586901       0.08372295       0.79456759 </v>
    <v>       0.44411636       0.16627851       0.20544828 </v>
    <v>       0.55586590       0.08371838       0.70540474 </v>
    <v>       0.44412949       0.41628914       0.29458007 </v>
    <v>       0.55586528       0.33372168       0.79456781 </v>
    <v>       0.44411470       0.41628055       0.20544145 </v>
    <v>       0.55586362       0.33371917       0.70540420 </v>
    <v>       0.22253707       0.33372000       0.70540451 </v>
    <v>       0.11078940       0.41628295       0.20544399 </v>
    <v>       0.44412333       0.66628923       0.29458203 </v>
    <v>       0.55586901       0.58372253       0.79456744 </v>
    <v>       0.44409932       0.66624849       0.20543803 </v>
    <v>       0.55586601       0.58371854       0.70540492 </v>
    <v>       0.22253851       0.33372215       0.79456727 </v>
    <v>       0.11078874       0.41628384       0.29458132 </v>
    <v>       0.55586878       0.83372549       0.79456887 </v>
    <v>       0.88919782       0.83371810       0.70540449 </v>
   </varray>
  </structure>
  <varray name="forces" >
   <v>       0.15852228      -0.01306561      -0.01826693 </v>
   <v>      -0.00947899       0.03976150      -0.07185298 </v>
   <v>       0.04845339       0.06320980      -0.00977461 </v>
   <v>      -0.03441073       0.12660528      -0.00091834 </v>
   <v>      -0.00666114       0.00760808      -0.10637446 </v>
   <v>      -0.01972353      -0.09866894       0.00327695 </v>
   <v>      -0.12901996       0.03231011       0.05836836 </v>
   <v>      -0.05327013      -0.06763338       0.00957335 </v>
   <v>      -0.01176595      -0.04142608       0.06634655 </v>
   <v>       0.05253245      -0.05132477       0.11008570 </v>
   <v>       0.00187758       0.00355957      -0.00915131 </v>
   <v>       0.06999859       0.00301632       0.02355736 </v>
   <v>       0.02256422       0.01027664       0.02981333 </v>
   <v>      -0.02054802      -0.04880363       0.01018634 </v>
   <v>       0.07448873      -0.05802692       0.00950880 </v>
   <v>      -0.03331079       0.02887064       0.02245637 </v>
   <v>       0.00993751       0.04166517       0.01459770 </v>
   <v>      -0.07748515       0.06339300       0.00659784 </v>
   <v>      -0.01584225       0.00097588      -0.00326546 </v>
   <v>       0.06040532      -0.03722014       0.00923674 </v>
   <v>      -0.08803280       0.00109554      -0.00373456 </v>
   <v>      -0.01931606      -0.08886139      -0.00070205 </v>
   <v>      -0.02110290      -0.07842040       0.00534505 </v>
   <v>       0.01487155       0.08198567      -0.00627843 </v>
   <v>      -0.01858188      -0.08195271       0.00279925 </v>
   <v>       0.01478740       0.08224570      -0.00580603 </v>
   <v>      -0.02006732      -0.07884479      -0.00326452 </v>
   <v>       0.01509042       0.08158269      -0.00601592 </v>
   <v>      -0.02033151      -0.08410005       0.00841664 </v>
   <v>       0.01116539       0.08289391      -0.00678784 </v>
   <v>       0.01132869       0.08274666      -0.00648704 </v>
   <v>      -0.01901997      -0.07875930       0.00495433 </v>
   <v>       0.01104555       0.08296140      -0.00630899 </v>
   <v>      -0.02212348      -0.08071957       0.00298296 </v>
   <v>       0.01095661       0.08245225      -0.00663540 </v>
   <v>       0.01718503       0.08262775      -0.00604548 </v>
   <v>      -0.02129029      -0.08659368       0.00390665 </v>
   <v>      -0.01310554      -0.08028027       0.00248114 </v>
   <v>       0.01470766       0.08181906      -0.00645227 </v>
   <v>      -0.01426765      -0.08238368       0.00630838 </v>
   <v>       0.01698013       0.08281813      -0.00596572 </v>
   <v>      -0.01556693      -0.08091793       0.00713320 </v>
   <v>      -0.01399029      -0.08540647       0.00589819 </v>
   <v>       0.01734268       0.08246193      -0.00651452 </v>
   <v>       0.01738663       0.08253779      -0.00572891 </v>
   <v>       0.01051252       0.04478156      -0.01919051 </v>
   <v>      -0.00605795      -0.04152483      -0.00743637 </v>
   <v>       0.00864294       0.04435568       0.00395612 </v>
   <v>      -0.00597080      -0.04201785       0.01638080 </v>
   <v>      -0.00762974      -0.04045298       0.01795555 </v>
   <v>       0.00804696       0.04437532       0.00400048 </v>
   <v>       0.01027466       0.04104286      -0.01953386 </v>
   <v>      -0.00630919      -0.04195129      -0.00835026 </v>
   <v>       0.00682604       0.03920585      -0.00467897 </v>
   <v>      -0.00621390      -0.04026017       0.01850723 </v>
   <v>      -0.00632637      -0.04218403       0.01644936 </v>
   <v>      -0.00763439      -0.04029134      -0.00952892 </v>
   <v>       0.00683249       0.04346002      -0.01867393 </v>
   <v>       0.01072696       0.04004407      -0.02142555 </v>
   <v>      -0.00617502      -0.04206657      -0.00833665 </v>
   <v>       0.00908205       0.03640121       0.00420764 </v>
   <v>      -0.00615043      -0.04232424       0.01629781 </v>
   <v>       0.00930111       0.03960024      -0.02620202 </v>
   <v>      -0.00614330      -0.04140586      -0.00796635 </v>
   <v>       0.00935659       0.04057018       0.00305742 </v>
   <v>       0.00850885       0.03969198       0.00510375 </v>
   <v>       0.00803275       0.03898885      -0.02845379 </v>
   <v>      -0.00738238      -0.04067017       0.01789022 </v>
   <v>      -0.00742173      -0.04058132      -0.00988398 </v>
   <v>       0.00857096       0.03970081      -0.02349370 </v>
   <v>      -0.00758374      -0.04018067      -0.00946355 </v>
   <v>       0.00938818       0.04064721       0.00366248 </v>
   <v>      -0.00762482      -0.04017263       0.01800015 </v>
   <v>       0.00828882       0.03980245      -0.02147666 </v>
   <v>       0.00735912       0.03842385       0.00372965 </v>
   <v>       0.00845546       0.04173347      -0.01738817 </v>
   <v>      -0.00656474      -0.04012644      -0.00924324 </v>
   <v>       0.00903178       0.04160547       0.00513169 </v>
   <v>      -0.00650277      -0.04026709       0.01778381 </v>
   <v>       0.00967662       0.03997512      -0.02109456 </v>
   <v>      -0.00637053      -0.04063124      -0.00984658 </v>
   <v>       0.00966459       0.04040155       0.00648679 </v>
   <v>      -0.00634089      -0.04067586       0.01780271 </v>
   <v>      -0.00749764      -0.04083065       0.01744749 </v>
   <v>       0.00840156       0.04202956       0.00010562 </v>
   <v>       0.00539741       0.03789846      -0.02111096 </v>
   <v>      -0.00663681      -0.04035784      -0.00984987 </v>
   <v>       0.01060021       0.03446755       0.00257899 </v>
   <v>      -0.00654589      -0.04052386       0.01793484 </v>
   <v>      -0.00767523      -0.04081008      -0.00942053 </v>
   <v>       0.00723295       0.04477764      -0.02119850 </v>
   <v>      -0.00655233      -0.04019807      -0.00946063 </v>
   <v>      -0.00621555      -0.04154662       0.01673815 </v>
  </varray>
  <varray name="stress" >
   <v>       5.77365356       0.07055433       0.30507681 </v>
   <v>       0.07055431      -3.62251628       0.43652814 </v>
   <v>       0.30507677       0.43652805      -2.31025751 </v>
  </varray>
  <energy>
   <i name="e_fr_energy">   -671.46013245 </i>
   <i name="e_wo_entrp">   -671.40001216 </i>
   <i name="e_0_energy">     -0.12024059 </i>
  </energy>
  <time name="totalsc">   93.84   94.44</time>
 </calculation>
 <calculation>
  <scstep>
   <time name="dav">    5.78    5.80</time>
   <time name="total">    6.77    6.80</time>
   <energy>
    <i name="alphaZ">    562.94535741 </i>
    <i name="ewald">  39001.41998420 </i>
    <i name="hartreedc"> -58923.54643933 </i>
    <i name="XCdc">   -663.69178165 </i>
    <i name="pawpsdc">  43636.92772750 </i>
    <i name="pawaedc"> -41877.82485843 </i>
    <i name="eentropy">     -0.12204128 </i>
    <i name="bandstr">  -3309.61448009 </i>
    <i name="atom">  20917.06298232 </i>
    <i name="e_fr_energy">   -656.44354935 </i>
    <i name="e_wo_entrp">   -656.32150807 </i>
    <i name="e_0_energy">   -656.38252871 </i>
   </energy>
  </scstep>
  <scstep>
   <time name="dav">    6.72    6.74</time>
   <time name="total">    7.70    7.73</time>
   <energy>
    <i name="e_fr_energy">   -656.45469257 </i>
    <i name="e_wo_entrp">   -656.32524022 </i>
    <i name="e_0_energy">   -656.38996640 </i>
   </energy>
  </scstep>
  <scstep>
   <time name="dav">    6.43    6.45</time>
   <time name="total">    7.41    7.44</time>
   <energy>
    <i name="e_fr_energy">   -656.44565613 </i>
    <i name="e_wo_entrp">   -656.32768352 </i>
    <i name="e_0_energy">   -656.38666982 </i>
   </energy>
  </scstep>
  <scstep>
   <time name="dav">    5.39    5.40</time>
   <time name="total">    6.37    6.39</time>
   <energy>
    <i name="e_fr_energy">   -656.44431448 </i>
    <i name="e_wo_entrp">   -656.31949619 </i>
    <i name="e_0_energy">   -656.38190534 </i>
   </energy>
  </scstep>
  <scstep>
   <time name="dav">    5.50    5.52</time>
   <time name="total">    6.49    6.51</time>
   <energy>
    <i name="e_fr_energy">   -656.44408699 </i>
    <i name="e_wo_entrp">   -656.31970765 </i>
    <i name="e_0_energy">   -656.38189732 </i>
   </energy>
  </scstep>
  <scstep>
   <time name="dav">    5.55    5.57</time>
   <time name="total">    6.53    6.55</time>
   <energy>
    <i name="e_fr_energy">   -656.44381127 </i>
    <i name="e_wo_entrp">   -656.32149420 </i>
    <i name="e_0_energy">   -656.38265273 </i>
   </energy>
  </scstep>
  <scstep>
   <time name="dav">    4.28    4.29</time>
   <time name="total">    4.66    4.68</time>
   <energy>
    <i name="alphaZ">    562.94535741 </i>
    <i name="ewald">  39001.41998420 </i>
    <i name="hartreedc"> -58923.12772489 </i>
    <i name="XCdc">   -663.69332197 </i>
    <i name="pawpsdc">  43608.13963083 </i>
    <i name="pawaedc"> -41848.98063544 </i>
    <i name="eentropy">     -0.12187653 </i>
    <i name="bandstr">  -3310.08824844 </i>
    <i name="atom">  20917.06298232 </i>
    <i name="e_fr_energy">   -656.44385252 </i>
    <i name="e_wo_entrp">   -656.32197599 </i>
    <i name="e_0_energy">   -656.38291426 </i>
   </energy>
  </scstep>
  <structure>
   <crystal>
    <varray name="basis" >
     <v>       9.57094646       0.00000000       0.00000000 </v>
     <v>      -6.38062803      11.05157872       0.00000000 </v>
     <v>       0.00000000       0.00000000      34.88026251 </v>
    </varray>
    <i name="volume">   3689.42726549 </i>
    <varray name="rec_basis" >
     <v>       0.10448287       0.06032318       0.00000000 </v>
     <v>       0.00000000       0.09048481       0.00000000 </v>
     <v>       0.00000000       0.00000000       0.02866951 </v>
    </varray>
   </crystal>
   <varray name="positions" >
    <v>       0.40520669       0.65024684       0.07925701 </v>
    <v>       0.27987188       0.61738166       0.05157474 </v>
    <v>       0.42368876       0.75313716       0.09999424 </v>
    <v>       0.30914290       0.78362985       0.08521864 </v>
    <v>       0.22042401       0.70002245       0.05528228 </v>
    <v>       0.59282094       0.79935277       0.99281638 </v>
    <v>       0.54273769       0.95233774       0.01050355 </v>
    <v>       0.49406123       0.85187892       0.98513223 </v>
    <v>       0.67115863       0.96177895       0.03395620 </v>
    <v>       0.70210607       0.86717469       0.02296476 </v>
    <v>       0.46449255       0.79361356       0.04174013 </v>
    <v>       0.12619262       0.70046991       0.03790810 </v>
    <v>       0.39738362       0.81982276       0.96408917 </v>
    <v>       0.73305952       0.02817095       0.05646651 </v>
    <v>       0.48902407       0.00997584       0.01217093 </v>
    <v>       0.58440076       0.72041037       0.97865659 </v>
    <v>       0.23859371       0.54388324       0.03092904 </v>
    <v>       0.47609953       0.60580695       0.08333893 </v>
    <v>       0.51067872       0.80051506       0.12270497 </v>
    <v>       0.29395678       0.85871486       0.09458494 </v>
    <v>       0.79157023       0.84889843       0.03575348 </v>
    <v>       0.55618678       0.08408828       0.24999635 </v>
    <v>       0.55615929       0.33401981       0.24999178 </v>
    <v>       0.44387475       0.41596059       0.75000113 </v>
    <v>       0.55614496       0.58403544       0.24999625 </v>
    <v>       0.44387718       0.66596312       0.75000106 </v>
    <v>       0.55611808       0.83398125       0.24999122 </v>
    <v>       0.44387951       0.91596653       0.75000149 </v>
    <v>       0.88950070       0.33405832       0.24998636 </v>
    <v>       0.77723420       0.16595480       0.75000208 </v>
    <v>       0.77723221       0.41595490       0.75000134 </v>
    <v>       0.88948842       0.58402134       0.24998749 </v>
    <v>       0.77723558       0.66595712       0.75000145 </v>
    <v>       0.88947873       0.83400895       0.24998399 </v>
    <v>       0.77723752       0.91596018       0.75000282 </v>
    <v>       0.11053467       0.91596356       0.75000193 </v>
    <v>       0.88949522       0.08406657       0.24998811 </v>
    <v>       0.22274409       0.83398961       0.24998294 </v>
    <v>       0.44387700       0.16596297       0.75000131 </v>
    <v>       0.22277559       0.58404923       0.24997845 </v>
    <v>       0.11053332       0.41595825       0.75000109 </v>
    <v>       0.22279001       0.33404694       0.24999025 </v>
    <v>       0.22280196       0.08405871       0.24999117 </v>
    <v>       0.11053359       0.16596220       0.75000186 </v>
    <v>       0.11053360       0.66596178       0.75000117 </v>
    <v>       0.77747991       0.16631403       0.29460380 </v>
    <v>       0.88917357       0.08368939       0.79459256 </v>
    <v>       0.77748153       0.16631613       0.20542297 </v>
    <v>       0.88917080       0.08368549       0.70537996 </v>
    <v>       0.22250901       0.08368556       0.70537994 </v>
    <v>       0.11082085       0.16632059       0.20542423 </v>
    <v>       0.77748029       0.41632056       0.29460587 </v>
    <v>       0.88917330       0.33368601       0.79459274 </v>
    <v>       0.11083218       0.66631875       0.20540539 </v>
    <v>       0.55583809       0.83368606       0.70538020 </v>
    <v>       0.88917190       0.33368424       0.70537982 </v>
    <v>       0.22251136       0.08368989       0.79459270 </v>
    <v>       0.11081565       0.16631549       0.29460540 </v>
    <v>       0.77748219       0.66632423       0.29460555 </v>
    <v>       0.88917418       0.58368958       0.79459241 </v>
    <v>       0.77747591       0.66630778       0.20541761 </v>
    <v>       0.88917249       0.58368678       0.70538014 </v>
    <v>       0.77747651       0.91631696       0.29460456 </v>
    <v>       0.88917360       0.83368953       0.79459240 </v>
    <v>       0.77748385       0.41631860       0.20542350 </v>
    <v>       0.44412327       0.91629600       0.20539425 </v>
    <v>       0.44415458       0.91631593       0.29460492 </v>
    <v>       0.22250776       0.58368549       0.70538030 </v>
    <v>       0.22251025       0.58368904       0.79459288 </v>
    <v>       0.11081537       0.91631739       0.29460489 </v>
    <v>       0.22251394       0.83369039       0.79459282 </v>
    <v>       0.11081700       0.91630202       0.20541851 </v>
    <v>       0.22250964       0.83368519       0.70538060 </v>
[...]
       <r>   -18.5850     0.0000     4.0000 </r>
       <r>   -18.5076     0.0000     4.0000 </r>
       <r>   -18.4301     0.0000     4.0000 </r>
       <r>   -18.3527     0.0000     4.0000 </r>
       <r>   -18.2753     0.0000     4.0000 </r>
       <r>   -18.1979     0.0000     4.0000 </r>
       <r>   -18.1204     0.0000     4.0000 </r>
       <r>   -18.0430     0.0000     4.0000 </r>
       <r>   -17.9656     0.0000     4.0000 </r>
       <r>   -17.8882     0.0000     4.0000 </r>
       <r>   -17.8107     0.0000     4.0000 </r>
       <r>   -17.7333     0.0000     4.0000 </r>
       <r>   -17.6559     0.0000     4.0000 </r>
       <r>   -17.5785     0.0000     4.0000 </r>
       <r>   -17.5010     0.0000     4.0000 </r>
       <r>   -17.4236     0.0000     4.0000 </r>
       <r>   -17.3462     0.0000     4.0000 </r>
       <r>   -17.2688     0.0000     4.0000 </r>
       <r>   -17.1913     0.0000     4.0000 </r>
       <r>   -17.1139     0.0000     4.0000 </r>
       <r>   -17.0365     0.0000     4.0000 </r>
       <r>   -16.9591     0.0000     4.0000 </r>
       <r>   -16.8816     0.0000     4.0000 </r>
       <r>   -16.8042     0.0000     4.0000 </r>
       <r>   -16.7268     0.0000     4.0000 </r>
       <r>   -16.6494     0.0000     4.0000 </r>
       <r>   -16.5719     0.0000     4.0000 </r>
       <r>   -16.4945     0.0000     4.0000 </r>
       <r>   -16.4171     0.0000     4.0000 </r>
       <r>   -16.3397     0.0000     4.0000 </r>
       <r>   -16.2622     0.0000     4.0000 </r>
       <r>   -16.1848     0.0000     4.0000 </r>
       <r>   -16.1074     0.0000     4.0000 </r>
       <r>   -16.0300     0.0000     4.0000 </r>
       <r>   -15.9525     0.0000     4.0000 </r>
       <r>   -15.8751     0.0010     4.0001 </r>
       <r>   -15.7977     0.0582     4.0046 </r>
       <r>   -15.7203     1.1501     4.0936 </r>
       <r>   -15.6428     7.8670     4.7027 </r>
       <r>   -15.5654    19.2426     6.1926 </r>
       <r>   -15.4880    17.1375     7.5195 </r>
       <r>   -15.4106     5.5436     7.9487 </r>
       <r>   -15.3331     0.6371     7.9980 </r>
       <r>   -15.2557     0.0255     8.0000 </r>
       <r>   -15.1783     0.0265     8.0021 </r>
       <r>   -15.1009     0.7117     8.0572 </r>
       <r>   -15.0234     6.8597     8.5883 </r>
       <r>   -14.9460    26.3275    10.6267 </r>
       <r>   -14.8686    50.2466    14.5170 </r>
       <r>   -14.7912    61.1770    19.2537 </r>
       <r>   -14.7137    44.8395    22.7254 </r>
       <r>   -14.6363    18.2156    24.1357 </r>
       <r>   -14.5589    21.8630    25.8285 </r>
       <r>   -14.4815    43.6909    29.2113 </r>
       <r>   -14.4040    51.2370    33.1783 </r>
       <r>   -14.3266    63.8398    38.1211 </r>
       <r>   -14.2492    54.6183    42.3500 </r>
       <r>   -14.1718    19.1574    43.8332 </r>
       <r>   -14.0943     6.6323    44.3467 </r>
       <r>   -14.0169    23.4848    46.1651 </r>
       <r>   -13.9395    56.0057    50.5013 </r>
       <r>   -13.8621    96.7264    57.9904 </r>
       <r>   -13.7846   139.4035    68.7837 </r>
       <r>   -13.7072   115.8682    77.7549 </r>
       <r>   -13.6298    75.4294    83.5950 </r>
       <r>   -13.5524    85.1304    90.1863 </r>
       <r>   -13.4749    96.2646    97.6396 </r>
       <r>   -13.3975    78.1649   103.6915 </r>
       <r>   -13.3201    42.5914   106.9892 </r>
       <r>   -13.2427    11.7363   107.8978 </r>
       <r>   -13.1652     1.2705   107.9962 </r>
       <r>   -13.0878     0.0482   108.0000 </r>
       <r>   -13.0104     0.0006   108.0000 </r>
       <r>   -12.9330     0.0000   108.0000 </r>
       <r>   -12.8555     0.0000   108.0000 </r>
       <r>   -12.7781     0.0000   108.0000 </r>
       <r>   -12.7007     0.0000   108.0000 </r>
       <r>   -12.6233     0.0000   108.0000 </r>
       <r>   -12.5458     0.0000   108.0000 </r>
       <r>   -12.4684     0.0000   108.0000 </r>
       <r>   -12.3910     0.0000   108.0000 </r>
       <r>   -12.3136     0.0000   108.0000 </r>
       <r>   -12.2361     0.0000   108.0000 </r>
       <r>   -12.1587     0.0000   108.0000 </r>
       <r>   -12.0813     0.0000   108.0000 </r>
       <r>   -12.0038     0.0000   108.0000 </r>
       <r>   -11.9264     0.0000   108.0000 </r>
       <r>   -11.8490     0.0000   108.0000 </r>
       <r>   -11.7716     0.0000   108.0000 </r>
       <r>   -11.6941     0.0000   108.0000 </r>
       <r>   -11.6167     0.0000   108.0000 </r>
       <r>   -11.5393     0.0000   108.0000 </r>
       <r>   -11.4619     0.0000   108.0000 </r>
       <r>   -11.3844     0.0000   108.0000 </r>
       <r>   -11.3070     0.0000   108.0000 </r>
       <r>   -11.2296     0.0000   108.0000 </r>
       <r>   -11.1522     0.0000   108.0000 </r>
       <r>   -11.0747     0.0000   108.0000 </r>
       <r>   -10.9973     0.0005   108.0000 </r>
       <r>   -10.9199     0.0380   108.0030 </r>
       <r>   -10.8425     0.9026   108.0729 </r>
       <r>   -10.7650     7.1520   108.6266 </r>
       <r>   -10.6876    19.3297   110.1232 </r>
       <r>   -10.6102    18.9705   111.5920 </r>
       <r>   -10.5328    14.3862   112.7059 </r>
       <r>   -10.4553    26.4155   114.7511 </r>
       <r>   -10.3779    28.5057   116.9582 </r>
       <r>   -10.3005    11.7027   117.8642 </r>
       <r>   -10.2231     2.7459   118.0768 </r>
       <r>   -10.1456     5.8039   118.5262 </r>
       <r>   -10.0682    10.7102   119.3554 </r>
       <r>    -9.9908     6.7796   119.8804 </r>
       <r>    -9.9134     1.4416   119.9920 </r>
       <r>    -9.8359     0.1013   119.9998 </r>
       <r>    -9.7585     0.0023   120.0000 </r>
       <r>    -9.6811     0.0000   120.0000 </r>
       <r>    -9.6037     0.0000   120.0000 </r>
       <r>    -9.5262     0.0000   120.0000 </r>
       <r>    -9.4488     0.0000   120.0000 </r>
       <r>    -9.3714     0.0000   120.0000 </r>
       <r>    -9.2940     0.0000   120.0000 </r>
       <r>    -9.2165     0.0000   120.0000 </r>
       <r>    -9.1391     0.0000   120.0000 </r>
       <r>    -9.0617     0.0000   120.0000 </r>
       <r>    -8.9843     0.0000   120.0000 </r>
       <r>    -8.9068     0.0000   120.0000 </r>
       <r>    -8.8294     0.0000   120.0000 </r>
       <r>    -8.7520     0.0000   120.0000 </r>
       <r>    -8.6746     0.0000   120.0000 </r>
       <r>    -8.5971     0.0000   120.0000 </r>
       <r>    -8.5197     0.0000   120.0000 </r>
       <r>    -8.4423     0.0000   120.0000 </r>
       <r>    -8.3649     0.0000   120.0000 </r>
       <r>    -8.2874     0.0000   120.0000 </r>
       <r>    -8.2100     0.0000   120.0000 </r>
       <r>    -8.1326     0.0000   120.0000 </r>
       <r>    -8.0552     0.0000   120.0000 </r>
       <r>    -7.9777     0.0028   120.0002 </r>
       <r>    -7.9003     0.1164   120.0092 </r>
       <r>    -7.8229     1.5782   120.1314 </r>
       <r>    -7.7455     7.0749   120.6792 </r>
       <r>    -7.6680    10.6578   121.5044 </r>
       <r>    -7.5906     5.4248   121.9244 </r>
       <r>    -7.5132     0.9874   122.0009 </r>
       <r>    -7.4358     1.4064   122.1097 </r>
       <r>    -7.3583    10.3102   122.9080 </r>
       <r>    -7.2809    30.2666   125.2514 </r>
       <r>    -7.2035    39.6685   128.3228 </r>
       <r>    -7.1261    32.5397   130.8422 </r>
       <r>    -7.0486    28.9129   133.0808 </r>
       <r>    -6.9712    29.1678   135.3391 </r>
       <r>    -6.8938    32.5138   137.8565 </r>
       <r>    -6.8164    58.0832   142.3536 </r>
       <r>    -6.7389   109.1164   150.8019 </r>
       <r>    -6.6615   106.2567   159.0289 </r>
       <r>    -6.5841    76.9741   164.9886 </r>
       <r>    -6.5067   119.4520   174.2372 </r>
       <r>    -6.4292   156.9515   186.3893 </r>
       <r>    -6.3518   129.7827   196.4377 </r>
       <r>    -6.2744    88.0945   203.2585 </r>
       <r>    -6.1970    45.9439   206.8157 </r>
       <r>    -6.1195    13.5215   207.8626 </r>
       <r>    -6.0421     1.6966   207.9939 </r>
       <r>    -5.9647     0.0780   208.0000 </r>
       <r>    -5.8873     0.0648   208.0050 </r>
       <r>    -5.8098     1.5503   208.1250 </r>
       <r>    -5.7324    13.1766   209.1452 </r>
       <r>    -5.6550    41.7261   212.3759 </r>
       <r>    -5.5776    55.4834   216.6717 </r>
       <r>    -5.5001    48.1190   220.3973 </r>
       <r>    -5.4227    94.5367   227.7169 </r>
       <r>    -5.3453   205.5943   243.6351 </r>
       <r>    -5.2679   210.3857   259.9242 </r>
       <r>    -5.1904    90.2154   266.9092 </r>
       <r>    -5.1130    26.2897   268.9447 </r>
       <r>    -5.0356    36.2785   271.7535 </r>
       <r>    -4.9581    38.2444   274.7146 </r>
       <r>    -4.8807    16.7024   276.0078 </r>
       <r>    -4.8033    21.9259   277.7054 </r>
       <r>    -4.7259    72.6819   283.3328 </r>
       <r>    -4.6484   105.2016   291.4781 </r>
       <r>    -4.5710    80.3613   297.7001 </r>
       <r>    -4.4936    75.6318   303.5559 </r>
       <r>    -4.4162    90.3263   310.5494 </r>
       <r>    -4.3387    92.0006   317.6726 </r>
       <r>    -4.2613    63.3385   322.5766 </r>
       <r>    -4.1839    36.2123   325.3804 </r>
       <r>    -4.1065    49.5939   329.2202 </r>
       <r>    -4.0290    64.3356   334.2014 </r>
       <r>    -3.9516    62.2318   339.0197 </r>
       <r>    -3.8742    55.9722   343.3534 </r>
       <r>    -3.7968    44.8150   346.8232 </r>
       <r>    -3.7193    28.4673   349.0273 </r>
       <r>    -3.6419    23.4860   350.8457 </r>
       <r>    -3.5645    17.9995   352.2393 </r>
       <r>    -3.4871    29.1367   354.4952 </r>
       <r>    -3.4096    56.6589   358.8820 </r>
       <r>    -3.3322    89.9625   365.8474 </r>
       <r>    -3.2548   137.4193   376.4871 </r>
       <r>    -3.1774   143.6142   387.6065 </r>
       <r>    -3.0999   108.7448   396.0261 </r>
       <r>    -3.0225    84.7996   402.5917 </r>
       <r>    -2.9451    72.2995   408.1895 </r>
       <r>    -2.8677    86.8029   414.9103 </r>
       <r>    -2.7902   110.6568   423.4779 </r>
       <r>    -2.7128    87.2198   430.2309 </r>
       <r>    -2.6354    39.6644   433.3020 </r>
       <r>    -2.5580    29.0468   435.5509 </r>
       <r>    -2.4805    65.9451   440.6567 </r>
       <r>    -2.4031    95.2228   448.0294 </r>
       <r>    -2.3257    78.7774   454.1288 </r>
       <r>    -2.2483    51.7204   458.1332 </r>
       <r>    -2.1708    51.5383   462.1236 </r>
       <r>    -2.0934    62.1080   466.9323 </r>
       <r>    -2.0160    55.5574   471.2339 </r>
       <r>    -1.9386    50.6496   475.1554 </r>
       <r>    -1.8611    29.8289   477.4649 </r>
       <r>    -1.7837    12.5770   478.4387 </r>
       <r>    -1.7063    27.0277   480.5313 </r>
       <r>    -1.6289    42.7298   483.8397 </r>
       <r>    -1.5514    28.8138   486.0706 </r>
       <r>    -1.4740    21.7576   487.7552 </r>
       <r>    -1.3966    19.9638   489.3009 </r>
       <r>    -1.3192     7.8855   489.9114 </r>
       <r>    -1.2417     1.0919   489.9960 </r>
       <r>    -1.1643     0.0512   489.9999 </r>
       <r>    -1.0869     0.0008   490.0000 </r>
       <r>    -1.0095     0.0000   490.0000 </r>
       <r>    -0.9320     0.0000   490.0000 </r>
       <r>    -0.8546     0.0000   490.0000 </r>
       <r>    -0.7772     0.0000   490.0000 </r>
       <r>    -0.6998     0.0000   490.0000 </r>
       <r>    -0.6223     0.0000   490.0000 </r>
       <r>    -0.5449     0.0000   490.0000 </r>
       <r>    -0.4675     0.0000   490.0000 </r>
       <r>    -0.3901     0.0000   490.0000 </r>
       <r>    -0.3126     0.0000   490.0000 </r>
       <r>    -0.2352     0.0000   490.0000 </r>
       <r>    -0.1578     0.0000   490.0000 </r>
       <r>    -0.0804     0.0000   490.0000 </r>
       <r>    -0.0029     0.0000   490.0000 </r>
       <r>     0.0745     0.0022   490.0002 </r>
       <r>     0.1519     0.1261   490.0099 </r>
       <r>     0.2293     2.5767   490.2094 </r>
       <r>     0.3068    19.2193   491.6975 </r>
       <r>     0.3842    53.7236   495.8571 </r>
       <r>     0.4616    59.9907   500.5019 </r>
       <r>     0.5390    46.9014   504.1332 </r>
       <r>     0.6165    73.2757   509.8066 </r>
       <r>     0.6939   134.7724   520.2414 </r>
       <r>     0.7713   167.2431   533.1902 </r>
       <r>     0.8487   142.5693   544.2287 </r>
       <r>     0.9262   126.7579   554.0430 </r>
       <r>     1.0036    77.6869   560.0579 </r>
       <r>     1.0810    24.6633   561.9675 </r>
       <r>     1.1584    22.2550   563.6906 </r>
       <r>     1.2359    68.0554   568.9598 </r>
       <r>     1.3133   111.6458   577.6040 </r>
       <r>     1.3907   113.7809   586.4135 </r>
       <r>     1.4681    94.8450   593.7569 </r>
       <r>     1.5456    59.1329   598.3353 </r>
       <r>     1.6230    18.9634   599.8035 </r>
       <r>     1.7004     2.4254   599.9913 </r>
       <r>     1.7778     0.1104   599.9999 </r>
       <r>     1.8553     0.0017   600.0000 </r>
       <r>     1.9327     0.0000   600.0000 </r>
       <r>     2.0101     0.0000   600.0000 </r>
       <r>     2.0876     0.0000   600.0000 </r>
       <r>     2.1650     0.0000   600.0000 </r>
       <r>     2.2424     0.0000   600.0000 </r>
       <r>     2.3198     0.0000   600.0000 </r>
       <r>     2.3973     0.0000   600.0000 </r>
       <r>     2.4747     0.0000   600.0000 </r>
       <r>     2.5521     0.0000   600.0000 </r>
      </set>
     </set>
    </array>
   </total>
  </dos>
 </calculation>
 <structure name="finalpos" >
  <crystal>
   <varray name="basis" >
    <v>       9.57094646       0.00000000       0.00000000 </v>
    <v>      -6.38062803      11.05157872       0.00000000 </v>
    <v>       0.00000000       0.00000000      34.88026251 </v>
   </varray>
   <i name="volume">   3689.42726549 </i>
   <varray name="rec_basis" >
    <v>       0.10448287       0.06032318       0.00000000 </v>
    <v>       0.00000000       0.09048481       0.00000000 </v>
    <v>       0.00000000       0.00000000       0.02866951 </v>
   </varray>
  </crystal>
  <varray name="positions" >
   <v>       0.41477401       0.66300123       0.09395020 </v>
   <v>       0.29035587       0.62017309       0.06563028 </v>
   <v>       0.42547497       0.76840991       0.11140423 </v>
   <v>       0.30468268       0.78898396       0.09473797 </v>
   <v>       0.22274770       0.69851943       0.06597766 </v>
   <v>       0.58189329       0.79773918       0.00402964 </v>
   <v>       0.55337402       0.95832165       0.02543733 </v>
   <v>       0.49339113       0.86006069       0.99869546 </v>
   <v>       0.67668287       0.95531638       0.04784267 </v>
   <v>       0.69498926       0.85646028       0.03442074 </v>
   <v>       0.46426619       0.79552689       0.05374818 </v>
   <v>       0.12807439       0.69147905       0.04707801 </v>
   <v>       0.39610506       0.83563037       0.97826454 </v>
   <v>       0.74192357       0.01523610       0.07158561 </v>
   <v>       0.50847415       0.02088327       0.02915351 </v>
   <v>       0.56285083       0.71788761       0.98841662 </v>
   <v>       0.25559374       0.54375661       0.04650188 </v>
   <v>       0.49106871       0.62476706       0.10060451 </v>
   <v>       0.51242327       0.82444729       0.13306316 </v>
   <v>       0.28365078       0.86287632       0.10191223 </v>
   <v>       0.77659904       0.82879806       0.04629452 </v>
   <v>       0.55434119       0.08232662       0.24110015 </v>
   <v>       0.55416355       0.33183337       0.24096786 </v>
   <v>       0.44500011       0.41648731       0.75169034 </v>
   <v>       0.55427313       0.58158681       0.24119177 </v>
   <v>       0.44500750       0.66649450       0.75169418 </v>
   <v>       0.55386438       0.83166118       0.24100044 </v>
   <v>       0.44500751       0.91649811       0.75169596 </v>
   <v>       0.88762532       0.33189722       0.24095653 </v>
   <v>       0.77833298       0.16648012       0.75168583 </v>
   <v>       0.77833140       0.41647798       0.75168488 </v>
   <v>       0.88754923       0.58182420       0.24096749 </v>
   <v>       0.77833632       0.66648464       0.75168935 </v>
   <v>       0.88727921       0.83169736       0.24083584 </v>
   <v>       0.77833518       0.91648874       0.75169141 </v>
   <v>       0.11167592       0.91648937       0.75169591 </v>
   <v>       0.88736913       0.08187348       0.24084976 </v>
   <v>       0.22037761       0.83159743       0.24101232 </v>
   <v>       0.44499939       0.16649055       0.75169139 </v>
   <v>       0.22054540       0.58168596       0.24111787 </v>
   <v>       0.11167173       0.41648593       0.75168880 </v>
   <v>       0.22086576       0.33186497       0.24094652 </v>
   <v>       0.22078963       0.08184914       0.24087296 </v>
   <v>       0.11167474       0.16649062       0.75169109 </v>
   <v>       0.11167615       0.66648865       0.75169380 </v>
   <v>       0.77616377       0.16453092       0.28550801 </v>
   <v>       0.89006967       0.08395283       0.79621925 </v>
   <v>       0.77557311       0.16452713       0.19640087 </v>
   <v>       0.89005684       0.08392619       0.70712546 </v>
   <v>       0.22340140       0.08392708       0.70712487 </v>
   <v>       0.10912377       0.16447599       0.19635574 </v>
   <v>       0.77580307       0.41442105       0.28548738 </v>
   <v>       0.89006265       0.33393989       0.79621613 </v>
   <v>       0.10920227       0.66427194       0.19643175 </v>
   <v>       0.55673627       0.83393644       0.70712814 </v>
   <v>       0.89005929       0.33392992       0.70712434 </v>
   <v>       0.22341384       0.08394691       0.79622168 </v>
   <v>       0.10894333       0.16429117       0.28539342 </v>
   <v>       0.77630421       0.66466804       0.28554885 </v>
   <v>       0.89005993       0.58393183       0.79621797 </v>
   <v>       0.77532898       0.66403079       0.19641761 </v>
   <v>       0.89006459       0.58393672       0.70712737 </v>
   <v>       0.77574368       0.91438800       0.28539014 </v>
   <v>       0.89006415       0.83394353       0.79622144 </v>
   <v>       0.77585452       0.41445473       0.19642531 </v>
   <v>       0.44218477       0.91507363       0.19673436 </v>
   <v>       0.44225350       0.91445299       0.28555381 </v>
   <v>       0.22341452       0.58394310       0.70712545 </v>
   <v>       0.22340432       0.58393028       0.79622116 </v>
   <v>       0.10874089       0.91440091       0.28541884 </v>
   <v>       0.22340684       0.83393885       0.79622616 </v>
   <v>       0.10905645       0.91422361       0.19634206 </v>
   <v>       0.22340859       0.83393854       0.70712950 </v>
   <v>       0.10881584       0.66432463       0.28560989 </v>
   <v>       0.77523766       0.91423945       0.19630768 </v>
   <v>       0.44209928       0.16454927       0.28553025 </v>
   <v>       0.55675072       0.08395730       0.79622278 </v>
   <v>       0.44258082       0.16453063       0.19640200 </v>
   <v>       0.55672391       0.08392578       0.70712454 </v>
   <v>       0.44225638       0.41405645       0.28559279 </v>
   <v>       0.55674558       0.33394081       0.79621876 </v>
   <v>       0.44258786       0.41452452       0.19645613 </v>
   <v>       0.55672404       0.33392302       0.70712184 </v>
   <v>       0.22340177       0.33392853       0.70712136 </v>
   <v>       0.10916939       0.41450674       0.19644076 </v>
   <v>       0.44236953       0.66436553       0.28565264 </v>
   <v>       0.55673790       0.58393723       0.79622125 </v>
   <v>       0.44211243       0.66342284       0.19686448 </v>
   <v>       0.55673511       0.58393867       0.70712582 </v>
   <v>       0.22340662       0.33394022       0.79621844 </v>
   <v>       0.10899953       0.41413324       0.28556438 </v>
   <v>       0.55674728       0.83394785       0.79622427 </v>
   <v>       0.89006329       0.83394273       0.70713002 </v>
  </varray>
 </structure>
</modeling>
