basalPlane                              
           1
     9.570946    0.000000    0.000000
    -6.380628   11.051579    0.000000
     0.000000    0.000000   34.880263
   C    Co   H    Mo   S 
  10   1  10  24  48
Direct configuration=     1
   0.40486637  0.64979643  0.07934719
   0.27928470  0.61703034  0.05166975
   0.42324072  0.75278882  0.10008694
   0.30858297  0.78340642  0.08530620
   0.21982000  0.69964077  0.05535375
   0.59329146  0.79960546  0.99269741
   0.54305677  0.95274244  0.01039488
   0.49445062  0.85217449  0.98501813
   0.67161581  0.96208314  0.03385291
   0.70271212  0.86747569  0.02287551
   0.46473225  0.79376516  0.04178601
   0.12618095  0.70051236  0.03793449
   0.39739810  0.81983147  0.96409264
   0.73316529  0.02825605  0.05642675
   0.48900754  0.00995469  0.01215770
   0.58448695  0.72043160  0.97866420
   0.23855627  0.54385113  0.03094525
   0.47605829  0.60575558  0.08330890
   0.51069867  0.80048158  0.12267584
   0.29383938  0.85869280  0.09453792
   0.79160769  0.84892113  0.03571548
   0.55555566  0.08333325  0.25000928
   0.55555566  0.33333325  0.25000928
   0.44444432  0.41666674  0.74999076
   0.55555566  0.58333325  0.25000928
   0.44444432  0.66666674  0.74999076
   0.55555566  0.83333325  0.25000928
   0.44444432  0.91666674  0.74999076
   0.88888899  0.33333325  0.25000928
   0.77777765  0.16666674  0.74999076
   0.77777765  0.41666674  0.74999076
   0.88888899  0.58333325  0.25000928
   0.77777765  0.66666674  0.74999076
   0.88888899  0.83333325  0.25000928
   0.77777765  0.91666674  0.74999076
   0.11111099  0.91666674  0.74999076
   0.88888899  0.08333325  0.25000928
   0.22222233  0.83333325  0.25000928
   0.44444432  0.16666674  0.74999076
   0.22222233  0.58333325  0.25000928
   0.11111099  0.41666674  0.74999076
   0.22222233  0.33333325  0.25000928
   0.22222233  0.08333325  0.25000928
   0.11111099  0.16666674  0.74999076
   0.11111099  0.66666674  0.74999076
   0.77777765  0.16666674  0.29487388
   0.88888899  0.08333325  0.79485533
   0.77777765  0.16666674  0.20514467
   0.88888899  0.08333325  0.70512613
   0.22222233  0.08333325  0.70512613
   0.11111099  0.16666674  0.20514467
   0.77777765  0.41666674  0.29487388
   0.88888899  0.33333325  0.79485533
   0.11111099  0.66666674  0.20514467
   0.55555566  0.83333325  0.70512613
   0.88888899  0.33333325  0.70512613
   0.22222233  0.08333325  0.79485533
   0.11111099  0.16666674  0.29487388
   0.77777765  0.66666674  0.29487388
   0.88888899  0.58333325  0.79485533
   0.77777765  0.66666674  0.20514467
   0.88888899  0.58333325  0.70512613
   0.77777765  0.91666674  0.29487388
   0.88888899  0.83333325  0.79485533
   0.77777765  0.41666674  0.20514467
   0.44444432  0.91666674  0.20514467
   0.44444432  0.91666674  0.29487388
   0.22222233  0.58333325  0.70512613
   0.22222233  0.58333325  0.79485533
   0.11111099  0.91666674  0.29487388
   0.22222233  0.83333325  0.79485533
   0.11111099  0.91666674  0.20514467
   0.22222233  0.83333325  0.70512613
   0.11111099  0.66666674  0.29487388
   0.77777765  0.91666674  0.20514467
   0.44444432  0.16666674  0.29487388
   0.55555566  0.08333325  0.79485533
   0.44444432  0.16666674  0.20514467
   0.55555566  0.08333325  0.70512613
   0.44444432  0.41666674  0.29487388
   0.55555566  0.33333325  0.79485533
   0.44444432  0.41666674  0.20514467
   0.55555566  0.33333325  0.70512613
   0.22222233  0.33333325  0.70512613
   0.11111099  0.41666674  0.20514467
   0.44444432  0.66666674  0.29487388
   0.55555566  0.58333325  0.79485533
   0.44444432  0.66666674  0.20514467
   0.55555566  0.58333325  0.70512613
   0.22222233  0.33333325  0.79485533
   0.11111099  0.41666674  0.29487388
   0.55555566  0.83333325  0.79485533
   0.88888899  0.83333325  0.70512613
Direct configuration=     2
   0.40523926  0.65028994  0.07924838
   0.27992807  0.61741528  0.05156565
   0.42373163  0.75317049  0.09998537
   0.30919648  0.78365123  0.08521026
   0.22048180  0.70005897  0.05527544
   0.59277591  0.79932859  0.99282776
   0.54270716  0.95229902  0.01051395
   0.49402397  0.85185064  0.98514315
   0.67111489  0.96174984  0.03396609
   0.70204808  0.86714589  0.02297330
   0.46446961  0.79359905  0.04173574
   0.12619373  0.70046585  0.03790557
   0.39738223  0.81982192  0.96408884
   0.73304940  0.02816281  0.05647031
   0.48902565  0.00997787  0.01217220
   0.58439251  0.72040833  0.97865586
   0.23859729  0.54388631  0.03092749
   0.47610348  0.60581187  0.08334181
   0.51067681  0.80051826  0.12270776
   0.29396801  0.85871698  0.09458944
   0.79156664  0.84889626  0.03575712
   0.55624718  0.08416052  0.24999512
   0.55621705  0.33408551  0.24999010
   0.44382025  0.41589302  0.75000213
   0.55620135  0.58410263  0.24999500
   0.44382292  0.66589579  0.75000205
   0.55617189  0.83404325  0.24998949
   0.44382547  0.91589953  0.75000251
   0.88955923  0.33412770  0.24998417
   0.77718220  0.16588668  0.75000316
   0.77718002  0.41588679  0.75000236
   0.88954578  0.58408718  0.24998541
   0.77718372  0.66588922  0.75000247
   0.88953516  0.83407361  0.24998157
   0.77718584  0.91589257  0.75000397
   0.11047953  0.91589627  0.75000300
   0.88955323  0.08413674  0.24998608
   0.22279401  0.83405242  0.24998041
   0.44382272  0.16589563  0.75000232
   0.22282853  0.58411774  0.24997550
   0.11047804  0.41589046  0.75000208
   0.22284433  0.33411523  0.24998843
   0.22285742  0.08412812  0.24998944
   0.11047834  0.16589479  0.75000292
   0.11047836  0.66589433  0.75000217
   0.77745142  0.16628028  0.29457795
   0.88920081  0.08372347  0.79456741
   0.77745319  0.16628258  0.20544960
   0.88919777  0.08371919  0.70540424
   0.22253644  0.08371927  0.70540423
   0.11079309  0.16628747  0.20545098
   0.77745184  0.41628744  0.29458022
   0.88920050  0.33371977  0.79456762
   0.11080551  0.66628545  0.20543034
   0.55586512  0.83371982  0.70540452
   0.88919897  0.33371782  0.70540410
   0.22253902  0.08372402  0.79456757
   0.11078739  0.16628188  0.29457971
   0.77745392  0.66629146  0.29457988
   0.88920147  0.58372367  0.79456725
   0.77744704  0.66627343  0.20544373
   0.88919962  0.58372061  0.70540445
   0.77744770  0.91628349  0.29457879
   0.88920084  0.83372362  0.79456724
   0.77745573  0.41628529  0.20545018
   0.44409254  0.91626052  0.20541814
   0.44412686  0.91628236  0.29457919
   0.22253507  0.58371919  0.70540462
   0.22253781  0.58372309  0.79456776
   0.11078709  0.91628396  0.29457915
   0.22254184  0.83372457  0.79456770
   0.11078887  0.91626712  0.20544471
   0.22253713  0.83371886  0.70540495
   0.11079587  0.66628648  0.29458201
   0.77742907  0.91626562  0.20543116
   0.44412513  0.16628255  0.29457876
   0.55586901  0.08372295  0.79456759
   0.44411636  0.16627851  0.20544828
   0.55586590  0.08371838  0.70540474
   0.44412949  0.41628914  0.29458007
   0.55586528  0.33372168  0.79456781
   0.44411470  0.41628055  0.20544145
   0.55586362  0.33371917  0.70540420
   0.22253707  0.33372000  0.70540451
   0.11078940  0.41628295  0.20544399
   0.44412333  0.66628923  0.29458203
   0.55586901  0.58372253  0.79456744
   0.44409932  0.66624849  0.20543803
   0.55586601  0.58371854  0.70540492
   0.22253851  0.33372215  0.79456727
   0.11078874  0.41628384  0.29458132
   0.55586878  0.83372549  0.79456887
   0.88919782  0.83371810  0.70540449
Direct configuration=     3
   0.40520669  0.65024684  0.07925701
   0.27987188  0.61738166  0.05157474
   0.42368876  0.75313716  0.09999424
   0.30914290  0.78362985  0.08521864
   0.22042401  0.70002245  0.05528228
   0.59282094  0.79935277  0.99281638
   0.54273769  0.95233774  0.01050355
   0.49406123  0.85187892  0.98513223
   0.67115863  0.96177895  0.03395620
   0.70210607  0.86717469  0.02296476
   0.46449255  0.79361356  0.04174013
   0.12619262  0.70046991  0.03790810
   0.39738362  0.81982276  0.96408917
   0.73305952  0.02817095  0.05646651
   0.48902407  0.00997584  0.01217093
   0.58440076  0.72041037  0.97865659
   0.23859371  0.54388324  0.03092904
   0.47609953  0.60580695  0.08333893
   0.51067872  0.80051506  0.12270497
   0.29395678  0.85871486  0.09458494
   0.79157023  0.84889843  0.03575348
   0.55618678  0.08408828  0.24999635
   0.55615929  0.33401981  0.24999178
   0.44387475  0.41596059  0.75000113
   0.55614496  0.58403544  0.24999625
   0.44387718  0.66596312  0.75000106
   0.55611808  0.83398125  0.24999122
   0.44387951  0.91596653  0.75000149
   0.88950070  0.33405832  0.24998636
   0.77723420  0.16595480  0.75000208
   0.77723221  0.41595490  0.75000134
   0.88948842  0.58402134  0.24998749
   0.77723558  0.66595712  0.75000145
   0.88947873  0.83400895  0.24998399
   0.77723752  0.91596018  0.75000282
   0.11053467  0.91596356  0.75000193
   0.88949522  0.08406657  0.24998811
   0.22274409  0.83398961  0.24998294
   0.44387700  0.16596297  0.75000131
   0.22277559  0.58404923  0.24997845
   0.11053332  0.41595825  0.75000109
   0.22279001  0.33404694  0.24999025
   0.22280196  0.08405871  0.24999117
   0.11053359  0.16596220  0.75000186
   0.11053360  0.66596178  0.75000117
   0.77747991  0.16631403  0.29460380
   0.88917357  0.08368939  0.79459256
   0.77748153  0.16631613  0.20542297
   0.88917080  0.08368549  0.70537996
   0.22250901  0.08368556  0.70537994
   0.11082085  0.16632059  0.20542423
   0.77748029  0.41632056  0.29460587
   0.88917330  0.33368601  0.79459274
   0.11083218  0.66631875  0.20540539
   0.55583809  0.83368606  0.70538020
   0.88917190  0.33368424  0.70537982
   0.22251136  0.08368989  0.79459270
   0.11081565  0.16631549  0.29460540
   0.77748219  0.66632423  0.29460555
   0.88917418  0.58368958  0.79459241
   0.77747591  0.66630778  0.20541761
   0.88917249  0.58368678  0.70538014
   0.77747651  0.91631696  0.29460456
   0.88917360  0.83368953  0.79459240
   0.77748385  0.41631860  0.20542350
   0.44412327  0.91629600  0.20539425
   0.44415458  0.91631593  0.29460492
   0.22250776  0.58368549  0.70538030
   0.22251025  0.58368904  0.79459288
   0.11081537  0.91631739  0.29460489
   0.22251394  0.83369039  0.79459282
   0.11081700  0.91630202  0.20541851
   0.22250964  0.83368519  0.70538060
   0.11082338  0.66631969  0.29460750
   0.77745951  0.91630065  0.20540614
   0.44415301  0.16631610  0.29460454
   0.55584165  0.08368892  0.79459272
   0.44414500  0.16631241  0.20542176
   0.55583881  0.08368475  0.70538040
   0.44415699  0.41632211  0.29460573
   0.55583824  0.33368776  0.79459292
   0.44414348  0.41631427  0.20541553
   0.55583673  0.33368547  0.70537991
   0.22250959  0.33368623  0.70538020
   0.11081748  0.41631647  0.20541785
   0.44415136  0.66632220  0.29460752
   0.55584164  0.58368853  0.79459259
   0.44412944  0.66628502  0.20541241
   0.55583890  0.58368489  0.70538057
   0.22251090  0.33368819  0.79459242
   0.11081688  0.41631728  0.29460687
   0.55584144  0.83369123  0.79459389
   0.88917085  0.83368449  0.70538018
Direct configuration=     4
   0.40595907  0.65029833  0.07921243
   0.28007118  0.61762644  0.05146746
   0.42415568  0.75345091  0.09995807
   0.30944139  0.78416732  0.08519514
   0.22056059  0.70013904  0.05513636
   0.59236986  0.79891928  0.99285069
   0.54216714  0.95236363  0.01060144
   0.49357072  0.85155418  0.98517404
   0.67088000  0.96153589  0.03405805
   0.70206011  0.86690520  0.02312008
   0.46446037  0.79359700  0.04171893
   0.12651894  0.70047590  0.03793092
   0.39750299  0.81985830  0.96412582
   0.73281769  0.02796411  0.05648894
   0.48920949  0.00975023  0.01218639
   0.58430521  0.72051683  0.97868392
   0.23875672  0.54405241  0.03094261
   0.47592802  0.60606693  0.08335238
   0.51061632  0.80053176  0.12270795
   0.29415863  0.85857861  0.09460522
   0.79116596  0.84889584  0.03575747
   0.55599660  0.08389149  0.24999200
   0.55597862  0.33385340  0.24999413
   0.44403682  0.41614005  0.74999599
   0.55596872  0.58385780  0.24999622
   0.44404001  0.66614438  0.74999653
   0.55593379  0.83380741  0.24998295
   0.44404240  0.91614541  0.74999678
   0.88931585  0.33387880  0.24999159
   0.77738415  0.16613524  0.74999650
   0.77738203  0.41613410  0.74999601
   0.88931800  0.58385552  0.24998854
   0.77738517  0.66613814  0.74999635
   0.88929080  0.83383335  0.24998199
   0.77738589  0.91613938  0.74999761
   0.11070574  0.91614319  0.74999731
   0.88929540  0.08387840  0.24998795
   0.22258253  0.83380875  0.24997993
   0.44403817  0.16614242  0.74999601
   0.22260917  0.58387442  0.24997938
   0.11070338  0.41613737  0.74999637
   0.22262643  0.33387615  0.24999470
   0.22263560  0.08387433  0.24999425
   0.11070470  0.16613991  0.74999662
   0.11070512  0.66613975  0.74999678
   0.77758416  0.16641915  0.29452732
   0.88909671  0.08359679  0.79452826
   0.77757615  0.16641983  0.20548164
   0.88909277  0.08359085  0.70545402
   0.22242825  0.08359682  0.70545580
   0.11091614  0.16642525  0.20548274
   0.77757461  0.41641075  0.29452893
   0.88909389  0.33359206  0.79452725
   0.11091112  0.66640281  0.20545004
   0.55576365  0.83359806  0.70545697
   0.88909184  0.33358927  0.70545396
   0.22243224  0.08360308  0.79452565
   0.11090252  0.16641565  0.29452979
   0.77757559  0.66641309  0.29452661
   0.88909506  0.58359463  0.79452692
   0.77755066  0.66637876  0.20547551
   0.88909282  0.58359091  0.70545420
   0.77756198  0.91640118  0.29451897
   0.88909663  0.83359798  0.79452741
   0.77757277  0.41640666  0.20548156
   0.44420145  0.91637874  0.20544890
   0.44423503  0.91639947  0.29451698
   0.22242772  0.58359619  0.70545614
   0.22243127  0.58360094  0.79452547
   0.11089981  0.91640281  0.29452301
   0.22243589  0.83360445  0.79452592
   0.11090772  0.91638795  0.20547595
   0.22242983  0.83359779  0.70545659
   0.11090898  0.66640626  0.29452861
   0.77752903  0.91637651  0.20546176
   0.44424287  0.16640858  0.29452985
   0.55576571  0.08360222  0.79452629
   0.44423613  0.16640359  0.20548199
   0.55576284  0.08359651  0.70545610
   0.44424806  0.41641059  0.29452718
   0.55576248  0.33359908  0.79452546
   0.44423373  0.41640302  0.20547589
   0.55576109  0.33359604  0.70545575
   0.22242828  0.33359617  0.70545541
   0.11090741  0.41641119  0.20547068
   0.44421680  0.66640095  0.29452877
   0.55576483  0.58360120  0.79452535
   0.44420477  0.66634176  0.20546813
   0.55576218  0.58359603  0.70545653
   0.22242990  0.33359909  0.79452551
   0.11090876  0.41642282  0.29452821
   0.55576593  0.83360451  0.79452704
   0.88909298  0.83359187  0.70545471
Direct configuration=     5
   0.40562692  0.65027560  0.07923211
   0.27998319  0.61751838  0.05151482
   0.42394955  0.75331240  0.09997404
   0.30930962  0.78393004  0.08520552
   0.22050029  0.70008757  0.05520078
   0.59256899  0.79911065  0.99283554
   0.54241902  0.95235220  0.01055822
   0.49378726  0.85169754  0.98515558
   0.67100301  0.96164319  0.03401309
   0.70208040  0.86702417  0.02305151
   0.46447458  0.79360431  0.04172829
   0.12637488  0.70047326  0.03792085
   0.39745029  0.81984261  0.96410964
   0.73292445  0.02805543  0.05647903
   0.48912763  0.00984983  0.01217956
   0.58434739  0.72046983  0.97867185
   0.23868475  0.54397773  0.03093662
   0.47600374  0.60595215  0.08334645
   0.51064386  0.80052439  0.12270664
   0.29406952  0.85863876  0.09459627
   0.79134443  0.84889698  0.03575571
   0.55608056  0.08397837  0.24999392
   0.55605838  0.33392686  0.24999309
   0.44396527  0.41606082  0.74999826
   0.55604653  0.58393622  0.24999623
   0.44396812  0.66606436  0.74999853
   0.55601515  0.83388415  0.24998660
   0.44397049  0.91606644  0.74999886
   0.88939745  0.33395805  0.24998929
   0.77731795  0.16605558  0.74999896
   0.77731589  0.41605499  0.74999836
   0.88939323  0.58392872  0.24998808
   0.77731913  0.66605823  0.74999860
   0.88937377  0.83391087  0.24998287
   0.77732039  0.91606027  0.74999991
   0.11063022  0.91606389  0.74999935
   0.88938361  0.08396147  0.24998802
   0.22265385  0.83388860  0.24998126
   0.44396702  0.16606320  0.74999835
   0.22268264  0.58395160  0.24997897
   0.11062830  0.41605829  0.74999846
   0.22269864  0.33395155  0.24999274
   0.22270904  0.08395573  0.24999289
   0.11062916  0.16606146  0.74999893
   0.11062940  0.66606118  0.74999872
   0.77753814  0.16637275  0.29456108
   0.88913064  0.08363767  0.79455665
   0.77753438  0.16637405  0.20545574
   0.88912722  0.08363263  0.70542132
   0.22246390  0.08363600  0.70542231
   0.11087407  0.16637904  0.20545691
   0.77753297  0.41637094  0.29456289
   0.88912894  0.33363354  0.79455616
   0.11087627  0.66636570  0.20543033
   0.55579652  0.83363691  0.70542308
   0.88912719  0.33363120  0.70542123
   0.22246717  0.08364140  0.79455525
   0.11086417  0.16637143  0.29456317
   0.77753436  0.66637386  0.29456146
   0.88912999  0.58363655  0.79455583
   0.77751766  0.66634742  0.20544995
   0.88912799  0.58363323  0.70542150
   0.77752425  0.91636400  0.29455675
   0.88913061  0.83363839  0.79455610
   0.77753351  0.41636778  0.20545593
   0.44416693  0.91634221  0.20542477
   0.44419951  0.91636259  0.29455581
   0.22246306  0.58363561  0.70542266
   0.22246614  0.58363983  0.79455523
   0.11086254  0.91636510  0.29455916
   0.22247035  0.83364239  0.79455545
   0.11086767  0.91635001  0.20545059
   0.22246506  0.83363637  0.70542304
   0.11087119  0.66636804  0.29456344
   0.77749834  0.91634302  0.20543721
   0.44420320  0.16636775  0.29456282
   0.55579923  0.08364050  0.79455562
   0.44419590  0.16636333  0.20545540
   0.55579638  0.08363547  0.70542269
   0.44420785  0.41637153  0.29456186
   0.55579593  0.33363823  0.79455524
   0.44419389  0.41636384  0.20544925
   0.55579448  0.33363552  0.70542227
   0.22246417  0.33363593  0.70542220
   0.11086771  0.41636937  0.20544736
   0.44418791  0.66636618  0.29456354
   0.55579874  0.58363976  0.79455503
   0.44417152  0.66631671  0.20544353
   0.55579605  0.58363526  0.70542299
   0.22246566  0.33363842  0.79455505
   0.11086820  0.41637623  0.29456294
   0.55579926  0.83364280  0.79455655
   0.88912736  0.83363276  0.70542181
Direct configuration=     6
   0.40579758  0.65062840  0.07915918
   0.28038944  0.61781161  0.05147732
   0.42416353  0.75345802  0.09988993
   0.30961395  0.78397634  0.08511839
   0.22096997  0.70034184  0.05516525
   0.59229786  0.79901825  0.99293602
   0.54221103  0.95199406  0.01062722
   0.49360347  0.85157377  0.98525648
   0.67061213  0.96134878  0.03406497
   0.70154990  0.86679246  0.02310377
   0.46446049  0.79359881  0.04171814
   0.12650802  0.70047937  0.03790337
   0.39742165  0.81982053  0.96411818
   0.73272239  0.02788916  0.05651896
   0.48911478  0.00982161  0.01220348
   0.58422414  0.72042161  0.97867457
   0.23881078  0.54409213  0.03092897
   0.47611246  0.60604088  0.08337079
   0.51067428  0.80059312  0.12272622
   0.29422812  0.85872181  0.09463773
   0.79118999  0.84883770  0.03579877
   0.55592903  0.08381532  0.24998714
   0.55591511  0.33378658  0.24999162
   0.44409729  0.41621143  0.74999656
   0.55590494  0.58378612  0.24999295
   0.44410094  0.66621632  0.74999731
   0.55586573  0.83373588  0.24997581
   0.44410336  0.91621687  0.74999757
   0.88925401  0.33381185  0.24998919
   0.77744280  0.16620634  0.74999707
   0.77744060  0.41620484  0.74999654
   0.88926082  0.58379165  0.24998460
   0.77744386  0.66620954  0.74999700
   0.88922562  0.83376618  0.24997708
   0.77744435  0.91621043  0.74999834
   0.11076431  0.91621172  0.74999810
   0.88922855  0.08380760  0.24998397
   0.22252183  0.83373696  0.24997454
   0.44409862  0.16621369  0.74999657
   0.22254547  0.58380395  0.24997508
   0.11076208  0.41620539  0.74999700
   0.22256544  0.33380944  0.24999240
   0.22257317  0.08380224  0.24999174
   0.11076296  0.16620775  0.74999723
   0.11076368  0.66620786  0.74999756
   0.77762015  0.16645797  0.29451699
   0.88906941  0.08356181  0.79452118
   0.77761018  0.16646008  0.20548473
   0.88906487  0.08355482  0.70546338
   0.22239973  0.08356286  0.70546552
   0.11094953  0.16646487  0.20548689
   0.77760867  0.41644665  0.29451858
   0.88906541  0.33355632  0.79451983
   0.11093642  0.66643309  0.20544846
   0.55573677  0.83356464  0.70546695
   0.88906317  0.33355320  0.70546328
   0.22240462  0.08357022  0.79451805
   0.11093108  0.16645301  0.29451932
   0.77760998  0.66644764  0.29451528
   0.88906677  0.58355863  0.79451946
   0.77757577  0.66640482  0.20547843
   0.88906440  0.58355456  0.70546361
   0.77758916  0.91643204  0.29450440
   0.88906923  0.83356337  0.79452019
   0.77760360  0.41644026  0.20548510
   0.44422823  0.91640990  0.20545020
   0.44426289  0.91642994  0.29450190
   0.22239965  0.58356214  0.70546598
   0.22240366  0.58356740  0.79451781
   0.11092899  0.91643372  0.29451007
   0.22240840  0.83357169  0.79451839
   0.11093961  0.91642143  0.20547886
   0.22240164  0.83356442  0.70546648
   0.11093943  0.66643968  0.29451680
   0.77755324  0.91640586  0.20546351
   0.44427539  0.16644357  0.29452031
   0.55573880  0.08356945  0.79451899
   0.44426739  0.16643918  0.20548568
   0.55573527  0.08356303  0.70546569
   0.44428060  0.41644498  0.29451682
   0.55573545  0.33356522  0.79451780
   0.44426443  0.41643626  0.20548002
   0.55573362  0.33356198  0.70546534
   0.22239948  0.33356169  0.70546496
   0.11093778  0.41644611  0.20547270
   0.44423935  0.66643189  0.29451710
   0.55573738  0.58356798  0.79451781
   0.44423000  0.66636187  0.20546984
   0.55573427  0.58356240  0.70546624
   0.22240133  0.33356520  0.79451791
   0.11094205  0.41646473  0.29451703
   0.55573912  0.83357156  0.79451974
   0.88906525  0.83355688  0.70546425
Direct configuration=     7
   0.40577487  0.65058145  0.07916888
   0.28033537  0.61777258  0.05148231
   0.42413505  0.75343864  0.09990112
   0.30957344  0.78397018  0.08512999
   0.22090747  0.70030800  0.05516997
   0.59233394  0.79903055  0.99292265
   0.54223871  0.95204173  0.01061803
   0.49362793  0.85159024  0.98524305
   0.67066415  0.96138796  0.03405806
   0.70162050  0.86682329  0.02309681
   0.46446237  0.79359954  0.04171949
   0.12649030  0.70047856  0.03790570
   0.39742546  0.81982347  0.96411704
   0.73274928  0.02791129  0.05651365
   0.48911649  0.00982536  0.01220030
   0.58424054  0.72042802  0.97867421
   0.23879401  0.54407690  0.03092999
   0.47609799  0.60602907  0.08336755
   0.51067023  0.80058397  0.12272362
   0.29420701  0.85871076  0.09463222
   0.79121055  0.84884559  0.03579304
   0.55594919  0.08383702  0.24998804
   0.55593418  0.33380525  0.24999182
   0.44407972  0.41619139  0.74999678
   0.55592379  0.58380609  0.24999338
   0.44408326  0.66619609  0.74999747
   0.55588562  0.83375561  0.24997725
   0.44408568  0.91619685  0.74999774
   0.88927310  0.33383131  0.24998920
   0.77742618  0.16618628  0.74999732
   0.77742400  0.41618489  0.74999678
   0.88927844  0.58380989  0.24998506
   0.77742726  0.66618940  0.74999721
   0.88924534  0.83378543  0.24997785
   0.77742786  0.91619045  0.74999855
   0.11074647  0.91619205  0.74999827
   0.88924919  0.08382808  0.24998451
   0.22253940  0.83375714  0.24997543
   0.44408110  0.16619366  0.74999681
   0.22256373  0.58382360  0.24997560
   0.11074427  0.41618581  0.74999719
   0.22258317  0.33382835  0.24999244
   0.22259125  0.08382267  0.24999189
   0.11074515  0.16618828  0.74999745
   0.11074581  0.66618834  0.74999771
   0.77760924  0.16644662  0.29452285
   0.88907756  0.08357190  0.79452590
   0.77760009  0.16644863  0.20548087
   0.88907317  0.08356517  0.70545778
   0.22240827  0.08357260  0.70545977
   0.11093949  0.16645345  0.20548290
   0.77759859  0.41643657  0.29452448
   0.88907386  0.33356660  0.79452467
   0.11092842  0.66642412  0.20544605
   0.55574472  0.83357426  0.70546111
   0.88907169  0.33356358  0.70545769
   0.22241295  0.08357969  0.79452300
   0.11092218  0.16644216  0.29452516
   0.77759991  0.66643782  0.29452143
   0.88907518  0.58356900  0.79452430
   0.77756803  0.66639718  0.20547464
   0.88907286  0.58356503  0.70545801
   0.77758052  0.91642298  0.29451137
   0.88907740  0.83357336  0.79452497
   0.77759427  0.41643061  0.20548122
   0.44422007  0.91640089  0.20544682
   0.44425446  0.91642098  0.29450908
   0.22240809  0.58357192  0.70546022
   0.22241197  0.58357704  0.79452279
   0.11092015  0.91642458  0.29451660
   0.22241664  0.83358110  0.79452333
   0.11093004  0.91641192  0.20547510
   0.22241008  0.83357399  0.70546070
   0.11093035  0.66643015  0.29452301
   0.77754594  0.91639750  0.20546001
   0.44426579  0.16643348  0.29452596
   0.55574684  0.08357890  0.79452386
   0.44425787  0.16642909  0.20548165
   0.55574340  0.08357267  0.70545996
   0.44427092  0.41643521  0.29452281
   0.55574350  0.33357493  0.79452279
   0.44425504  0.41642662  0.20547593
   0.55574172  0.33357177  0.70545961
   0.22240809  0.33357157  0.70545927
   0.11092845  0.41643590  0.20546933
   0.44423251  0.66642314  0.29452328
   0.55574554  0.58357753  0.79452276
   0.44422222  0.66635586  0.20546634
   0.55574250  0.58357210  0.70546048
   0.22240989  0.33357494  0.79452285
   0.11093222  0.41645295  0.29452314
   0.55574713  0.83358104  0.79452464
   0.88907351  0.83356698  0.70545861
Direct configuration=     8
   0.40594028  0.65073973  0.07913507
   0.28051373  0.61783038  0.05143669
   0.42436579  0.75360942  0.09989777
   0.30977447  0.78410022  0.08510193
   0.22106442  0.70044185  0.05513765
   0.59213747  0.79887979  0.99295365
   0.54209164  0.95190405  0.01066065
   0.49341476  0.85146259  0.98526008
   0.67054808  0.96132759  0.03412125
   0.70142198  0.86669157  0.02313833
   0.46445584  0.79359928  0.04172442
   0.12653909  0.70050011  0.03787904
   0.39737807  0.81979461  0.96412581
   0.73259732  0.02778808  0.05654473
   0.48904864  0.00982572  0.01222216
   0.58413925  0.72036889  0.97867957
   0.23889069  0.54415250  0.03091679
   0.47622610  0.60607883  0.08337824
   0.51067867  0.80062265  0.12272157
   0.29431900  0.85878181  0.09465101
   0.79113506  0.84877563  0.03583325
   0.55596576  0.08384006  0.24998041
   0.55595258  0.33380721  0.24998563
   0.44407108  0.41619009  0.75000005
   0.55593792  0.58380469  0.24998698
   0.44407525  0.66619521  0.75000085
   0.55589546  0.83375073  0.24996723
   0.44407799  0.91619659  0.75000124
   0.88929420  0.33384036  0.24998180
   0.77741802  0.16618087  0.75000078
   0.77741554  0.41617918  0.75000003
   0.88929986  0.58381573  0.24997645
   0.77741928  0.66618430  0.75000059
   0.88925947  0.83378631  0.24996836
   0.77742038  0.91618591  0.75000222
   0.11073465  0.91618706  0.75000184
   0.88926751  0.08383570  0.24997655
   0.22254967  0.83375574  0.24996551
   0.44407297  0.16619246  0.75000014
   0.22257075  0.58382593  0.24996590
   0.11073175  0.41617987  0.75000052
   0.22259871  0.33383649  0.24998580
   0.22260562  0.08382880  0.24998553
   0.11073272  0.16618274  0.75000094
   0.11073364  0.66618297  0.75000109
   0.77760133  0.16644670  0.29451813
   0.88908377  0.08357334  0.79452469
   0.77759357  0.16645248  0.20547924
   0.88907847  0.08356512  0.70545878
   0.22241431  0.08357372  0.70546060
   0.11093416  0.16645647  0.20548326
   0.77759305  0.41643949  0.29452028
   0.88907919  0.33356712  0.79452333
   0.11091531  0.66641830  0.20544094
   0.55575138  0.83357643  0.70546183
   0.88907697  0.33356351  0.70545862
   0.22242075  0.08358238  0.79452209
   0.11091023  0.16644212  0.29452007
   0.77759526  0.66643862  0.29451611
   0.88908037  0.58356944  0.79452292
   0.77755416  0.66638872  0.20547259
   0.88907831  0.58356515  0.70545912
   0.77756406  0.91641795  0.29450299
   0.88908349  0.83357482  0.79452381
   0.77758527  0.41642927  0.20548066
   0.44420763  0.91639676  0.20544167
   0.44424370  0.91641475  0.29450017
   0.22241473  0.58357330  0.70546124
   0.22241952  0.58357885  0.79452187
   0.11091080  0.91641882  0.29450953
   0.22242412  0.83358357  0.79452252
   0.11092376  0.91641119  0.20547324
   0.22241643  0.83357561  0.70546183
   0.11092454  0.66642993  0.29451668
   0.77753215  0.91639332  0.20545592
   0.44426012  0.16643179  0.29452178
   0.55575388  0.08358219  0.79452307
   0.44424960  0.16642962  0.20548094
   0.55574963  0.08357450  0.70546044
   0.44426456  0.41643518  0.29451928
   0.55575012  0.33357719  0.79452176
   0.44424585  0.41642367  0.20547540
   0.55574789  0.33357341  0.70546006
   0.22241386  0.33357254  0.70546010
   0.11091894  0.41643401  0.20546793
   0.44421867  0.66642162  0.29451710
   0.55575206  0.58358022  0.79452188
   0.44420886  0.66634104  0.20546295
   0.55574852  0.58357435  0.70546109
   0.22241674  0.33357650  0.79452184
   0.11092744  0.41645980  0.29451826
   0.55575415  0.83358414  0.79452406
   0.88907929  0.83356787  0.70545975
Direct configuration=     9
   0.40615199  0.65094231  0.07909180
   0.28074202  0.61790435  0.05137831
   0.42466111  0.75382801  0.09989349
   0.31003177  0.78426665  0.08506602
   0.22126532  0.70061316  0.05509629
   0.59188599  0.79868684  0.99299333
   0.54190341  0.95172785  0.01071519
   0.49314192  0.85129921  0.98528189
   0.67039953  0.96125032  0.03420212
   0.70116789  0.86652297  0.02319146
   0.46444749  0.79359893  0.04173072
   0.12660154  0.70052771  0.03784492
   0.39731743  0.81975767  0.96413702
   0.73240281  0.02763037  0.05658452
   0.48896179  0.00982618  0.01225013
   0.58400961  0.72029320  0.97868644
   0.23901444  0.54424926  0.03089990
   0.47639008  0.60614252  0.08339193
   0.51068948  0.80067217  0.12271894
   0.29446233  0.85887275  0.09467507
   0.79103844  0.84868608  0.03588472
   0.55598697  0.08384396  0.24997064
   0.55597612  0.33380972  0.24997771
   0.44406001  0.41618842  0.75000423
   0.55595602  0.58380288  0.24997878
   0.44406499  0.66619408  0.75000517
   0.55590806  0.83374447  0.24995441
   0.44406816  0.91619626  0.75000571
   0.88932121  0.33385196  0.24997232
   0.77740758  0.16617395  0.75000520
   0.77740472  0.41617186  0.75000420
   0.88932727  0.58382321  0.24996543
   0.77740906  0.66617777  0.75000490