  93  93   0   0
  0.3967126E+02  0.9570947E-09  0.1276126E-08  0.3488026E-08  0.5000000E-15
  1.000000000000000E-004
  CAR 
 basalPlane                              
      2.29949905    -19.28339956  301      0.00131815      1.00000000
    -19.283  0.0000E+00  0.0000E+00
    -19.211  0.0000E+00  0.0000E+00
    -19.140  0.0000E+00  0.0000E+00
    -19.068  0.0000E+00  0.0000E+00
    -18.996  0.0000E+00  0.0000E+00
    -18.924  0.0000E+00  0.0000E+00
    -18.852  0.1235E-17  0.8882E-19
    -18.780  0.3080E-14  0.2216E-15
    -18.708  0.2694E-11  0.1940E-12
    -18.636  0.8573E-09  0.6187E-10
    -18.564  0.9994E-07  0.7252E-08
    -18.492  0.4310E-05  0.3173E-06
    -18.420  0.6959E-04  0.5324E-05
    -18.348  0.4262E-03  0.3599E-04
    -18.276  0.1003E-02  0.1081E-03
    -18.204  0.9117E-03  0.1737E-03
    -18.132  0.3237E-03  0.1970E-03
    -18.060  0.1026E-03  0.2044E-03
    -17.988  0.3910E-03  0.2325E-03
    -17.916  0.9751E-03  0.3026E-03
    -17.845  0.9453E-03  0.3707E-03
    -17.773  0.3542E-03  0.3961E-03
    -17.701  0.5088E-04  0.3998E-03
    -17.629  0.2768E-05  0.4000E-03
    -17.557  0.5628E-07  0.4000E-03
    -17.485  0.4228E-09  0.4000E-03
    -17.413  0.1162E-11  0.4000E-03
    -17.341  0.1161E-14  0.4000E-03
    -17.269  0.6173E-18  0.4000E-03
    -17.197  0.0000E+00  0.4000E-03
    -17.125  0.0000E+00  0.4000E-03
    -17.053  0.0000E+00  0.4000E-03
    -16.981  0.0000E+00  0.4000E-03
    -16.909  0.0000E+00  0.4000E-03
    -16.837  0.0000E+00  0.4000E-03
    -16.765  0.0000E+00  0.4000E-03
    -16.693  0.0000E+00  0.4000E-03
    -16.622  0.0000E+00  0.4000E-03
    -16.550  0.0000E+00  0.4000E-03
    -16.478  0.0000E+00  0.4000E-03
    -16.406  0.1543E-18  0.4000E-03
    -16.334  0.3372E-15  0.4000E-03
    -16.262  0.4133E-12  0.4000E-03
    -16.190  0.1856E-09  0.4000E-03
    -16.118  0.3086E-07  0.4000E-03
    -16.046  0.1922E-05  0.4001E-03
    -15.974  0.4551E-04  0.4034E-03
    -15.902  0.4161E-03  0.4333E-03
    -15.830  0.1491E-02  0.5406E-03
    -15.758  0.2118E-02  0.6930E-03
    -15.686  0.1196E-02  0.7791E-03
    -15.614  0.2671E-03  0.7983E-03
    -15.542  0.2330E-04  0.7999E-03
    -15.470  0.7822E-06  0.8000E-03
    -15.398  0.1074E-07  0.8000E-03
    -15.327  0.1156E-06  0.8000E-03
    -15.255  0.6292E-05  0.8005E-03
    -15.183  0.1305E-03  0.8099E-03
    -15.111  0.1048E-02  0.8853E-03
    -15.039  0.3306E-02  0.1123E-02
    -14.967  0.4143E-02  0.1421E-02
    -14.895  0.2190E-02  0.1579E-02
    -14.823  0.1464E-02  0.1684E-02
    -14.751  0.3413E-02  0.1930E-02
    -14.679  0.4883E-02  0.2281E-02
    -14.607  0.5489E-02  0.2676E-02
    -14.535  0.6696E-02  0.3157E-02
    -14.463  0.4642E-02  0.3491E-02
    -14.391  0.1392E-02  0.3592E-02
    -14.319  0.6703E-03  0.3640E-02
    -14.247  0.2451E-02  0.3816E-02
    -14.175  0.5474E-02  0.4210E-02
    -14.104  0.9033E-02  0.4860E-02
    -14.032  0.1364E-01  0.5841E-02
    -13.960  0.1295E-01  0.6772E-02
    -13.888  0.8326E-02  0.7371E-02
    -13.816  0.8914E-02  0.8013E-02
    -13.744  0.1265E-01  0.8923E-02
    -13.672  0.1293E-01  0.9853E-02
    -13.600  0.8757E-02  0.1048E-01
    -13.528  0.3595E-02  0.1074E-01
    -13.456  0.7387E-03  0.1080E-01
    -13.384  0.6545E-04  0.1080E-01
    -13.312  0.2317E-05  0.1080E-01
    -13.240  0.3153E-07  0.1080E-01
    -13.168  0.1613E-09  0.1080E-01
    -13.096  0.3057E-12  0.1080E-01
    -13.024  0.2120E-15  0.1080E-01
    -12.952  0.0000E+00  0.1080E-01
    -12.880  0.0000E+00  0.1080E-01
    -12.809  0.0000E+00  0.1080E-01
    -12.737  0.0000E+00  0.1080E-01
    -12.665  0.0000E+00  0.1080E-01
    -12.593  0.0000E+00  0.1080E-01
    -12.521  0.0000E+00  0.1080E-01
    -12.449  0.0000E+00  0.1080E-01
    -12.377  0.0000E+00  0.1080E-01
    -12.305  0.0000E+00  0.1080E-01
    -12.233  0.0000E+00  0.1080E-01
    -12.161  0.0000E+00  0.1080E-01
    -12.089  0.0000E+00  0.1080E-01
    -12.017  0.0000E+00  0.1080E-01
    -11.945  0.0000E+00  0.1080E-01
    -11.873  0.0000E+00  0.1080E-01
    -11.801  0.0000E+00  0.1080E-01
    -11.729  0.0000E+00  0.1080E-01
    -11.657  0.0000E+00  0.1080E-01
    -11.585  0.0000E+00  0.1080E-01
    -11.514  0.0000E+00  0.1080E-01
    -11.442  0.0000E+00  0.1080E-01
    -11.370  0.0000E+00  0.1080E-01
    -11.298  0.0000E+00  0.1080E-01
    -11.226  0.0000E+00  0.1080E-01
    -11.154  0.0000E+00  0.1080E-01
    -11.082  0.0000E+00  0.1080E-01
    -11.010  0.0000E+00  0.1080E-01
    -10.938  0.0000E+00  0.1080E-01
    -10.866  0.0000E+00  0.1080E-01
    -10.794  0.0000E+00  0.1080E-01
    -10.722  0.0000E+00  0.1080E-01
    -10.650  0.0000E+00  0.1080E-01
    -10.578  0.0000E+00  0.1080E-01
    -10.506  0.0000E+00  0.1080E-01
    -10.434  0.0000E+00  0.1080E-01
    -10.362  0.0000E+00  0.1080E-01
    -10.291  0.0000E+00  0.1080E-01
    -10.219  0.0000E+00  0.1080E-01
    -10.147  0.1235E-17  0.1080E-01
    -10.075  0.3217E-14  0.1080E-01
    -10.003  0.2842E-11  0.1080E-01
     -9.931  0.9215E-09  0.1080E-01
     -9.859  0.1110E-06  0.1080E-01
     -9.787  0.5050E-05  0.1080E-01
     -9.715  0.8878E-04  0.1081E-01
     -9.643  0.6201E-03  0.1085E-01
     -9.571  0.1809E-02  0.1098E-01
     -9.499  0.2592E-02  0.1117E-01
     -9.427  0.2764E-02  0.1137E-01
     -9.355  0.2661E-02  0.1156E-01
     -9.283  0.1969E-02  0.1170E-01
     -9.211  0.1067E-02  0.1178E-01
     -9.139  0.4849E-03  0.1181E-01
     -9.067  0.7497E-03  0.1187E-01
     -8.996  0.1081E-02  0.1194E-01
     -8.924  0.6330E-03  0.1199E-01
     -8.852  0.1430E-03  0.1200E-01
     -8.780  0.1230E-04  0.1200E-01
     -8.708  0.3981E-06  0.1200E-01
     -8.636  0.4784E-08  0.1200E-01
     -8.564  0.2112E-10  0.1200E-01
     -8.492  0.3400E-13  0.1200E-01
     -8.420  0.1975E-16  0.1200E-01
     -8.348  0.0000E+00  0.1200E-01
     -8.276  0.0000E+00  0.1200E-01
     -8.204  0.0000E+00  0.1200E-01
     -8.132  0.0000E+00  0.1200E-01
     -8.060  0.1543E-18  0.1200E-01
     -7.988  0.4429E-15  0.1200E-01
     -7.916  0.5238E-12  0.1200E-01
     -7.844  0.2271E-09  0.1200E-01
     -7.773  0.3646E-07  0.1200E-01
     -7.701  0.2194E-05  0.1200E-01
     -7.629  0.5022E-04  0.1200E-01
     -7.557  0.4452E-03  0.1204E-01
     -7.485  0.1578E-02  0.1215E-01
     -7.413  0.2498E-02  0.1233E-01
     -7.341  0.2586E-02  0.1252E-01
     -7.269  0.2367E-02  0.1269E-01
     -7.197  0.1359E-02  0.1278E-01
     -7.125  0.1253E-02  0.1287E-01
     -7.053  0.4664E-02  0.1321E-01
     -6.981  0.1042E-01  0.1396E-01
     -6.909  0.1114E-01  0.1476E-01
     -6.837  0.7035E-02  0.1527E-01
     -6.765  0.8135E-02  0.1585E-01
     -6.693  0.1289E-01  0.1678E-01
     -6.621  0.1240E-01  0.1767E-01
     -6.549  0.8417E-02  0.1828E-01
     -6.478  0.4842E-02  0.1862E-01
     -6.406  0.2201E-02  0.1878E-01
     -6.334  0.1228E-02  0.1887E-01
     -6.262  0.1122E-02  0.1895E-01
     -6.190  0.7237E-03  0.1900E-01
     -6.118  0.1005E-02  0.1908E-01
     -6.046  0.2105E-02  0.1923E-01
     -5.974  0.2927E-02  0.1944E-01
     -5.902  0.4848E-02  0.1979E-01
     -5.830  0.7359E-02  0.2032E-01
     -5.758  0.6832E-02  0.2081E-01
     -5.686  0.7042E-02  0.2131E-01
     -5.614  0.1539E-01  0.2242E-01
     -5.542  0.2366E-01  0.2412E-01
     -5.470  0.1758E-01  0.2539E-01
     -5.398  0.7603E-02  0.2594E-01
     -5.326  0.5740E-02  0.2635E-01
     -5.255  0.7237E-02  0.2687E-01
     -5.183  0.6216E-02  0.2732E-01
     -5.111  0.3169E-02  0.2754E-01
     -5.039  0.2467E-02  0.2772E-01
     -4.967  0.6644E-02  0.2820E-01
     -4.895  0.1080E-01  0.2898E-01
     -4.823  0.8846E-02  0.2961E-01
     -4.751  0.7216E-02  0.3013E-01
     -4.679  0.8170E-02  0.3072E-01
     -4.607  0.8099E-02  0.3130E-01
     -4.535  0.6222E-02  0.3175E-01
     -4.463  0.3494E-02  0.3200E-01
     -4.391  0.3423E-02  0.3225E-01
     -4.319  0.5601E-02  0.3265E-01
     -4.247  0.6502E-02  0.3312E-01
     -4.175  0.5967E-02  0.3355E-01
     -4.103  0.5417E-02  0.3394E-01
     -4.031  0.4303E-02  0.3425E-01
     -3.960  0.1784E-02  0.3438E-01
     -3.888  0.3266E-03  0.3440E-01
     -3.816  0.3216E-03  0.3442E-01
     -3.744  0.1772E-02  0.3455E-01
     -3.672  0.4548E-02  0.3488E-01
     -3.600  0.7174E-02  0.3539E-01
     -3.528  0.1118E-01  0.3620E-01
     -3.456  0.1469E-01  0.3725E-01
     -3.384  0.1345E-01  0.3822E-01
     -3.312  0.1040E-01  0.3897E-01
     -3.240  0.8322E-02  0.3957E-01
     -3.168  0.7004E-02  0.4007E-01
     -3.096  0.8327E-02  0.4067E-01
     -3.024  0.1084E-01  0.4145E-01
     -2.952  0.9467E-02  0.4213E-01
     -2.880  0.5333E-02  0.4252E-01
     -2.808  0.3747E-02  0.4279E-01
     -2.737  0.5047E-02  0.4315E-01
     -2.665  0.7433E-02  0.4368E-01
     -2.593  0.7693E-02  0.4424E-01
     -2.521  0.5851E-02  0.4466E-01
     -2.449  0.4740E-02  0.4500E-01
     -2.377  0.6581E-02  0.4547E-01
     -2.305  0.7937E-02  0.4604E-01
     -2.233  0.7311E-02  0.4657E-01
     -2.161  0.5579E-02  0.4697E-01
     -2.089  0.2654E-02  0.4716E-01
     -2.017  0.1211E-02  0.4725E-01
     -1.945  0.2743E-02  0.4745E-01
     -1.873  0.4318E-02  0.4776E-01
     -1.801  0.3021E-02  0.4797E-01
     -1.729  0.2030E-02  0.4812E-01
     -1.657  0.2218E-02  0.4828E-01
     -1.585  0.1322E-02  0.4838E-01
     -1.513  0.3137E-03  0.4840E-01
     -1.442  0.2863E-04  0.4840E-01
     -1.370  0.9903E-06  0.4840E-01
     -1.298  0.1282E-07  0.4840E-01
     -1.226  0.6139E-10  0.4840E-01
     -1.154  0.1079E-12  0.4840E-01
     -1.082  0.6914E-16  0.4840E-01
     -1.010  0.0000E+00  0.4840E-01
     -0.938  0.0000E+00  0.4840E-01
     -0.866  0.0000E+00  0.4840E-01
     -0.794  0.1543E-18  0.4840E-01
     -0.722  0.4924E-15  0.4840E-01
     -0.650  0.5538E-12  0.4840E-01
     -0.578  0.2262E-09  0.4840E-01
     -0.506  0.3378E-07  0.4840E-01
     -0.434  0.1862E-05  0.4840E-01
     -0.362  0.3828E-04  0.4840E-01
     -0.290  0.2978E-03  0.4842E-01
     -0.219  0.8922E-03  0.4849E-01
     -0.147  0.1116E-02  0.4857E-01
     -0.075  0.1104E-02  0.4865E-01
     -0.003  0.1967E-02  0.4879E-01
      0.069  0.3068E-02  0.4901E-01
      0.141  0.4329E-02  0.4932E-01
      0.213  0.4609E-02  0.4965E-01
      0.285  0.3898E-02  0.4993E-01
      0.357  0.6065E-02  0.5037E-01
      0.429  0.1154E-01  0.5120E-01
      0.501  0.1669E-01  0.5240E-01
      0.573  0.1539E-01  0.5351E-01
      0.645  0.1348E-01  0.5448E-01
      0.717  0.1132E-01  0.5529E-01
      0.789  0.5603E-02  0.5570E-01
      0.861  0.1778E-02  0.5582E-01
      0.933  0.2812E-02  0.5603E-01
      1.005  0.7457E-02  0.5656E-01
      1.076  0.1109E-01  0.5736E-01
      1.148  0.1129E-01  0.5817E-01
      1.220  0.1048E-01  0.5893E-01
      1.292  0.8767E-02  0.5956E-01
      1.364  0.4732E-02  0.5990E-01
      1.436  0.1277E-02  0.5999E-01
      1.508  0.1536E-03  0.6000E-01
      1.580  0.7728E-05  0.6000E-01
      1.652  0.1553E-06  0.6000E-01
      1.724  0.1204E-08  0.6000E-01
      1.796  0.3514E-11  0.6000E-01
      1.868  0.3801E-14  0.6000E-01
      1.940  0.1235E-17  0.6000E-01
      2.012  0.0000E+00  0.6000E-01
      2.084  0.0000E+00  0.6000E-01
      2.156  0.0000E+00  0.6000E-01
      2.228  0.0000E+00  0.6000E-01
      2.299  0.0000E+00  0.6000E-01
