       N       E                     dE             d eps       ncg     rms          rms(c)
DAV:   1     0.434317103776E+04    0.43432E+04   -0.18073E+05   612   0.112E+03
DAV:   2    -0.279161453541E+02   -0.43711E+04   -0.42048E+04   972   0.265E+02
DAV:   3    -0.678991592465E+03   -0.65108E+03   -0.64131E+03   720   0.112E+02
DAV:   4    -0.713545132417E+03   -0.34554E+02   -0.34331E+02   864   0.324E+01
DAV:   5    -0.714839535331E+03   -0.12944E+01   -0.12869E+01   852   0.579E+00    0.123E+02
DAV:   6    -0.699633361559E+03    0.15206E+02   -0.58139E+02   804   0.304E+01    0.768E+01
DAV:   7    -0.710855492183E+03   -0.11222E+02   -0.84635E+02   888   0.713E+01    0.438E+01
DAV:   8    -0.678439156779E+03    0.32416E+02   -0.14315E+02   768   0.134E+01    0.392E+01
DAV:   9    -0.672110915051E+03    0.63282E+01   -0.15781E+02   864   0.103E+01    0.320E+01
DAV:  10    -0.667257268676E+03    0.48536E+01   -0.19147E+02   864   0.108E+01    0.255E+01
DAV:  11    -0.659291997933E+03    0.79653E+01   -0.24527E+01   948   0.102E+01    0.151E+01
DAV:  12    -0.659718783633E+03   -0.42679E+00   -0.68241E+00   816   0.123E+00    0.168E+01
DAV:  13    -0.659251167527E+03    0.46762E+00   -0.82620E-01   936   0.477E-01    0.147E+01
DAV:  14    -0.663100182963E+03   -0.38490E+01   -0.22673E+01   972   0.434E+00    0.210E+01
DAV:  15    -0.659719044324E+03    0.33811E+01   -0.18091E+00   948   0.288E+00    0.121E+01
DAV:  16    -0.660966251653E+03   -0.12472E+01   -0.55232E+00   876   0.153E+00    0.198E+01
DAV:  17    -0.661589542012E+03   -0.62329E+00   -0.42180E+01   936   0.342E+00    0.151E+01
DAV:  18    -0.660266554905E+03    0.13230E+01   -0.12114E+00   744   0.855E-01    0.947E+00
DAV:  19    -0.659534097343E+03    0.73246E+00   -0.20158E+00   852   0.841E-01    0.872E+00
DAV:  20    -0.659239704326E+03    0.29439E+00   -0.33673E+00   912   0.128E+00    0.101E+01
DAV:  21    -0.658772998402E+03    0.46671E+00   -0.29058E+00   804   0.759E-01    0.552E+00
DAV:  22    -0.658629973849E+03    0.14302E+00   -0.48645E-01   828   0.543E-01    0.391E+00
DAV:  23    -0.658763302052E+03   -0.13333E+00   -0.12142E+00   900   0.314E-01    0.619E+00
DAV:  24    -0.658683725512E+03    0.79577E-01   -0.18183E+00   840   0.325E-01    0.570E+00
DAV:  25    -0.658747994489E+03   -0.64269E-01   -0.25763E+00   852   0.432E-01    0.717E+00
DAV:  26    -0.658583617966E+03    0.16438E+00   -0.24074E+00   816   0.328E-01    0.348E+00
DAV:  27    -0.658545172816E+03    0.38445E-01   -0.14101E-01   816   0.287E-01    0.371E+00
DAV:  28    -0.658518180132E+03    0.26993E-01   -0.12381E-02   840   0.133E-01    0.350E+00
DAV:  29    -0.658511751950E+03    0.64282E-02   -0.36551E-03   732   0.538E-02    0.364E+00
DAV:  30    -0.658464110830E+03    0.47641E-01   -0.21253E-02   840   0.164E-01    0.329E+00
DAV:  31    -0.658438935117E+03    0.25176E-01   -0.55898E-03   828   0.869E-02    0.317E+00
DAV:  32    -0.658402792986E+03    0.36142E-01   -0.86616E-03   804   0.113E-01    0.292E+00
DAV:  33    -0.658386919685E+03    0.15873E-01   -0.29070E-03   732   0.565E-02    0.286E+00
DAV:  34    -0.658399188242E+03   -0.12269E-01   -0.11363E-03   648   0.456E-02    0.292E+00
DAV:  35    -0.658400716994E+03   -0.15288E-02   -0.24235E-04   372   0.115E-02    0.293E+00
DAV:  36    -0.658386054603E+03    0.14662E-01   -0.77104E-04   588   0.507E-02    0.285E+00
DAV:  37    -0.658314657205E+03    0.71397E-01   -0.32040E-02   792   0.257E-01    0.254E+00
DAV:  38    -0.658265516576E+03    0.49141E-01   -0.17799E-02   864   0.235E-01    0.234E+00
DAV:  39    -0.658247716585E+03    0.17800E-01   -0.75494E-03   876   0.129E-01    0.229E+00
DAV:  40    -0.658238985306E+03    0.87313E-02   -0.23428E-03   804   0.677E-02    0.222E+00
DAV:  41    -0.658204986151E+03    0.33999E-01   -0.25258E-02   840   0.295E-01    0.210E+00
DAV:  42    -0.658189727356E+03    0.15259E-01   -0.31557E-02   900   0.306E-01    0.187E+00
DAV:  43    -0.658192853392E+03   -0.31260E-02   -0.32560E-02   876   0.319E-01    0.185E+00
DAV:  44    -0.658202017284E+03   -0.91639E-02   -0.14794E-02   888   0.167E-01    0.157E+00
DAV:  45    -0.658208958173E+03   -0.69409E-02   -0.41458E-03   876   0.113E-01    0.157E+00
DAV:  46    -0.658208252979E+03    0.70519E-03   -0.14260E-03   612   0.392E-02    0.135E+00
DAV:  47    -0.658205222440E+03    0.30305E-02   -0.51881E-04   516   0.292E-02    0.136E+00
DAV:  48    -0.658201455105E+03    0.37673E-02   -0.10231E-03   588   0.279E-02    0.112E+00
DAV:  49    -0.658192138876E+03    0.93162E-02   -0.10441E-03   732   0.434E-02    0.108E+00
DAV:  50    -0.658186033051E+03    0.61058E-02   -0.66568E-04   648   0.243E-02    0.991E-01
DAV:  51    -0.658184564116E+03    0.14689E-02   -0.32564E-04   588   0.381E-02    0.102E+00
DAV:  52    -0.658176341134E+03    0.82230E-02   -0.45816E-04   624   0.235E-02    0.977E-01
DAV:  53    -0.658170676994E+03    0.56641E-02   -0.22457E-04   516   0.200E-02    0.994E-01
DAV:  54    -0.658170280771E+03    0.39622E-03   -0.58054E-05   444   0.115E-02    0.979E-01
DAV:  55    -0.658171027073E+03   -0.74630E-03   -0.27731E-05   408   0.893E-03    0.993E-01
DAV:  56    -0.658145889686E+03    0.25137E-01   -0.89448E-03   780   0.109E-01    0.107E+00
DAV:  57    -0.658138552947E+03    0.73367E-02   -0.21469E-03   708   0.720E-02    0.103E+00
DAV:  58    -0.658132577751E+03    0.59752E-02   -0.13289E-03   696   0.411E-02    0.980E-01
DAV:  59    -0.658121445096E+03    0.11133E-01   -0.32808E-03   828   0.108E-01    0.971E-01
DAV:  60    -0.658113451626E+03    0.79935E-02   -0.28615E-03   840   0.629E-02    0.847E-01
DAV:  61    -0.658122601908E+03   -0.91503E-02   -0.27207E-02   852   0.213E-01    0.163E+00
DAV:  62    -0.658114336894E+03    0.82650E-02   -0.63175E-03   744   0.746E-02    0.773E-01
DAV:  63    -0.658108136432E+03    0.62005E-02   -0.86723E-04   636   0.365E-02    0.734E-01
DAV:  64    -0.658106335161E+03    0.18013E-02   -0.59532E-04   612   0.267E-02    0.883E-01
DAV:  65    -0.658104557872E+03    0.17773E-02   -0.25667E-04   468   0.175E-02    0.816E-01
DAV:  66    -0.658098777589E+03    0.57803E-02   -0.69649E-04   576   0.307E-02    0.465E-01
DAV:  67    -0.658099504705E+03   -0.72712E-03   -0.16745E-04   468   0.185E-02    0.568E-01
DAV:  68    -0.658097739899E+03    0.17648E-02   -0.51249E-04   492   0.240E-02    0.400E-01
DAV:  69    -0.658097663140E+03    0.76760E-04   -0.16279E-04   504   0.176E-02
   1 F= -.67325503E+03 E0= -.67319068E+03  d E =-.673255E+03
       N       E                     dE             d eps       ncg     rms          rms(c)
DAV:   1    -0.658110206403E+03   -0.12467E-01   -0.11105E+01   600   0.490E+00    0.269E+00
DAV:   2    -0.658273193272E+03   -0.16299E+00   -0.11433E+00   768   0.167E+00    0.298E+00
DAV:   3    -0.658197801180E+03    0.75392E-01   -0.17135E+00   900   0.137E+00    0.515E+00
DAV:   4    -0.658197059521E+03    0.74166E-03   -0.11808E+00   888   0.719E-01    0.191E+00
DAV:   5    -0.658173157179E+03    0.23902E-01   -0.34859E-01   888   0.213E-01    0.205E+00
DAV:   6    -0.658137179087E+03    0.35978E-01   -0.43198E-01   900   0.383E-01    0.134E+00
DAV:   7    -0.658124454884E+03    0.12724E-01   -0.18242E-01   804   0.184E-01    0.114E+00
DAV:   8    -0.658123214312E+03    0.12406E-02   -0.16105E-01   864   0.179E-01    0.159E+00
DAV:   9    -0.658110828863E+03    0.12385E-01   -0.89276E-02   864   0.152E-01    0.592E-01
DAV:  10    -0.658108162830E+03    0.26660E-02   -0.56323E-02   744   0.856E-02    0.491E-01
DAV:  11    -0.658106607166E+03    0.15557E-02   -0.32942E-02   744   0.695E-02    0.348E-01
DAV:  12    -0.658106060172E+03    0.54699E-03   -0.17540E-02   492   0.409E-02    0.263E-01
DAV:  13    -0.658106051618E+03    0.85533E-05   -0.14359E-02   600   0.445E-02    0.394E-01
DAV:  14    -0.658105339557E+03    0.71206E-03   -0.59136E-03   528   0.363E-02    0.102E-01
DAV:  15    -0.658105525125E+03   -0.18557E-03   -0.38744E-03   432   0.298E-02    0.275E-01
DAV:  16    -0.658105378293E+03    0.14683E-03   -0.14210E-03   420   0.228E-02    0.934E-02
DAV:  17    -0.658105536426E+03   -0.15813E-03   -0.66846E-04   408   0.150E-02    0.193E-01
DAV:  18    -0.658105536706E+03   -0.28025E-06   -0.46006E-04   360   0.124E-02
   2 F= -.67328041E+03 E0= -.67321555E+03  d E =-.253786E-01
       N       E                     dE             d eps       ncg     rms          rms(c)
DAV:   1    -0.658097781541E+03    0.77549E-02   -0.23990E+00   624   0.228E+00    0.111E+00
DAV:   2    -0.658172927389E+03   -0.75146E-01   -0.29461E-01   756   0.658E-01    0.535E+00
DAV:   3    -0.658145018438E+03    0.27909E-01   -0.46809E-01   900   0.456E-01    0.149E+00
DAV:   4    -0.658127726951E+03    0.17291E-01   -0.10373E-01   888   0.141E-01    0.153E+00
DAV:   5    -0.658121864392E+03    0.58626E-02   -0.97014E-02   816   0.928E-02    0.119E+00
DAV:   6    -0.658112449498E+03    0.94149E-02   -0.34632E-02   888   0.178E-01    0.858E-01
DAV:   7    -0.658107836430E+03    0.46131E-02   -0.12765E-02   852   0.105E-01    0.410E-01
DAV:   8    -0.658107329207E+03    0.50722E-03   -0.11343E-02   672   0.622E-02    0.503E-01
DAV:   9    -0.658105876460E+03    0.14527E-02   -0.10474E-02   696   0.553E-02    0.215E-01
DAV:  10    -0.658105790547E+03    0.85913E-04   -0.56718E-03   588   0.433E-02    0.284E-01
DAV:  11    -0.658105387754E+03    0.40279E-03   -0.35386E-03   432   0.313E-02    0.160E-01
DAV:  12    -0.658105345467E+03    0.42287E-04   -0.18788E-03   420   0.205E-02    0.162E-01
DAV:  13    -0.658105261730E+03    0.83736E-04   -0.12788E-03   384   0.146E-02    0.129E-01
DAV:  14    -0.658105212796E+03    0.48934E-04   -0.54758E-04   384   0.149E-02
   3 F= -.67327179E+03 E0= -.67320662E+03  d E =-.167597E-01
       N       E                     dE             d eps       ncg     rms          rms(c)
DAV:   1    -0.658105257764E+03    0.39666E-05   -0.12968E+00   624   0.168E+00    0.865E-01
DAV:   2    -0.658131957517E+03   -0.26700E-01   -0.13247E-01   768   0.553E-01    0.129E+00
DAV:   3    -0.658140150690E+03   -0.81932E-02   -0.21808E-01   900   0.449E-01    0.350E+00
DAV:   4    -0.658127455101E+03    0.12696E-01   -0.87277E-02   888   0.264E-01    0.914E-01
DAV:   5    -0.658117104238E+03    0.10351E-01   -0.84479E-03   708   0.918E-02    0.961E-01
DAV:   6    -0.658111445980E+03    0.56583E-02   -0.76989E-03   792   0.109E-01    0.420E-01
DAV:   7    -0.658114024219E+03   -0.25782E-02   -0.10376E-02   780   0.761E-02    0.105E+00
DAV:   8    -0.658111277367E+03    0.27469E-02   -0.83219E-03   720   0.673E-02    0.369E-01
DAV:   9    -0.658110197774E+03    0.10796E-02   -0.65944E-03   480   0.463E-02    0.407E-01
DAV:  10    -0.658109805036E+03    0.39274E-03   -0.40272E-03   432   0.344E-02    0.208E-01
DAV:  11    -0.658109603992E+03    0.20104E-03   -0.25970E-03   504   0.269E-02    0.236E-01
DAV:  12    -0.658109442834E+03    0.16116E-03   -0.15907E-03   384   0.162E-02    0.956E-02
DAV:  13    -0.658109437602E+03    0.52322E-05   -0.96139E-04   396   0.150E-02
   4 F= -.67328209E+03 E0= -.67321656E+03  d E =-.270554E-01
       N       E                     dE             d eps       ncg     rms          rms(c)
DAV:   1    -0.658086322681E+03    0.23120E-01   -0.21502E+00   612   0.204E+00    0.105E+00
DAV:   2    -0.658191695492E+03   -0.10537E+00   -0.50496E-01   876   0.942E-01    0.272E+00
DAV:   3    -0.658108314432E+03    0.83381E-01   -0.51404E-01   900   0.635E-01    0.135E+00
DAV:   4    -0.658099663282E+03    0.86511E-02   -0.16508E-01   864   0.170E-01    0.976E-01
DAV:   5    -0.658094544702E+03    0.51186E-02   -0.20980E-02   876   0.117E-01    0.668E-01
DAV:   6    -0.658096672479E+03   -0.21278E-02   -0.26923E-02   900   0.132E-01    0.944E-01
DAV:   7    -0.658092772261E+03    0.39002E-02   -0.37747E-02   792   0.960E-02    0.531E-01
DAV:   8    -0.658091567617E+03    0.12046E-02   -0.24282E-02   768   0.645E-02    0.404E-01
DAV:   9    -0.658090769317E+03    0.79830E-03   -0.78309E-03   492   0.390E-02    0.327E-01
DAV:  10    -0.658090687567E+03    0.81749E-04   -0.84018E-03   504   0.339E-02    0.352E-01
DAV:  11    -0.658090221694E+03    0.46587E-03   -0.24733E-03   432   0.248E-02    0.134E-01
DAV:  12    -0.658090499301E+03   -0.27761E-03   -0.22731E-03   408   0.166E-02    0.354E-01
DAV:  13    -0.658090582838E+03   -0.83537E-04   -0.26645E-04   456   0.185E-02
   5 F= -.67326993E+03 E0= -.67320589E+03  d E =0.121611E-01
       N       E                     dE             d eps       ncg     rms          rms(c)
DAV:   1    -0.658109900544E+03   -0.19401E-01   -0.98210E-01   600   0.137E+00    0.822E-01
DAV:   2    -0.658284377036E+03   -0.17448E+00   -0.13732E+00   876   0.590E-01    0.819E+00
DAV:   3    -0.658171411453E+03    0.11297E+00   -0.22571E+00   912   0.440E-01    0.121E+00
DAV:   4    -0.658129361151E+03    0.42050E-01   -0.16072E-01   876   0.175E-01    0.153E+00
DAV:   5    -0.658120729695E+03    0.86315E-02   -0.14416E-01   744   0.955E-02    0.946E-01
DAV:   6    -0.658115757064E+03    0.49726E-02   -0.41986E-02   720   0.857E-02    0.763E-01
DAV:   7    -0.658112742857E+03    0.30142E-02   -0.30400E-02   672   0.695E-02    0.470E-01
DAV:   8    -0.658111946692E+03    0.79616E-03   -0.24911E-02   696   0.584E-02    0.488E-01
DAV:   9    -0.658111092252E+03    0.85444E-03   -0.17846E-02   588   0.541E-02    0.237E-01
DAV:  10    -0.658110767876E+03    0.32438E-03   -0.94340E-03   444   0.335E-02    0.286E-01
DAV:  11    -0.658110580574E+03    0.18730E-03   -0.62026E-03   432   0.235E-02    0.161E-01
DAV:  12    -0.658110447696E+03    0.13288E-03   -0.28640E-03   432   0.194E-02    0.164E-01
DAV:  13    -0.658110412295E+03    0.35400E-04   -0.18745E-03   372   0.146E-02    0.121E-01
DAV:  14    -0.658110345169E+03    0.67127E-04   -0.77330E-04   384   0.114E-02
   6 F= -.67328515E+03 E0= -.67321992E+03  d E =-.306107E-02
       N       E                     dE             d eps       ncg     rms          rms(c)
DAV:   1    -0.658107021081E+03    0.33912E-02   -0.64089E-01   600   0.123E+00    0.556E-01
DAV:   2    -0.658118611733E+03   -0.11591E-01   -0.50189E-02   828   0.355E-01    0.100E+00
DAV:   3    -0.658129523007E+03   -0.10911E-01   -0.89563E-02   900   0.286E-01    0.275E+00
DAV:   4    -0.658118958896E+03    0.10564E-01   -0.40874E-02   864   0.185E-01    0.705E-01
DAV:   5    -0.658111823957E+03    0.71349E-02   -0.72815E-03   660   0.767E-02    0.647E-01
DAV:   6    -0.658109830454E+03    0.19935E-02   -0.45002E-03   588   0.543E-02    0.230E-01
DAV:   7    -0.658111379488E+03   -0.15490E-02   -0.27001E-03   624   0.480E-02    0.755E-01
DAV:   8    -0.658109837591E+03    0.15419E-02   -0.17604E-03   552   0.464E-02    0.244E-01
DAV:   9    -0.658109415229E+03    0.42236E-03   -0.85908E-04   432   0.356E-02    0.345E-01
DAV:  10    -0.658109047572E+03    0.36766E-03   -0.69092E-04   336   0.188E-02    0.864E-02
DAV:  11    -0.658109055205E+03   -0.76321E-05   -0.37416E-04   360   0.178E-02
   7 F= -.67328702E+03 E0= -.67321992E+03  d E =-.186626E-02
       N       E                     dE             d eps       ncg     rms          rms(c)
DAV:   1    -0.658110290713E+03   -0.12431E-02   -0.67516E-02   600   0.398E-01    0.172E-01
DAV:   2    -0.658110751484E+03   -0.46077E-03   -0.46028E-03   816   0.985E-02    0.253E-01
DAV:   3    -0.658112874381E+03   -0.21229E-02   -0.77217E-03   564   0.747E-02    0.801E-01
DAV:   4    -0.658111097021E+03    0.17774E-02   -0.50956E-03   552   0.676E-02    0.269E-01
DAV:   5    -0.658110644602E+03    0.45242E-03   -0.38128E-04   396   0.208E-02    0.159E-01
DAV:   6    -0.658110498475E+03    0.14613E-03   -0.19146E-04   372   0.148E-02    0.892E-02
DAV:   7    -0.658110526201E+03   -0.27726E-04   -0.13572E-04   324   0.147E-02
   8 F= -.67328746E+03 E0= -.67322139E+03  d E =-.230672E-02
       N       E                     dE             d eps       ncg     rms          rms(c)
DAV:   1    -0.658110507435E+03   -0.89602E-05   -0.19145E-04   384   0.252E-02    0.336E-02
DAV:   2    -0.658110751088E+03   -0.24365E-03   -0.46192E-04   408   0.266E-02    0.206E-01
DAV:   3    -0.658110536894E+03    0.21419E-03   -0.65266E-04   420   0.269E-02    0.108E-01
DAV:   4    -0.658110504409E+03    0.32485E-04   -0.10319E-04   348   0.110E-02
   9 F= -.67328738E+03 E0= -.67322221E+03  d E =-.223428E-02
       N       E                     dE             d eps       ncg     rms          rms(c)
DAV:   1    -0.658110463242E+03    0.73652E-04   -0.74824E-05   312   0.112E-02    0.247E-02
DAV:   2    -0.658110539272E+03   -0.76030E-04   -0.23553E-04   372   0.135E-02
  10 F= -.67328745E+03 E0= -.67322358E+03  d E =-.229526E-02
       N       E                     dE             d eps       ncg     rms          rms(c)
DAV:   1    -0.658110536462E+03   -0.73219E-04   -0.39770E-04   372   0.189E-02    0.102E-01
DAV:   2    -0.658116472640E+03   -0.59362E-02   -0.13752E-02   744   0.113E-01    0.799E-01
DAV:   3    -0.658110847248E+03    0.56254E-02   -0.10968E-02   636   0.102E-01    0.129E-01
DAV:   4    -0.658110607502E+03    0.23975E-03   -0.37216E-04   396   0.208E-02    0.142E-01
DAV:   5    -0.658110525960E+03    0.81542E-04   -0.18182E-04   336   0.148E-02
  11 F= -.67328742E+03 E0= -.67322186E+03  d E =-.226751E-02
       N       E                     dE             d eps       ncg     rms          rms(c)
DAV:   1    -0.658111022391E+03   -0.41489E-03   -0.38313E-02   600   0.253E-01    0.986E-02
DAV:   2    -0.658111794157E+03   -0.77177E-03   -0.23492E-03   852   0.752E-02    0.398E-01
DAV:   3    -0.658111923588E+03   -0.12943E-03   -0.31163E-03   552   0.526E-02    0.339E-01
DAV:   4    -0.658111252362E+03    0.67123E-03   -0.11628E-03   432   0.343E-02    0.126E-01
DAV:   5    -0.658111264425E+03   -0.12063E-04   -0.14612E-04   348   0.124E-02
  12 F= -.67328761E+03 E0= -.67322281E+03  d E =-.187705E-03
       N       E                     dE             d eps       ncg     rms          rms(c)
DAV:   1    -0.658110989420E+03    0.26294E-03   -0.60562E-03   600   0.101E-01    0.468E-02
DAV:   2    -0.658111828427E+03   -0.83901E-03   -0.15413E-03   540   0.463E-02    0.438E-01
DAV:   3    -0.658111042775E+03    0.78565E-03   -0.14644E-03   480   0.425E-02    0.118E-01
DAV:   4    -0.658110978831E+03    0.63944E-04   -0.11094E-04   336   0.130E-02
  13 F= -.67328753E+03 E0= -.67322199E+03  d E =-.113476E-03
       N       E                     dE             d eps       ncg     rms          rms(c)
DAV:   1    -0.658111434343E+03   -0.39157E-03   -0.91914E-03   600   0.130E-01    0.759E-02
DAV:   2    -0.658111634651E+03   -0.20031E-03   -0.15845E-03   756   0.396E-02    0.198E-01
DAV:   3    -0.658111989084E+03   -0.35443E-03   -0.27704E-03   456   0.364E-02    0.296E-01
DAV:   4    -0.658111554683E+03    0.43440E-03   -0.12458E-03   420   0.302E-02    0.977E-02
DAV:   5    -0.658111509746E+03    0.44937E-04   -0.19549E-04   348   0.102E-02
  14 F= -.67328775E+03 E0= -.67322309E+03  d E =-.221713E-03
       N       E                     dE             d eps       ncg     rms          rms(c)
DAV:   1    -0.658112200123E+03   -0.64544E-03   -0.47952E-02   600   0.297E-01    0.114E-01
DAV:   2    -0.658112446132E+03   -0.24601E-03   -0.19946E-03   888   0.748E-02    0.171E-01
DAV:   3    -0.658113157487E+03   -0.71135E-03   -0.18267E-03   576   0.411E-02    0.446E-01
DAV:   4    -0.658112780663E+03    0.37682E-03   -0.25011E-03   504   0.484E-02    0.253E-01
DAV:   5    -0.658112388762E+03    0.39190E-03   -0.36077E-04   420   0.192E-02    0.796E-02
DAV:   6    -0.658112344297E+03    0.44465E-04   -0.75508E-05   384   0.963E-03
  15 F= -.67328788E+03 E0= -.67322321E+03  d E =-.345323E-03
       N       E                     dE             d eps       ncg     rms          rms(c)
DAV:   1    -0.658112605907E+03   -0.21714E-03   -0.22339E-02   600   0.194E-01    0.592E-02
DAV:   2    -0.658113358494E+03   -0.75259E-03   -0.18970E-03   816   0.585E-02    0.351E-01
DAV:   3    -0.658112767566E+03    0.59093E-03   -0.15212E-03   504   0.395E-02    0.117E-01
DAV:   4    -0.658112708881E+03    0.58685E-04   -0.13392E-04   360   0.157E-02
  16 F= -.67328813E+03 E0= -.67322375E+03  d E =-.249871E-03
       N       E                     dE             d eps       ncg     rms          rms(c)
DAV:   1    -0.658112690972E+03    0.76594E-04   -0.11466E-03   600   0.452E-02    0.457E-02
DAV:   2    -0.658113603398E+03   -0.91243E-03   -0.15126E-03   468   0.417E-02    0.463E-01
DAV:   3    -0.658112770576E+03    0.83282E-03   -0.16288E-03   444   0.416E-02    0.130E-01
DAV:   4    -0.658112682241E+03    0.88335E-04   -0.10339E-04   324   0.114E-02
  17 F= -.67328807E+03 E0= -.67322259E+03  d E =-.197621E-03
       N       E                     dE             d eps       ncg     rms          rms(c)
DAV:   1    -0.658112748608E+03    0.21969E-04   -0.15587E-02   600   0.169E-01    0.651E-02
DAV:   2    -0.658112855931E+03   -0.10732E-03   -0.54490E-04   756   0.395E-02    0.130E-01
DAV:   3    -0.658113035657E+03   -0.17973E-03   -0.58886E-04   516   0.250E-02    0.217E-01
DAV:   4    -0.658112875551E+03    0.16011E-03   -0.63284E-04   456   0.256E-02    0.122E-01
DAV:   5    -0.658112812943E+03    0.62607E-04   -0.10994E-04   348   0.108E-02
  18 F= -.67328828E+03 E0= -.67322374E+03  d E =-.210069E-03
       N       E                     dE             d eps       ncg     rms          rms(c)
DAV:   1    -0.658112752822E+03    0.12273E-03   -0.10343E-02   600   0.138E-01    0.720E-02
DAV:   2    -0.658113752688E+03   -0.99987E-03   -0.18097E-03   708   0.533E-02    0.419E-01
DAV:   3    -0.658113126468E+03    0.62622E-03   -0.27151E-03   552   0.522E-02    0.236E-01
DAV:   4    -0.658112899317E+03    0.22715E-03   -0.47416E-04   384   0.224E-02    0.140E-01
DAV:   5    -0.658112797851E+03    0.10147E-03   -0.79860E-05   348   0.104E-02    0.668E-02
DAV:   6    -0.658112768944E+03    0.28908E-04   -0.63955E-05   360   0.119E-02
  19 F= -.67328830E+03 E0= -.67322269E+03  d E =-.230948E-03
       N       E                     dE             d eps       ncg     rms          rms(c)
DAV:   1    -0.658112765641E+03    0.32210E-04   -0.14828E-02   600   0.160E-01    0.898E-02
DAV:   2    -0.658114723946E+03   -0.19583E-02   -0.42465E-03   732   0.774E-02    0.549E-01
DAV:   3    -0.658113273064E+03    0.14509E-02   -0.50662E-03   576   0.685E-02    0.260E-01
DAV:   4    -0.658112989868E+03    0.28320E-03   -0.47237E-04   384   0.238E-02    0.165E-01
DAV:   5    -0.658112853288E+03    0.13658E-03   -0.11688E-04   360   0.127E-02    0.787E-02
DAV:   6    -0.658112812167E+03    0.41121E-04   -0.91726E-05   348   0.141E-02
  20 F= -.67328848E+03 E0= -.67322300E+03  d E =-.171491E-03
       N       E                     dE             d eps       ncg     rms          rms(c)
DAV:   1    -0.658112698459E+03    0.15483E-03   -0.89022E-03   600   0.124E-01    0.797E-02
DAV:   2    -0.658114502872E+03   -0.18044E-02   -0.40821E-03   672   0.700E-02    0.532E-01
DAV:   3    -0.658113100001E+03    0.14029E-02   -0.46078E-03   516   0.645E-02    0.218E-01
DAV:   4    -0.658112873349E+03    0.22665E-03   -0.40546E-04   348   0.215E-02    0.154E-01
DAV:   5    -0.658112754449E+03    0.11890E-03   -0.12141E-04   360   0.127E-02    0.652E-02
DAV:   6    -0.658112730334E+03    0.24115E-04   -0.84417E-05   348   0.127E-02
  21 F= -.67328849E+03 E0= -.67322322E+03  d E =-.189375E-03
       N       E                     dE             d eps       ncg     rms          rms(c)
DAV:   1    -0.658112730215E+03    0.24234E-04   -0.92155E-03   600   0.127E-01    0.669E-02
DAV:   2    -0.658113892460E+03   -0.11622E-02   -0.24231E-03   672   0.588E-02    0.441E-01
DAV:   3    -0.658113013324E+03    0.87914E-03   -0.27819E-03   504   0.516E-02    0.181E-01
DAV:   4    -0.658112864439E+03    0.14888E-03   -0.28109E-04   348   0.193E-02    0.135E-01
DAV:   5    -0.658112774686E+03    0.89753E-04   -0.68236E-05   348   0.106E-02
  22 F= -.67328861E+03 E0= -.67322365E+03  d E =-.116900E-03
       N       E                     dE             d eps       ncg     rms          rms(c)
DAV:   1    -0.658112737728E+03    0.12671E-03   -0.34404E-03   588   0.779E-02    0.666E-02
DAV:   2    -0.658113060805E+03   -0.32308E-03   -0.56493E-04   468   0.301E-02    0.233E-01
DAV:   3    -0.658113119350E+03   -0.58545E-04   -0.17095E-03   432   0.427E-02    0.295E-01
DAV:   4    -0.658112763739E+03    0.35561E-03   -0.60332E-04   420   0.267E-02    0.539E-02
DAV:   5    -0.658112731610E+03    0.32129E-04   -0.93575E-05   324   0.861E-03
  23 F= -.67328861E+03 E0= -.67322295E+03  d E =-.118041E-03
       N       E                     dE             d eps       ncg     rms          rms(c)
DAV:   1    -0.658112582064E+03    0.18167E-03   -0.13723E-02   600   0.154E-01    0.613E-02
DAV:   2    -0.658113375874E+03   -0.79381E-03   -0.19275E-03   792   0.585E-02    0.352E-01
DAV:   3    -0.658112695381E+03    0.68049E-03   -0.17928E-03   528   0.431E-02    0.125E-01
DAV:   4    -0.658112641914E+03    0.53466E-04   -0.11988E-04   324   0.138E-02
  24 F= -.67328861E+03 E0= -.67322392E+03  d E =-.116865E-03
       N       E                     dE             d eps       ncg     rms          rms(c)
DAV:   1    -0.658112707033E+03   -0.11652E-04   -0.74528E-03   600   0.114E-01    0.693E-02
DAV:   2    -0.658113182191E+03   -0.47516E-03   -0.98829E-04   600   0.426E-02    0.308E-01
DAV:   3    -0.658113048886E+03    0.13330E-03   -0.19851E-03   456   0.470E-02    0.242E-01
DAV:   4    -0.658112734181E+03    0.31471E-03   -0.51838E-04   420   0.256E-02    0.420E-02
DAV:   5    -0.658112720694E+03    0.13486E-04   -0.11934E-04   324   0.871E-03
  25 F= -.67328863E+03 E0= -.67322377E+03  d E =-.130690E-03
       N       E                     dE             d eps       ncg     rms          rms(c)
DAV:   1    -0.658112841631E+03   -0.10745E-03   -0.62593E-03   576   0.966E-02    0.357E-02
DAV:   2    -0.658112982138E+03   -0.14051E-03   -0.63797E-04   516   0.308E-02    0.163E-01
DAV:   3    -0.658112914701E+03    0.67437E-04   -0.63177E-04   420   0.245E-02
  26 F= -.67328877E+03 E0= -.67322487E+03  d E =-.148887E-03
       N       E                     dE             d eps       ncg     rms          rms(c)
DAV:   1    -0.658112945411E+03    0.36727E-04   -0.66471E-03   600   0.100E-01    0.498E-02
DAV:   2    -0.658113367632E+03   -0.42222E-03   -0.92392E-04   612   0.352E-02    0.278E-01
DAV:   3    -0.658113086243E+03    0.28139E-03   -0.12523E-03   432   0.342E-02    0.146E-01
DAV:   4    -0.658113001392E+03    0.84851E-04   -0.20405E-04   348   0.160E-02
  27 F= -.67328881E+03 E0= -.67322460E+03  d E =-.189429E-03
       N       E                     dE             d eps       ncg     rms          rms(c)
DAV:   1    -0.658113212431E+03   -0.12619E-03   -0.63252E-03   588   0.103E-01    0.592E-02
DAV:   2    -0.658114991884E+03   -0.17795E-02   -0.28244E-03   576   0.627E-02    0.675E-01
DAV:   3    -0.658113415199E+03    0.15767E-02   -0.27397E-03   492   0.532E-02    0.153E-01
DAV:   4    -0.658113229025E+03    0.18617E-03   -0.18972E-04   372   0.169E-02    0.362E-02
DAV:   5    -0.658113217976E+03    0.11049E-04   -0.38227E-05   348   0.987E-03
  28 F= -.67328886E+03 E0= -.67322401E+03  d E =-.470203E-04
       N       E                     dE             d eps       ncg     rms          rms(c)
DAV:   1    -0.658113314747E+03   -0.85722E-04   -0.22362E-03   576   0.613E-02    0.413E-02
DAV:   2    -0.658114067246E+03   -0.75250E-03   -0.13747E-03   492   0.396E-02    0.421E-01
DAV:   3    -0.658113381841E+03    0.68540E-03   -0.13526E-03   432   0.366E-02    0.105E-01
DAV:   4    -0.658113322908E+03    0.58933E-04   -0.11414E-04   348   0.114E-02
  29 F= -.67328887E+03 E0= -.67322343E+03  d E =-.512428E-04
       N       E                     dE             d eps       ncg     rms          rms(c)
DAV:   1    -0.658113474925E+03   -0.93084E-04   -0.27265E-03   576   0.669E-02    0.503E-02
DAV:   2    -0.658113940959E+03   -0.46603E-03   -0.11602E-03   492   0.329E-02    0.332E-01
DAV:   3    -0.658113704678E+03    0.23628E-03   -0.16473E-03   444   0.358E-02    0.176E-01
DAV:   4    -0.658113522262E+03    0.18242E-03   -0.22363E-04   360   0.162E-02    0.741E-02
DAV:   5    -0.658113481101E+03    0.41161E-04   -0.37000E-05   348   0.743E-03
  30 F= -.67328892E+03 E0= -.67322388E+03  d E =-.545316E-04
       N       E                     dE             d eps       ncg     rms          rms(c)
DAV:   1    -0.658113842768E+03   -0.32051E-03   -0.23396E-02   600   0.198E-01    0.821E-02
DAV:   2    -0.658114929331E+03   -0.10866E-02   -0.22281E-03   804   0.649E-02    0.498E-01
DAV:   3    -0.658114118441E+03    0.81089E-03   -0.25851E-03   564   0.510E-02    0.211E-01
DAV:   4    -0.658113905187E+03    0.21325E-03   -0.25951E-04   384   0.191E-02    0.552E-02
DAV:   5    -0.658113886596E+03    0.18591E-04   -0.52800E-05   324   0.896E-03
  31 F= -.67328902E+03 E0= -.67322442E+03  d E =-.149425E-03
       N       E                     dE             d eps       ncg     rms          rms(c)
DAV:   1    -0.658113968047E+03   -0.62860E-04   -0.34585E-03   576   0.735E-02    0.614E-02
DAV:   2    -0.658114218616E+03   -0.25057E-03   -0.61997E-04   480   0.274E-02    0.221E-01
DAV:   3    -0.658114262568E+03   -0.43952E-04   -0.14760E-03   432   0.373E-02    0.225E-01
DAV:   4    -0.658113969501E+03    0.29307E-03   -0.55643E-04   420   0.238E-02    0.411E-02
DAV:   5    -0.658113957856E+03    0.11645E-04   -0.18459E-04   324   0.656E-03
  32 F= -.67328907E+03 E0= -.67322398E+03  d E =-.516997E-04
