 vasp.5.4.1 05Feb16 (build Apr 21 2017 13:36:42) gamma-only                     
  
 executed on           IFC91_ompi date 2020.09.15  02:59:41
 running on   36 total cores
 distrk:  each k-point on   36 cores,    1 groups
 distr:  one band on NCORES_PER_BAND=   3 cores,   12 groups


--------------------------------------------------------------------------------------------------------


 INCAR:
 POTCAR:    PAW_PBE C 08Apr2002                   
 POTCAR:    PAW_PBE Cr 06Sep2000                  
 POTCAR:    PAW_PBE H 15Jun2001                   
 POTCAR:    PAW_PBE Mo 08Apr2002                  
 POTCAR:    PAW_PBE S 06Sep2000                   
 POTCAR:    PAW_PBE C 08Apr2002                   
   VRHFIN =C: s2p2                                                              
   LEXCH  = PE                                                                  
   EATOM  =   147.1560 eV,   10.8157 Ry                                         
                                                                                
   TITEL  = PAW_PBE C 08Apr2002                                                 
   LULTRA =        F    use ultrasoft PP ?                                      
   IUNSCR =        1    unscreen: 0-lin 1-nonlin 2-no                           
   RPACOR =    1.200    partial core radius                                     
   POMASS =   12.011; ZVAL   =    4.000    mass and valenz                      
   RCORE  =    1.500    outmost cutoff radius                                   
   RWIGS  =    1.630; RWIGS  =    0.863    wigner-seitz radius (au A)           
   ENMAX  =  400.000; ENMIN  =  300.000 eV                                      
   ICORE  =        2    local potential                                         
   LCOR   =        T    correct aug charges                                     
   LPAW   =        T    paw PP                                                  
   EAUG   =  644.873                                                            
   DEXC   =    0.000                                                            
   RMAX   =    1.529    core radius for proj-oper                               
   RAUG   =    1.300    factor for augmentation sphere                          
   RDEP   =    1.501    radius for radial grids                                 
   RDEPT  =    1.300    core radius for aug-charge                              
                                                                                
   Atomic configuration                                                         
    4 entries                                                                   
     n  l   j            E        occ.                                          
     1  0  0.50      -273.3789   2.0000                                         
     2  0  0.50       -13.7508   2.0000                                         
     2  1  0.50        -5.2854   2.0000                                         
     3  2  1.50        -5.4423   0.0000                                         
   Description                                                                  
     l       E           TYP  RCUT    TYP  RCUT                                 
     0    -13.7508458     23  1.200                                             
     0     -8.2022199     23  1.200                                             
     1     -5.2854383     23  1.500                                             
     1     34.0145650     23  1.500                                             
     2     -5.4423304      7  1.500                                             
  local pseudopotential read in
  partial core-charges read in
  partial kinetic energy density read in
  atomic valenz-charges read in
  non local Contribution for L=           0  read in
    real space projection operators read in
  non local Contribution for L=           0  read in
    real space projection operators read in
  non local Contribution for L=           1  read in
    real space projection operators read in
  non local Contribution for L=           1  read in
    real space projection operators read in
    PAW grid and wavefunctions read in
 
   number of l-projection  operators is LMAX  =           4
   number of lm-projection operators is LMMAX =           8
 
 POTCAR:    PAW_PBE Cr 06Sep2000                  
   VRHFIN =Cr : d5 s1                                                           
   LEXCH  = PE                                                                  
   EATOM  =   276.8859 eV,   20.3505 Ry                                         
                                                                                
   TITEL  = PAW_PBE Cr 06Sep2000                                                
   LULTRA =        F    use ultrasoft PP ?                                      
   IUNSCR =        1    unscreen: 0-lin 1-nonlin 2-no                           
   RPACOR =    2.080    partial core radius                                     
   POMASS =   51.996; ZVAL   =    6.000    mass and valenz                      
   RCORE  =    2.500    outmost cutoff radius                                   
   RWIGS  =    2.500; RWIGS  =    1.323    wigner-seitz radius (au A)           
   ENMAX  =  227.080; ENMIN  =  170.310 eV                                      
   RCLOC  =    1.721    cutoff for local pot                                    
   LCOR   =        T    correct aug charges                                     
   LPAW   =        T    paw PP                                                  
   EAUG   =  402.108                                                            
   DEXC   =    0.000                                                            
   RMAX   =    2.552    core radius for proj-oper                               
   RAUG   =    1.300    factor for augmentation sphere                          
   RDEP   =    2.609    radius for radial grids                                 
   RDEPT  =    2.065    core radius for aug-charge                              
                                                                                
   Atomic configuration                                                         
    9 entries                                                                   
     n  l   j            E        occ.                                          
     1  0  0.50     -5880.4963   2.0000                                         
     2  0  0.50      -667.0865   2.0000                                         
     2  1  1.50      -560.6250   6.0000                                         
     3  0  0.50       -73.9860   2.0000                                         
     3  1  1.50       -45.4378   6.0000                                         
     3  2  2.50        -2.9137   5.0000                                         
     4  0  0.50        -4.0071   1.0000                                         
     4  1  0.50        -1.2789   0.0000                                         
     4  3  2.50        -1.3606   0.0000                                         
   Description                                                                  
     l       E           TYP  RCUT    TYP  RCUT                                 
     2     -2.9136677     23  2.500                                             
     2     -4.2742503     23  2.500                                             
     0     -4.0071322     23  2.500                                             
     0      9.4498801     23  2.500                                             
     1     -5.4423304     23  2.500                                             
     1     27.2116520     23  2.500                                             
  local pseudopotential read in
  partial core-charges read in
  partial kinetic energy density read in
  atomic valenz-charges read in
  non local Contribution for L=           2  read in
    real space projection operators read in
  non local Contribution for L=           2  read in
    real space projection operators read in
  non local Contribution for L=           0  read in
    real space projection operators read in
  non local Contribution for L=           0  read in
    real space projection operators read in
  non local Contribution for L=           1  read in
    real space projection operators read in
  non local Contribution for L=           1  read in
    real space projection operators read in
    PAW grid and wavefunctions read in
 
   number of l-projection  operators is LMAX  =           6
   number of lm-projection operators is LMMAX =          18
 
 POTCAR:    PAW_PBE H 15Jun2001                   
   VRHFIN =H: ultrasoft test                                                    
   LEXCH  = PE                                                                  
   EATOM  =    12.4884 eV,    0.9179 Ry                                         
                                                                                
   TITEL  = PAW_PBE H 15Jun2001                                                 
   LULTRA =        F    use ultrasoft PP ?                                      
   IUNSCR =        0    unscreen: 0-lin 1-nonlin 2-no                           
   RPACOR =    0.000    partial core radius                                     
   POMASS =    1.000; ZVAL   =    1.000    mass and valenz                      
   RCORE  =    1.100    outmost cutoff radius                                   
   RWIGS  =    0.700; RWIGS  =    0.370    wigner-seitz radius (au A)           
   ENMAX  =  250.000; ENMIN  =  200.000 eV                                      
   RCLOC  =    0.701    cutoff for local pot                                    
   LCOR   =        T    correct aug charges                                     
   LPAW   =        T    paw PP                                                  
   EAUG   =  400.000                                                            
   RMAX   =    1.123    core radius for proj-oper                               
   RAUG   =    1.200    factor for augmentation sphere                          
   RDEP   =    1.112    radius for radial grids                                 
   RDEPT  =    0.926    core radius for aug-charge                              
                                                                                
   Atomic configuration                                                         
    2 entries                                                                   
     n  l   j            E        occ.                                          
     1  0  0.50        -6.4927   1.0000                                         
     2  1  0.50        -3.4015   0.0000                                         
   Description                                                                  
     l       E           TYP  RCUT    TYP  RCUT                                 
     0     -6.4927494     23  1.100                                             
     0      6.8029130     23  1.100                                             
     1     -4.0817478     23  1.100                                             
  local pseudopotential read in
  atomic valenz-charges read in
  non local Contribution for L=           0  read in
    real space projection operators read in
  non local Contribution for L=           0  read in
    real space projection operators read in
  non local Contribution for L=           1  read in
    real space projection operators read in
    PAW grid and wavefunctions read in
 
   number of l-projection  operators is LMAX  =           3
   number of lm-projection operators is LMMAX =           5
 
 POTCAR:    PAW_PBE Mo 08Apr2002                  
   VRHFIN =Mo: 4p5s4d                                                           
   LEXCH  = PE                                                                  
   EATOM  =   217.5176 eV,   15.9871 Ry                                         
                                                                                
   TITEL  = PAW_PBE Mo 08Apr2002                                                
   LULTRA =        F    use ultrasoft PP ?                                      
   IUNSCR =        1    unscreen: 0-lin 1-nonlin 2-no                           
   RPACOR =    2.200    partial core radius                                     
   POMASS =   95.940; ZVAL   =    6.000    mass and valenz                      
   RCORE  =    2.750    outmost cutoff radius                                   
   RWIGS  =    2.750; RWIGS  =    1.455    wigner-seitz radius (au A)           
   ENMAX  =  224.584; ENMIN  =  168.438 eV                                      
   RCLOC  =    2.111    cutoff for local pot                                    
   LCOR   =        T    correct aug charges                                     
   LPAW   =        T    paw PP                                                  
   EAUG   =  345.278                                                            
   DEXC   =    0.000                                                            
   RMAX   =    2.821    core radius for proj-oper                               
   RAUG   =    1.300    factor for augmentation sphere                          
   RDEP   =    2.815    radius for radial grids                                 
   RDEPT  =    2.211    core radius for aug-charge                              
                                                                                
   Atomic configuration                                                         
   12 entries                                                                   
     n  l   j            E        occ.                                          
     1  0  0.50    -19819.0341   2.0000                                         
     2  0  0.50     -2799.0127   2.0000                                         
     2  1  1.50     -2502.0276   6.0000                                         
     3  0  0.50      -476.4448   2.0000                                         
     3  1  1.50      -379.1496   6.0000                                         
     3  2  2.50      -220.9367  10.0000                                         
     4  0  0.50       -64.3378   2.0000                                         
     4  1  1.50       -38.4773   6.0000                                         
     4  2  2.50        -3.7535   5.0000                                         
     5  0  0.50        -4.0862   1.0000                                         
     5  1  0.50        -2.7701   0.0000                                         
     4  3  2.50        -1.3606   0.0000                                         
   Description                                                                  
     l       E           TYP  RCUT    TYP  RCUT                                 
     2     -3.7534765     23  2.500                                             
     2     -5.1140591     23  2.500                                             
     0     -4.0861560     23  2.600                                             
     0     13.6058260     23  2.600                                             
     1      5.4423304     23  2.750                                             
     1     27.2116520     23  2.750                                             
  local pseudopotential read in
  partial core-charges read in
  partial kinetic energy density read in
  atomic valenz-charges read in
  non local Contribution for L=           2  read in
    real space projection operators read in
  non local Contribution for L=           2  read in
    real space projection operators read in
  non local Contribution for L=           0  read in
    real space projection operators read in
  non local Contribution for L=           0  read in
    real space projection operators read in
  non local Contribution for L=           1  read in
    real space projection operators read in
  non local Contribution for L=           1  read in
    real space projection operators read in
    PAW grid and wavefunctions read in
 
   number of l-projection  operators is LMAX  =           6
   number of lm-projection operators is LMMAX =          18
 
 POTCAR:    PAW_PBE S 06Sep2000                   
   VRHFIN =S : s2p4                                                             
   LEXCH  = PE                                                                  
   EATOM  =   276.8230 eV,   20.3459 Ry                                         
                                                                                
   TITEL  = PAW_PBE S 06Sep2000                                                 
   LULTRA =        F    use ultrasoft PP ?                                      
   IUNSCR =        1    unscreen: 0-lin 1-nonlin 2-no                           
   RPACOR =    1.500    partial core radius                                     
   POMASS =   32.066; ZVAL   =    6.000    mass and valenz                      
   RCORE  =    1.900    outmost cutoff radius                                   
   RWIGS  =    2.200; RWIGS  =    1.164    wigner-seitz radius (au A)           
   ENMAX  =  258.689; ENMIN  =  194.016 eV                                      
   ICORE  =        2    local potential                                         
   LCOR   =        T    correct aug charges                                     
   LPAW   =        T    paw PP                                                  
   EAUG   =  335.092                                                            
   DEXC   =    0.000                                                            
   RMAX   =    1.942    core radius for proj-oper                               
   RAUG   =    1.300    factor for augmentation sphere                          
   RDEP   =    1.954    radius for radial grids                                 
   RDEPT  =    1.744    core radius for aug-charge                              
                                                                                
   Atomic configuration                                                         
    6 entries                                                                   
     n  l   j            E        occ.                                          
     1  0  0.50     -2405.8406   2.0000                                         
     2  0  0.50      -211.7007   2.0000                                         
     2  1  1.50      -156.4958   6.0000                                         
     3  0  0.50       -17.2562   2.0000                                         
     3  1  0.50        -7.0085   4.0000                                         
     3  2  1.50        -6.8029   0.0000                                         
   Description                                                                  
     l       E           TYP  RCUT    TYP  RCUT                                 
     0    -17.2561641     23  1.900                                             
     0    -15.8743224     23  1.900                                             
     1     -7.0085400     23  1.900                                             
     1     -2.7779785     23  1.900                                             
     2     -6.8029130     23  1.900                                             
  local pseudopotential read in
  partial core-charges read in
  partial kinetic energy density read in
  atomic valenz-charges read in
  non local Contribution for L=           0  read in
    real space projection operators read in
  non local Contribution for L=           0  read in
    real space projection operators read in
  non local Contribution for L=           1  read in
    real space projection operators read in
  non local Contribution for L=           1  read in
    real space projection operators read in
    PAW grid and wavefunctions read in
 
   number of l-projection  operators is LMAX  =           4
   number of lm-projection operators is LMMAX =           8
 
 Optimization of the real space projectors (new method)

 maximal supplied QI-value         = 25.13
 optimisation between [QCUT,QGAM] = [ 10.05, 20.36] = [ 28.30,116.06] Ry 
 Optimized for a Real-space Cutoff    1.51 Angstroem

   l    n(q)    QCUT    max X(q) W(low)/X(q) W(high)/X(q)  e(spline) 
   0      9    10.053   115.676    0.19E-03    0.21E-03    0.38E-06
   0      9    10.053    87.132    0.19E-03    0.21E-03    0.38E-06
   1      9    10.053     4.429    0.87E-04    0.11E-03    0.39E-06
   1      9    10.053     2.733    0.59E-04    0.62E-04    0.43E-06
 Optimization of the real space projectors (new method)

 maximal supplied QI-value         = 15.12
 optimisation between [QCUT,QGAM] = [ 10.13, 20.41] = [ 28.73,116.64] Ry 
 Optimized for a Real-space Cutoff    1.55 Angstroem

   l    n(q)    QCUT    max X(q) W(low)/X(q) W(high)/X(q)  e(spline) 
   2      9    10.129    94.395    0.23E-03    0.29E-03    0.30E-06
   2      9    10.129    88.078    0.23E-03    0.29E-03    0.30E-06
   0      9    10.129    50.173    0.57E-04    0.58E-04    0.11E-06
   0      9    10.129    24.906    0.50E-04    0.51E-04    0.96E-07
   1      9    10.129    12.133    0.24E-03    0.21E-04    0.16E-06
   1      9    10.129     7.290    0.17E-03    0.12E-04    0.12E-06
 Optimization of the real space projectors (new method)

 maximal supplied QI-value         = 34.20
 optimisation between [QCUT,QGAM] = [  9.92, 20.18] = [ 27.55,114.04] Ry 
 Optimized for a Real-space Cutoff    1.34 Angstroem

   l    n(q)    QCUT    max X(q) W(low)/X(q) W(high)/X(q)  e(spline) 
   0      8     9.919    19.460    0.16E-03    0.20E-03    0.36E-06
   0      8     9.919    12.209    0.16E-03    0.20E-03    0.35E-06
   1      8     9.919     4.655    0.19E-03    0.46E-03    0.40E-06
 Optimization of the real space projectors (new method)

 maximal supplied QI-value         = 13.61
 optimisation between [QCUT,QGAM] = [ 10.20, 20.41] = [ 29.16,116.64] Ry 
 Optimized for a Real-space Cutoff    1.65 Angstroem

   l    n(q)    QCUT    max X(q) W(low)/X(q) W(high)/X(q)  e(spline) 
   2      9    10.205    80.908    0.21E-03    0.30E-03    0.60E-06
   2      9    10.205    79.000    0.21E-03    0.30E-03    0.60E-06
   0     10    10.205    52.066    0.39E-04    0.38E-04    0.19E-06
   0     10    10.205    24.514    0.33E-04    0.32E-04    0.16E-06
   1     10    10.205    16.033    0.64E-04    0.17E-03    0.19E-06
   1     10    10.205    11.179    0.49E-04    0.13E-03    0.15E-06
 Optimization of the real space projectors (new method)

 maximal supplied QI-value         = 19.84
 optimisation between [QCUT,QGAM] = [ 10.12, 20.44] = [ 28.68,116.96] Ry 
 Optimized for a Real-space Cutoff    1.42 Angstroem

   l    n(q)    QCUT    max X(q) W(low)/X(q) W(high)/X(q)  e(spline) 
   0      9    10.119   187.594    0.52E-04    0.93E-04    0.64E-07
   0      9    10.119   164.243    0.51E-04    0.92E-04    0.63E-07
   1      8    10.119    67.533    0.16E-03    0.17E-03    0.23E-06
   1      8    10.119    50.729    0.16E-03    0.16E-03    0.23E-06
  PAW_PBE C 08Apr2002                   :
 energy of atom  1       EATOM= -147.1560
 kinetic energy error for atom=    0.0288 (will be added to EATOM!!)
  PAW_PBE Cr 06Sep2000                  :
 energy of atom  2       EATOM= -276.8859
 kinetic energy error for atom=    0.0018 (will be added to EATOM!!)
  PAW_PBE H 15Jun2001                   :
 energy of atom  3       EATOM=  -12.4884
 kinetic energy error for atom=    0.0098 (will be added to EATOM!!)
  PAW_PBE Mo 08Apr2002                  :
 energy of atom  4       EATOM= -217.5176
 kinetic energy error for atom=    0.0025 (will be added to EATOM!!)
  PAW_PBE S 06Sep2000                   :
 energy of atom  5       EATOM= -276.8230
 kinetic energy error for atom=    0.0046 (will be added to EATOM!!)
 
 
 POSCAR:  C Cr  H Mo  S                          
  positions in cartesian coordinates
  No initial velocities read in
 exchange correlation table for  LEXCH =        8
   RHO(1)=    0.500       N(1)  =     2000
   RHO(2)=  100.500       N(2)  =     4000

 VTST: version 3.1, (03/28/14)

 CHAIN: initializing optimizer
 
 OPT: Using VASP Conjugate-Gradient optimizer
 CHAIN: Read ICHAIN            0
 
 POSCAR:  C Cr  H Mo  S                          
  positions in cartesian coordinates
  No initial velocities read in
 


--------------------------------------------------------------------------------------------------------


 ion  position               nearest neighbor table
   1  0.054  0.692  0.047-  18 1.09   2 1.42   3 1.43  11 2.20
   2  0.077  0.597  0.061-  17 1.09   1 1.42   5 1.43  11 2.18
   3  0.007  0.740  0.078-  19 1.09   1 1.43   4 1.44  11 2.15
   4  1.000  0.675  0.112-  20 1.09   3 1.44   5 1.44  11 2.09
   5  0.043  0.585  0.102-  12 1.09   2 1.43   4 1.44  11 2.11
   6  0.660  0.404  0.040-  16 1.09  10 1.44   8 1.44  11 2.11
   7  0.608  0.434  0.103-  15 1.09   9 1.43   8 1.44  11 2.15
   8  0.659  0.367  0.080-  13 1.09   7 1.44   6 1.44  11 2.10
   9  0.577  0.510  0.079-  14 1.09  10 1.42   7 1.43  11 2.20
  10  0.609  0.492  0.041-  21 1.09   9 1.42   6 1.44  11 2.18
  11  0.829  0.551  0.074-   4 2.09   8 2.10   5 2.11   6 2.11   3 2.15   7 2.15  10 2.18   2 2.18
                             1 2.20   9 2.20
  12  0.052  0.522  0.121-   5 1.09
  13  0.687  0.299  0.089-   8 1.09
  14  0.544  0.576  0.089-   9 1.09
  15  0.597  0.429  0.134-   7 1.09
  16  0.690  0.369  0.015-   6 1.09
  17  0.108  0.540  0.044-   2 1.09
  18  0.064  0.718  0.017-   1 1.09
  19  0.979  0.813  0.076-   3 1.09
  20  0.972  0.693  0.141-   4 1.09
  21  0.601  0.541  0.016-  10 1.09
  22  0.556  0.083  0.250-  46 2.42  67 2.42  48 2.42  66 2.42  76 2.42  78 2.42  23 3.19  27 3.19
                            37 3.19  43 3.19  29 3.19  38 3.19
  23  0.556  0.333  0.250-  52 2.42  76 2.42  65 2.42  78 2.42  80 2.42  82 2.42  22 3.19  25 3.19
                            29 3.19  42 3.19  32 3.19  43 3.19
  24  0.444  0.417  0.750-  90 2.42  87 2.42  84 2.42  89 2.42  81 2.42  83 2.42  26 3.19  39 3.19
                            31 3.19  41 3.19  33 3.19  44 3.19
  25  0.556  0.583  0.250-  59 2.42  80 2.42  61 2.42  82 2.42  86 2.42  88 2.42  23 3.19  27 3.19
                            32 3.19  40 3.19  34 3.19  42 3.19
  26  0.444  0.667  0.750-  69 2.42  92 2.42  68 2.42  55 2.42  87 2.42  89 2.42  24 3.19  28 3.19
                            33 3.19  45 3.19  35 3.19  41 3.19
  27  0.556  0.833  0.250-  63 2.42  86 2.42  75 2.42  88 2.42  67 2.42  66 2.42  22 3.19  25 3.19
                            34 3.19  38 3.19  37 3.19  40 3.19
  28  0.444  0.917  0.750-  71 2.42  77 2.42  73 2.42  79 2.42  92 2.42  55 2.42  26 3.19  39 3.19
                            35 3.19  36 3.19  30 3.19  45 3.19
  29  0.889  0.333  0.250-  91 2.42  46 2.42  85 2.42  48 2.42  52 2.42  65 2.42  32 3.19  37 3.19
                            23 3.19  42 3.19  22 3.19  40 3.19
  30  0.778  0.167  0.750-  77 2.42  53 2.42  79 2.42  56 2.42  47 2.42  49 2.42  31 3.19  35 3.19
                            39 3.19  44 3.19  28 3.19  41 3.19
  31  0.778  0.417  0.750-  81 2.42  60 2.42  83 2.42  62 2.42  53 2.42  56 2.42  30 3.19  33 3.19
                            24 3.19  41 3.19  39 3.19  45 3.19
  32  0.889  0.583  0.250-  74 2.42  52 2.42  54 2.42  65 2.42  59 2.42  61 2.42  29 3.19  34 3.19
                            25 3.19  40 3.19  23 3.19  38 3.19
  33  0.778  0.667  0.750-  87 2.42  64 2.42  89 2.42  93 2.42  60 2.42  62 2.42  31 3.19  35 3.19
                            26 3.19  45 3.19  24 3.19  36 3.19
  34  0.889  0.833  0.250-  70 2.42  59 2.42  72 2.42  61 2.42  63 2.42  75 2.42  32 3.19  37 3.19
                            27 3.19  38 3.19  25 3.19  43 3.19
  35  0.778  0.917  0.750-  92 2.42  47 2.42  55 2.42  49 2.42  64 2.42  93 2.42  30 3.19  33 3.19
                            28 3.19  36 3.19  26 3.19  44 3.19
  36  0.111  0.917  0.750-  64 2.42  57 2.42  93 2.42  50 2.42  71 2.42  73 2.42  44 3.19  45 3.19
                            28 3.19  35 3.19  33 3.19  39 3.19
  37  0.889  0.083  0.250-  58 2.42  63 2.42  51 2.42  75 2.42  46 2.42  48 2.42  29 3.19  34 3.19
                            22 3.19  43 3.19  27 3.19  42 3.19
  38  0.222  0.833  0.250-  67 2.42  74 2.42  66 2.42  54 2.42  70 2.42  72 2.42  40 3.19  43 3.19
                            27 3.19  34 3.19  32 3.19  22 3.19
  39  0.444  0.167  0.750-  57 2.42  81 2.42  50 2.42  83 2.42  77 2.42  79 2.42  24 3.19  28 3.19
                            30 3.19  44 3.19  31 3.19  36 3.19
  40  0.222  0.583  0.250-  86 2.42  91 2.42  88 2.42  85 2.42  74 2.42  54 2.42  38 3.19  42 3.19
                            25 3.19  32 3.19  29 3.19  27 3.19
  41  0.111  0.417  0.750-  53 2.42  69 2.42  56 2.42  68 2.42  90 2.42  84 2.42  44 3.19  45 3.19
                            24 3.19  31 3.19  30 3.19  26 3.19
  42  0.222  0.333  0.250-  80 2.42  58 2.42  82 2.42  51 2.42  91 2.42  85 2.42  40 3.19  43 3.19
                            23 3.19  29 3.19  25 3.19  37 3.19
  43  0.222  0.083  0.250-  76 2.42  70 2.42  78 2.42  72 2.42  58 2.42  51 2.42  38 3.19  42 3.19
                            22 3.19  37 3.19  34 3.19  23 3.19
  44  0.111  0.167  0.750-  47 2.42  90 2.42  49 2.42  84 2.42  57 2.42  50 2.42  36 3.19  41 3.19
                            39 3.19  30 3.19  35 3.19  24 3.19
  45  0.111  0.667  0.750-  60 2.42  71 2.42  62 2.42  73 2.42  69 2.42  68 2.42  36 3.19  41 3.19
                            26 3.19  33 3.19  31 3.19  28 3.19
  46  0.778  0.167  0.295-  22 2.42  29 2.42  37 2.42
  47  0.889  0.083  0.795-  44 2.42  35 2.42  30 2.42
  48  0.778  0.167  0.205-  22 2.42  29 2.42  37 2.42
  49  0.889  0.083  0.705-  44 2.42  35 2.42  30 2.42
  50  0.222  0.083  0.705-  39 2.42  36 2.42  44 2.42
  51  0.111  0.167  0.205-  37 2.42  42 2.42  43 2.42
  52  0.778  0.417  0.295-  23 2.42  32 2.42  29 2.42
  53  0.889  0.333  0.795-  41 2.42  30 2.42  31 2.42
  54  0.111  0.667  0.205-  32 2.42  38 2.42  40 2.42
  55  0.556  0.833  0.705-  35 2.42  26 2.42  28 2.42
  56  0.889  0.333  0.705-  41 2.42  30 2.42  31 2.42
  57  0.222  0.083  0.795-  39 2.42  36 2.42  44 2.42
  58  0.111  0.167  0.295-  37 2.42  42 2.42  43 2.42
  59  0.778  0.667  0.295-  25 2.42  34 2.42  32 2.42
  60  0.889  0.583  0.795-  45 2.42  31 2.42  33 2.42
  61  0.778  0.667  0.205-  25 2.42  34 2.42  32 2.42
  62  0.889  0.583  0.705-  45 2.42  31 2.42  33 2.42
  63  0.778  0.917  0.295-  27 2.42  37 2.42  34 2.42
  64  0.889  0.833  0.795-  36 2.42  33 2.42  35 2.42
  65  0.778  0.417  0.205-  23 2.42  32 2.42  29 2.42
  66  0.444  0.917  0.205-  38 2.42  22 2.42  27 2.42
  67  0.444  0.917  0.295-  38 2.42  22 2.42  27 2.42
  68  0.222  0.583  0.705-  26 2.42  41 2.42  45 2.42
  69  0.222  0.583  0.795-  26 2.42  41 2.42  45 2.42
  70  0.111  0.917  0.295-  34 2.42  43 2.42  38 2.42
  71  0.222  0.833  0.795-  28 2.42  45 2.42  36 2.42
  72  0.111  0.917  0.205-  34 2.42  43 2.42  38 2.42
  73  0.222  0.833  0.705-  28 2.42  45 2.42  36 2.42
  74  0.111  0.667  0.295-  32 2.42  38 2.42  40 2.42
  75  0.778  0.917  0.205-  27 2.42  37 2.42  34 2.42
  76  0.444  0.167  0.295-  43 2.42  23 2.42  22 2.42
  77  0.556  0.083  0.795-  30 2.42  28 2.42  39 2.42
  78  0.444  0.167  0.205-  43 2.42  23 2.42  22 2.42
  79  0.556  0.083  0.705-  30 2.42  28 2.42  39 2.42
  80  0.444  0.417  0.295-  42 2.42  25 2.42  23 2.42
  81  0.556  0.333  0.795-  31 2.42  39 2.42  24 2.42
  82  0.444  0.417  0.205-  42 2.42  25 2.42  23 2.42
  83  0.556  0.333  0.705-  31 2.42  39 2.42  24 2.42
  84  0.222  0.333  0.705-  24 2.42  44 2.42  41 2.42
  85  0.111  0.417  0.205-  29 2.42  40 2.42  42 2.42
  86  0.444  0.667  0.295-  40 2.42  27 2.42  25 2.42
  87  0.556  0.583  0.795-  33 2.42  24 2.42  26 2.42
  88  0.444  0.667  0.205-  40 2.42  27 2.42  25 2.42
  89  0.556  0.583  0.705-  33 2.42  24 2.42  26 2.42
  90  0.222  0.333  0.795-  24 2.42  44 2.42  41 2.42
  91  0.111  0.417  0.295-  29 2.42  40 2.42  42 2.42
  92  0.556  0.833  0.795-  35 2.42  26 2.42  28 2.42
  93  0.889  0.833  0.705-  36 2.42  33 2.42  35 2.42
 
  LATTYP: Found a simple monoclinic cell.
 ALAT       =    16.8815660915
 B/A-ratio  =     2.0661745669
 C/A-ratio  =     1.4759983605
 COS(beta)  =    -0.9678678488
  
  Lattice vectors:
  
 A1 = ( -12.7612648832, -11.0515787236,   0.0000000000)
 A2 = (   0.0000000000,   0.0000000000, -34.8802625070)
 A3 = (  22.3322113382,  11.0515787236,   0.0000000000)


Analysis of symmetry for initial positions (statically):
=====================================================================
 Subroutine PRICEL returns:
 Original cell was already a primitive cell.
 

 Routine SETGRP: Setting up the symmetry group for a 
 simple monoclinic supercell.


 Subroutine GETGRP returns: Found  1 space group operations
 (whereof  1 operations were pure point group operations)
 out of a pool of  4 trial point group operations.


The static configuration has the point symmetry C_1 .


Analysis of symmetry for dynamics (positions and initial velocities):
=====================================================================
 Subroutine PRICEL returns:
 Original cell was already a primitive cell.
 

 Routine SETGRP: Setting up the symmetry group for a 
 simple monoclinic supercell.


 Subroutine GETGRP returns: Found  1 space group operations
 (whereof  1 operations were pure point group operations)
 out of a pool of  4 trial point group operations.


The dynamic configuration has the point symmetry C_1 .


 Subroutine INISYM returns: Found  1 space group operations
 (whereof  1 operations are pure point group operations),
 and found     1 'primitive' translations

 
 
 KPOINTS: Gamma-point only                        
  k-points in reciprocal lattice
Space group operators:
 irot       det(A)        alpha          n_x          n_y          n_z        tau_x        tau_y        tau_z
    1     1.000000     0.000000     1.000000     0.000000     0.000000     0.000000     0.000000     0.000000


--------------------------------------------------------------------------------------------------------




 Dimension of arrays:
   k-points           NKPTS =      1   k-points in BZ     NKDIM =      1   number of bands    NBANDS=    300
   number of dos      NEDOS =    301   number of ions     NIONS =     93
   non local maximal  LDIM  =      6   non local SUM 2l+1 LMDIM =     18
   total plane-waves  NPLWV = ******
   max r-space proj   IRMAX =   6611   max aug-charges    IRDMAX=  22650
   dimension x,y,z NGX =    64 NGY =   84 NGZ =  240
   dimension x,y,z NGXF=   128 NGYF=  168 NGZF=  480
   support grid    NGXF=   128 NGYF=  168 NGZF=  480
   ions per type =              10   1  10  24  48
 NGX,Y,Z   is equivalent  to a cutoff of  11.12, 10.94, 11.44 a.u.
 NGXF,Y,Z  is equivalent  to a cutoff of  22.23, 21.89, 22.88 a.u.


 I would recommend the setting:
   dimension x,y,z NGX =    62 NGY =   83 NGZ =  228
 SYSTEM =  basalPlane                              
 POSCAR =   C Cr  H Mo  S                          

 Startparameter for this run:
   NWRITE =      2    write-flag & timer
   PREC   = accura    normal or accurate (medium, high low for compatibility)
   ISTART =      0    job   : 0-new  1-cont  2-samecut
   ICHARG =      2    charge: 1-file 2-atom 10-const
   ISPIN  =      1    spin polarized calculation?
   LNONCOLLINEAR =      F non collinear calculations
   LSORBIT =      F    spin-orbit coupling
   INIWAV =      1    electr: 0-lowe 1-rand  2-diag
   LASPH  =      F    aspherical Exc in radial PAW
   METAGGA=      F    non-selfconsistent MetaGGA calc.

 Electronic Relaxation 1
   ENCUT  =  400.0 eV  29.40 Ry    5.42 a.u.  15.61 20.81 56.88*2*pi/ulx,y,z
   ENINI  =  400.0     initial cutoff
   ENAUG  =  645.0 eV  augmentation charge cutoff
   NELM   =    200;   NELMIN=  2; NELMDL= -5     # of ELM steps 
   EDIFF  = 0.1E-03   stopping-criterion for ELM
   LREAL  =      T    real-space projection
   NLSPLINE    = F    spline interpolate recip. space projectors
   LCOMPAT=      F    compatible to vasp.4.4
   GGA_COMPAT  = T    GGA compatible to vasp.4.4-vasp.4.6
   LMAXPAW     = -100 max onsite density
   LMAXMIX     =    2 max onsite mixed and CHGCAR
   VOSKOWN=      0    Vosko Wilk Nusair interpolation
   ROPT   =   -0.00025  -0.00025  -0.00025  -0.00025
   ROPT   =   -0.00025
 Ionic relaxation
   EDIFFG = -.2E-01   stopping-criterion for IOM
   NSW    =  10000    number of steps for IOM
   NBLOCK =      1;   KBLOCK =  10000    inner block; outer block 
   IBRION =      2    ionic relax: 0-MD 1-quasi-New 2-CG
   NFREE  =      1    steps in history (QN), initial steepest desc. (CG)
   ISIF   =      2    stress and relaxation
   IWAVPR =     11    prediction:  0-non 1-charg 2-wave 3-comb
   ISYM   =      2    0-nonsym 1-usesym 2-fastsym
   LCORR  =      T    Harris-Foulkes like correction to forces

   POTIM  = 0.5000    time-step for ionic-motion
   TEIN   =    0.0    initial temperature
   TEBEG  =    0.0;   TEEND  =   0.0 temperature during run
   SMASS  =  -3.00    Nose mass-parameter (am)
   estimated Nose-frequenzy (Omega)   =  0.10E-29 period in steps =****** mass=  -0.209E-26a.u.
   SCALEE = 1.0000    scale energy and forces
   NPACO  =    256;   APACO  = 16.0  distance and # of slots for P.C.
   PSTRESS=    0.0 pullay stress

  Mass of Ions in am
   POMASS =  12.01 52.00  1.00 95.94 32.07
  Ionic Valenz
   ZVAL   =   4.00  6.00  1.00  6.00  6.00
  Atomic Wigner-Seitz radii
   RWIGS  =  -1.00 -1.00 -1.00 -1.00 -1.00
  virtual crystal weights 
   VCA    =   1.00  1.00  1.00  1.00  1.00
   NELECT =     488.0000    total number of electrons
   NUPDOWN=      -1.0000    fix difference up-down

 DOS related values:
   EMIN   =  10.00;   EMAX   =-10.00  energy-range for DOS
   EFERMI =   0.00
   ISMEAR =     0;   SIGMA  =   0.10  broadening in eV -4-tet -1-fermi 0-gaus

 Electronic relaxation 2 (details)
   IALGO  =     38    algorithm
   LDIAG  =      T    sub-space diagonalisation (order eigenvalues)
   LSUBROT=      F    optimize rotation matrix (better conditioning)
   TURBO    =      0    0=normal 1=particle mesh
   IRESTART =      0    0=no restart 2=restart with 2 vectors
   NREBOOT  =      0    no. of reboots
   NMIN     =      0    reboot dimension
   EREF     =   0.00    reference energy to select bands
   IMIX   =      4    mixing-type and parameters
     AMIX     =   0.40;   BMIX     =  1.00
     AMIX_MAG =   1.60;   BMIX_MAG =  1.00
     AMIN     =   0.10
     WC   =   100.;   INIMIX=   1;  MIXPRE=   1;  MAXMIX= -45

 Intra band minimization:
   WEIMIN = 0.0010     energy-eigenvalue tresh-hold
   EBREAK =  0.83E-07  absolut break condition
   DEPER  =   0.30     relativ break condition  

   TIME   =   0.40     timestep for ELM

  volume/ion in A,a.u.               =      39.67       267.71
  Fermi-wavevector in a.u.,A,eV,Ry     =   0.834120  1.576258  9.466334  0.695756
  Thomas-Fermi vector in A             =   1.947458
 
 Write flags
   LWAVE  =      F    write WAVECAR
   LCHARG =      F    write CHGCAR
   LVTOT  =      F    write LOCPOT, total local potential
   LVHAR  =      F    write LOCPOT, Hartree potential only
   LELF   =      F    write electronic localiz. function (ELF)
   LORBIT =      0    0 simple, 1 ext, 2 COOP (PROOUT)


 Dipole corrections
   LMONO  =      F    monopole corrections only (constant potential shift)
   LDIPOL =      F    correct potential (dipole corrections)
   IDIPOL =      0    1-x, 2-y, 3-z, 4-all directions 
   EPSILON=  1.0000000 bulk dielectric constant

 Exchange correlation treatment:
   GGA     =    --    GGA type
   LEXCH   =     8    internal setting for exchange type
   VOSKOWN=      0    Vosko Wilk Nusair interpolation
   LHFCALC =     F    Hartree Fock is set to
   LHFONE  =     F    Hartree Fock one center treatment
   AEXX    =    0.0000 exact exchange contribution

 Linear response parameters
   LEPSILON=     F    determine dielectric tensor
   LRPA    =     F    only Hartree local field effects (RPA)
   LNABLA  =     F    use nabla operator in PAW spheres
   LVEL    =     F    velocity operator in full k-point grid
   LINTERFAST=   F  fast interpolation
   KINTER  =     0    interpolate to denser k-point grid
   CSHIFT  =0.1000    complex shift for real part using Kramers Kronig
   OMEGAMAX=  -1.0    maximum frequency
   DEG_THRESHOLD= 0.2000000E-02 threshold for treating states as degnerate
   RTIME   =    0.100 relaxation time in fs

 Orbital magnetization related:
   ORBITALMAG=     F  switch on orbital magnetization
   LCHIMAG   =     F  perturbation theory with respect to B field
   DQ        =  0.001000  dq finite difference perturbation B field



--------------------------------------------------------------------------------------------------------


 conjugate gradient relaxation of ions
 charge density and potential will be updated during run
 non-spin polarized calculation
 Variant of blocked Davidson
 Davidson routine will perform the subspace rotation
 perform sub-space diagonalisation
    after iterative eigenvector-optimisation
 modified Broyden-mixing scheme, WC =      100.0
 initial mixing is a Kerker type mixing with AMIX =  0.4000 and BMIX =      1.0000
 Hartree-type preconditioning will be used
 using additional bands           56
 real space projection scheme for non local part
 use partial core corrections
 calculate Harris-corrections to forces 
   (improved forces if not selfconsistent)
 use gradient corrections 
 use of overlap-Matrix (Vanderbilt PP)
 Gauss-broadening in eV      SIGMA  =   0.10


--------------------------------------------------------------------------------------------------------


  energy-cutoff  :      400.00
  volume of cell :     3689.43
      direct lattice vectors                 reciprocal lattice vectors
     9.570946455  0.000000000  0.000000000     0.104482875  0.060323179  0.000000000
    -6.380628027 11.051578724  0.000000000     0.000000000  0.090484810  0.000000000
     0.000000000  0.000000000 34.880262507     0.000000000  0.000000000  0.028669509

  length of vectors
     9.570946455 12.761261940 34.880262507     0.120646413  0.090484810  0.028669509


 
 k-points in units of 2pi/SCALE and weight: Gamma-point only                        
   0.00000000  0.00000000  0.00000000       1.000
 
 k-points in reciprocal lattice and weights: Gamma-point only                        
   0.00000000  0.00000000  0.00000000       1.000
 
 position of ions in fractional coordinates (direct lattice) 
   0.05416014  0.69156758  0.04681121
   0.07657862  0.59678423  0.06127783
   0.00664891  0.74009994  0.07774550
   0.99986498  0.67487306  0.11206480
   0.04332602  0.58533633  0.10160939
   0.65992283  0.40382372  0.04037140
   0.60787824  0.43384688  0.10333574
   0.65895238  0.36700313  0.07958920
   0.57725739  0.51015969  0.07913280
   0.60934200  0.49246893  0.04054148
   0.82916020  0.55121893  0.07356844
   0.05186470  0.52187656  0.12091912
   0.68712311  0.29872295  0.08931417
   0.54374838  0.57574045  0.08876841
   0.59687885  0.42865341  0.13439679
   0.68979075  0.36886905  0.01514250
   0.10783248  0.53988721  0.04433779
   0.06382815  0.71831810  0.01687256
   0.97931746  0.81300377  0.07558596
   0.97224566  0.69255851  0.14075965
   0.60107795  0.54053521  0.01566253
   0.55555566  0.08333325  0.25000928
   0.55555566  0.33333325  0.25000928
   0.44444432  0.41666674  0.74999076
   0.55555566  0.58333325  0.25000928
   0.44444432  0.66666674  0.74999076
   0.55555566  0.83333325  0.25000928
   0.44444432  0.91666674  0.74999076
   0.88888899  0.33333325  0.25000928
   0.77777765  0.16666674  0.74999076
   0.77777765  0.41666674  0.74999076
   0.88888899  0.58333325  0.25000928
   0.77777765  0.66666674  0.74999076
   0.88888899  0.83333325  0.25000928
   0.77777765  0.91666674  0.74999076
   0.11111099  0.91666674  0.74999076
   0.88888899  0.08333325  0.25000928
   0.22222233  0.83333325  0.25000928
   0.44444432  0.16666674  0.74999076
   0.22222233  0.58333325  0.25000928
   0.11111099  0.41666674  0.74999076
   0.22222233  0.33333325  0.25000928
   0.22222233  0.08333325  0.25000928
   0.11111099  0.16666674  0.74999076
   0.11111099  0.66666674  0.74999076
   0.77777765  0.16666674  0.29487388
   0.88888899  0.08333325  0.79485533
   0.77777765  0.16666674  0.20514467
   0.88888899  0.08333325  0.70512613
   0.22222233  0.08333325  0.70512613
   0.11111099  0.16666674  0.20514467
   0.77777765  0.41666674  0.29487388
   0.88888899  0.33333325  0.79485533
   0.11111099  0.66666674  0.20514467
   0.55555566  0.83333325  0.70512613
   0.88888899  0.33333325  0.70512613
   0.22222233  0.08333325  0.79485533
   0.11111099  0.16666674  0.29487388
   0.77777765  0.66666674  0.29487388
   0.88888899  0.58333325  0.79485533
   0.77777765  0.66666674  0.20514467
   0.88888899  0.58333325  0.70512613
   0.77777765  0.91666674  0.29487388
   0.88888899  0.83333325  0.79485533
   0.77777765  0.41666674  0.20514467
   0.44444432  0.91666674  0.20514467
   0.44444432  0.91666674  0.29487388
   0.22222233  0.58333325  0.70512613
   0.22222233  0.58333325  0.79485533
   0.11111099  0.91666674  0.29487388
   0.22222233  0.83333325  0.79485533
   0.11111099  0.91666674  0.20514467
   0.22222233  0.83333325  0.70512613
   0.11111099  0.66666674  0.29487388
   0.77777765  0.91666674  0.20514467
   0.44444432  0.16666674  0.29487388
   0.55555566  0.08333325  0.79485533
   0.44444432  0.16666674  0.20514467
   0.55555566  0.08333325  0.70512613
   0.44444432  0.41666674  0.29487388
   0.55555566  0.33333325  0.79485533
   0.44444432  0.41666674  0.20514467
   0.55555566  0.33333325  0.70512613
   0.22222233  0.33333325  0.70512613
   0.11111099  0.41666674  0.20514467
   0.44444432  0.66666674  0.29487388
   0.55555566  0.58333325  0.79485533
   0.44444432  0.66666674  0.20514467
   0.55555566  0.58333325  0.70512613
   0.22222233  0.33333325  0.79485533
   0.11111099  0.41666674  0.29487388
   0.55555566  0.83333325  0.79485533
   0.88888899  0.83333325  0.70512613
 
 position of ions in cartesian coordinates  (Angst):
  -3.89427166  7.64291359  1.63278729
  -3.07492834  6.59540787  2.13738685
  -4.65866603  8.17927273  2.71178342
   5.26354024  7.45841270  3.90884957
  -3.32014238  6.46889053  3.54416203
   3.73943710  4.46288968  1.40816515
   3.04975457  4.79469291  3.60437769
   3.96508743  4.05596402  2.77609204
   2.26976036  5.63807000  2.76017279
   2.68971854  5.44255920  1.41409743
   4.41872488  6.09183940  2.56608666
  -2.83350592  5.76755985  4.21769066
   4.67037843  3.30136022  3.11530169
   1.53060095  6.36284091  3.09626527
   2.97761757  4.73729691  4.68779532
   4.24833415  4.07658532  0.52817440
  -2.41276055  5.96660598  1.54651375
  -3.97242479  7.93854902  0.58851938
   4.18552036  8.98497514  2.63645818
   4.88635287  7.65386490  4.90973339
   2.30393073  5.97376748  0.54631333
   4.78547502  0.92096394  8.72038942
   3.19031801  3.68385862  8.72038942
   1.59515729  4.60482531 26.15987450
   1.59516100  6.44675330  8.72038942
   0.00000028  7.36771999 26.15987450
   0.00000400  9.20964798  8.72038942
  -1.59515673 10.13061467 26.15987450
   6.38063349  3.68385862  8.72038942
   6.38062978  1.84193063 26.15987450
   4.78547277  4.60482531 26.15987450
   4.78547649  6.44675330  8.72038942
   3.19031576  7.36771999 26.15987450
   3.19031948  9.20964798  8.72038942
   1.59515876 10.13061467 26.15987450
  -4.78547221 10.13061467 26.15987450
   7.97579050  0.92096394  8.72038942
  -3.19031149  9.20964798  8.72038942
   3.19031429  1.84193063 26.15987450
  -1.59515448  6.44675330  8.72038942
  -1.59515820  4.60482531 26.15987450
   0.00000252  3.68385862  8.72038942
   1.59515953  0.92096394  8.72038942
  -0.00000119  1.84193063 26.15987450
  -3.19031521  7.36771999 26.15987450
   6.38062978  1.84193063 10.28527839
   7.97579050  0.92096394 27.72476251
   6.38062978  1.84193063  7.15550000
   7.97579050  0.92096394 24.59498459
   1.59515953  0.92096394 24.59498459
  -0.00000119  1.84193063  7.15550000
   4.78547277  4.60482531 10.28527839
   6.38063349  3.68385862 27.72476251
  -3.19031521  7.36771999  7.15550000
   0.00000400  9.20964798 24.59498459
   6.38063349  3.68385862 24.59498459
   1.59515953  0.92096394 27.72476251
  -0.00000119  1.84193063 10.28527839
   3.19031576  7.36771999 10.28527839
   4.78547649  6.44675330 27.72476251
   3.19031576  7.36771999  7.15550000
   4.78547649  6.44675330 24.59498459
   1.59515876 10.13061467 10.28527839
   3.19031948  9.20964798 27.72476251
   4.78547277  4.60482531  7.15550000
  -1.59515673 10.13061467  7.15550000
  -1.59515673 10.13061467 10.28527839
  -1.59515448  6.44675330 24.59498459
  -1.59515448  6.44675330 27.72476251
  -4.78547221 10.13061467 10.28527839
  -3.19031149  9.20964798 27.72476251
  -4.78547221 10.13061467  7.15550000
  -3.19031149  9.20964798 24.59498459
  -3.19031521  7.36771999 10.28527839
   1.59515876 10.13061467  7.15550000
   3.19031429  1.84193063 10.28527839
   4.78547502  0.92096394 27.72476251
   3.19031429  1.84193063  7.15550000
   4.78547502  0.92096394 24.59498459
   1.59515729  4.60482531 10.28527839
   3.19031801  3.68385862 27.72476251
   1.59515729  4.60482531  7.15550000
   3.19031801  3.68385862 24.59498459
   0.00000252  3.68385862 24.59498459
  -1.59515820  4.60482531  7.15550000
   0.00000028  7.36771999 10.28527839
   1.59516100  6.44675330 27.72476251
   0.00000028  7.36771999  7.15550000
   1.59516100  6.44675330 24.59498459
   0.00000252  3.68385862 27.72476251
  -1.59515820  4.60482531 10.28527839
   0.00000400  9.20964798 27.72476251
   3.19031948  9.20964798 24.59498459
 


--------------------------------------------------------------------------------------------------------


 use parallel FFT for wavefunctions z direction half grid
 k-point  1 :   0.0000 0.0000 0.0000  plane waves:   33544

 maximum and minimum number of plane-waves per node :     11182    11180

 maximum number of plane-waves:     33544
 maximum index in each direction: 
   IXMAX=   15   IYMAX=   20   IZMAX=   56
   IXMIN=  -15   IYMIN=  -20   IZMIN=    0

 NGX is ok and might be reduce to  62
 NGY is ok and might be reduce to  82
 NGZ is ok and might be reduce to 226

 real space projection operators:
  total allocation   :      38921.34 KBytes
  max/ min on nodes  :      13375.12      12769.01


 parallel 3D FFT for wavefunctions:
    minimum data exchange during FFTs selected (reduces bandwidth)
 parallel 3D FFT for charge:
    minimum data exchange during FFTs selected (reduces bandwidth)


 total amount of memory used by VASP on root node   114658. kBytes
========================================================================

   base      :      30000. kBytes
   nonlr-proj:      16435. kBytes
   fftplans  :      19781. kBytes
   grid      :      43661. kBytes
   one-center:        241. kBytes
   wavefun   :       4540. kBytes
 
     INWAV:  cpu time    0.0001: real time    0.0004
 Broyden mixing: mesh for mixing (old mesh)
   NGX = 31   NGY = 41   NGZ =113
  (NGX  =128   NGY  =168   NGZ  =480)
  gives a total of 143623 points

 initial charge density was supplied:
 charge density of overlapping atoms calculated
 number of electron     488.0000000 magnetization 
 keeping initial charge density in first step


--------------------------------------------------------------------------------------------------------


 Maximum index for non-local projection operator         2301
 Maximum index for augmentation-charges         1165 (set IRDMAX)


--------------------------------------------------------------------------------------------------------


 First call to EWALD:  gamma=   0.115
 Maximum number of real-space cells 5x 4x 1
 Maximum number of reciprocal cells 2x 2x 6

 FEWALD executed in parallel
    FEWALD:  cpu time    0.0053: real time    0.0055


----------------------------------------- Iteration    1(   1)  ---------------------------------------


    POTLOK:  cpu time    0.3845: real time    0.3856
    SETDIJ:  cpu time    0.0125: real time    0.0128
     EDDAV:  cpu time    5.3417: real time    5.6641
       DOS:  cpu time    0.0009: real time    0.0009
    --------------------------------------------
      LOOP:  cpu time    5.7445: real time    6.0702

 eigenvalue-minimisations  :   612
 total energy-change (2. order) : 0.4343171E+04  (-0.1807307E+05)
 number of electron     488.0000000 magnetization 
 augmentation part      488.0000000 magnetization 

 Free energy of the ion-electron system (eV)
  ---------------------------------------------------
  alpha Z        PSCENC =       562.39184220
  Ewald energy   TEWEN  =     40919.62593326
  -Hartree energ DENC   =    -59839.94238571
  -exchange      EXHF   =         0.00000000
  -V(xc)+E(xc)   XCENC  =      -737.09877131
  PAW double counting   =     18197.44745459   -16322.33343364
  entropy T*S    EENTRO =        -0.14488445
  eigenvalues    EBANDS =      1182.63590084
  atomic energy  EATOM  =     20380.58938199
  Solvation  Ediel_sol  =         0.00000000
  ---------------------------------------------------
  free energy    TOTEN  =      4343.17103776 eV

  energy without entropy =     4343.31592222  energy(sigma->0) =     4343.24347999


--------------------------------------------------------------------------------------------------------




----------------------------------------- Iteration    1(   2)  ---------------------------------------


     EDDAV:  cpu time    8.5815: real time    8.6656
       DOS:  cpu time    0.0008: real time    0.0008
    --------------------------------------------
      LOOP:  cpu time    8.5833: real time    8.6691

 eigenvalue-minimisations  :   972
 total energy-change (2. order) :-0.4371087E+04  (-0.4204837E+04)
 number of electron     488.0000000 magnetization 
 augmentation part      488.0000000 magnetization 

 Free energy of the ion-electron system (eV)
  ---------------------------------------------------
  alpha Z        PSCENC =       562.39184220
  Ewald energy   TEWEN  =     40919.62593326
  -Hartree energ DENC   =    -59839.94238571
  -exchange      EXHF   =         0.00000000
  -V(xc)+E(xc)   XCENC  =      -737.09877131
  PAW double counting   =     18197.44745459   -16322.33343364
  entropy T*S    EENTRO =        -0.04990879
  eigenvalues    EBANDS =     -3188.54625794
  atomic energy  EATOM  =     20380.58938199
  Solvation  Ediel_sol  =         0.00000000
  ---------------------------------------------------
  free energy    TOTEN  =       -27.91614535 eV

  energy without entropy =      -27.86623656  energy(sigma->0) =      -27.89119096


--------------------------------------------------------------------------------------------------------




----------------------------------------- Iteration    1(   3)  ---------------------------------------


     EDDAV:  cpu time    6.7657: real time    6.7884
       DOS:  cpu time    0.0008: real time    0.0008
    --------------------------------------------
      LOOP:  cpu time    6.7725: real time    6.7976

 eigenvalue-minimisations  :   720
 total energy-change (2. order) :-0.6510754E+03  (-0.6413091E+03)
 number of electron     488.0000000 magnetization 
 augmentation part      488.0000000 magnetization 

 Free energy of the ion-electron system (eV)
  ---------------------------------------------------
  alpha Z        PSCENC =       562.39184220
  Ewald energy   TEWEN  =     40919.62593326
  -Hartree energ DENC   =    -59839.94238571
  -exchange      EXHF   =         0.00000000
  -V(xc)+E(xc)   XCENC  =      -737.09877131
  PAW double counting   =     18197.44745459   -16322.33343364
  entropy T*S    EENTRO =        -0.00000007
  eigenvalues    EBANDS =     -3839.67161377
  atomic energy  EATOM  =     20380.58938199
  Solvation  Ediel_sol  =         0.00000000
  ---------------------------------------------------
  free energy    TOTEN  =      -678.99159247 eV

  energy without entropy =     -678.99159239  energy(sigma->0) =     -678.99159243


--------------------------------------------------------------------------------------------------------




----------------------------------------- Iteration    1(   4)  ---------------------------------------


     EDDAV:  cpu time    7.8132: real time    7.8392
       DOS:  cpu time    0.0007: real time    0.0007
    --------------------------------------------
      LOOP:  cpu time    7.8161: real time    7.8469

 eigenvalue-minimisations  :   864
 total energy-change (2. order) :-0.3455354E+02  (-0.3433104E+02)
 number of electron     488.0000000 magnetization 
 augmentation part      488.0000000 magnetization 

 Free energy of the ion-electron system (eV)
  ---------------------------------------------------
  alpha Z        PSCENC =       562.39184220
  Ewald energy   TEWEN  =     40919.62593326
  -Hartree energ DENC   =    -59839.94238571
  -exchange      EXHF   =         0.00000000
  -V(xc)+E(xc)   XCENC  =      -737.09877131
  PAW double counting   =     18197.44745459   -16322.33343364
  entropy T*S    EENTRO =        -0.00000001
  eigenvalues    EBANDS =     -3874.22515379
  atomic energy  EATOM  =     20380.58938199
  Solvation  Ediel_sol  =         0.00000000
  ---------------------------------------------------
  free energy    TOTEN  =      -713.54513242 eV

  energy without entropy =     -713.54513241  energy(sigma->0) =     -713.54513241


--------------------------------------------------------------------------------------------------------




----------------------------------------- Iteration    1(   5)  ---------------------------------------


     EDDAV:  cpu time    7.6932: real time    7.7168
       DOS:  cpu time    0.0006: real time    0.0006
    CHARGE:  cpu time    0.5544: real time    0.5558
    MIXING:  cpu time    0.0122: real time    0.0124
    --------------------------------------------
      LOOP:  cpu time    8.2635: real time    8.2906

 eigenvalue-minimisations  :   852
 total energy-change (2. order) :-0.1294403E+01  (-0.1286913E+01)
 number of electron     488.0000090 magnetization 
 augmentation part      -19.9383859 magnetization 

 Broyden mixing:
  rms(total) = 0.12305E+02    rms(broyden)= 0.12305E+02
  rms(prec ) = 0.12374E+02
  weight for this iteration     100.00

 Free energy of the ion-electron system (eV)
  ---------------------------------------------------
  alpha Z        PSCENC =       562.39184220
  Ewald energy   TEWEN  =     40919.62593326
  -Hartree energ DENC   =    -59839.94238571
  -exchange      EXHF   =         0.00000000
  -V(xc)+E(xc)   XCENC  =      -737.09877131
  PAW double counting   =     18197.44745459   -16322.33343364
  entropy T*S    EENTRO =        -0.00000001
  eigenvalues    EBANDS =     -3875.51955670
  atomic energy  EATOM  =     20380.58938199
  Solvation  Ediel_sol  =         0.00000000
  ---------------------------------------------------
  free energy    TOTEN  =      -714.83953533 eV

  energy without entropy =     -714.83953532  energy(sigma->0) =     -714.83953533


--------------------------------------------------------------------------------------------------------




----------------------------------------- Iteration    1(   6)  ---------------------------------------


    POTLOK:  cpu time    0.3703: real time    0.3717
    SETDIJ:  cpu time    0.0110: real time    0.0111
     EDDAV:  cpu time    7.3326: real time    7.3562
       DOS:  cpu time    0.0007: real time    0.0007
    CHARGE:  cpu time    0.5481: real time    0.5499
    MIXING:  cpu time    0.0116: real time    0.0117
    --------------------------------------------
      LOOP:  cpu time    8.2752: real time    8.3039

 eigenvalue-minimisations  :   804
 total energy-change (2. order) : 0.1520617E+02  (-0.5813916E+02)
 number of electron     488.0000083 magnetization 
 augmentation part       -1.2260249 magnetization 

 Broyden mixing:
  rms(total) = 0.76780E+01    rms(broyden)= 0.76778E+01
  rms(prec ) = 0.78255E+01
  weight for this iteration     100.00

 eigenvalues of (default mixing * dielectric matrix)
  average eigenvalue GAMMA=   0.8649
  0.8649

 Free energy of the ion-electron system (eV)
  ---------------------------------------------------
  alpha Z        PSCENC =       562.39184220
  Ewald energy   TEWEN  =     40919.62593326
  -Hartree energ DENC   =    -59890.55335053
  -exchange      EXHF   =         0.00000000
  -V(xc)+E(xc)   XCENC  =      -710.63249720
  PAW double counting   =     26417.20379130   -24559.68896489
  entropy T*S    EENTRO =        -0.11277844
  eigenvalues    EBANDS =     -3818.45671926
  atomic energy  EATOM  =     20380.58938199
  Solvation  Ediel_sol  =         0.00000000
  ---------------------------------------------------
  free energy    TOTEN  =      -699.63336156 eV

  energy without entropy =     -699.52058312  energy(sigma->0) =     -699.57697234


--------------------------------------------------------------------------------------------------------




----------------------------------------- Iteration    1(   7)  ---------------------------------------


    POTLOK:  cpu time    0.3660: real time    0.3669
    SETDIJ:  cpu time    0.0108: real time    0.0108
     EDDAV:  cpu time    7.9657: real time    7.9907
       DOS:  cpu time    0.0010: real time    0.0010
    CHARGE:  cpu time    0.5781: real time    0.5800
    MIXING:  cpu time    0.0119: real time    0.0119
    --------------------------------------------
      LOOP:  cpu time    8.9343: real time    8.9638

 eigenvalue-minimisations  :   888
 total energy-change (2. order) :-0.1122213E+02  (-0.8463461E+02)
 number of electron     488.0000081 magnetization 
 augmentation part      -11.7322472 magnetization 

 Broyden mixing:
  rms(total) = 0.43778E+01    rms(broyden)= 0.43776E+01
  rms(prec ) = 0.45891E+01
  weight for this iteration     100.00

 eigenvalues of (default mixing * dielectric matrix)
  average eigenvalue GAMMA=   1.0707
  1.6436  0.4978

 Free energy of the ion-electron system (eV)
  ---------------------------------------------------
  alpha Z        PSCENC =       562.39184220
  Ewald energy   TEWEN  =     40919.62593326
  -Hartree energ DENC   =    -60097.96454189
  -exchange      EXHF   =         0.00000000
  -V(xc)+E(xc)   XCENC  =      -713.55144991
  PAW double counting   =     32460.15527943   -30625.43386570
  entropy T*S    EENTRO =        -0.16768605
  eigenvalues    EBANDS =     -3596.50038550
  atomic energy  EATOM  =     20380.58938199
  Solvation  Ediel_sol  =         0.00000000
  ---------------------------------------------------
  free energy    TOTEN  =      -710.85549218 eV

  energy without entropy =     -710.68780613  energy(sigma->0) =     -710.77164916


--------------------------------------------------------------------------------------------------------




----------------------------------------- Iteration    1(   8)  ---------------------------------------


    POTLOK:  cpu time    0.3658: real time    0.3684
    SETDIJ:  cpu time    0.0108: real time    0.0109
     EDDAV:  cpu time    7.0872: real time    7.1130
       DOS:  cpu time    0.0008: real time    0.0008
    CHARGE:  cpu time    0.5791: real time    0.5821
    MIXING:  cpu time    0.0117: real time    0.0118
    --------------------------------------------
      LOOP:  cpu time    8.0563: real time    8.0934

 eigenvalue-minimisations  :   768
 total energy-change (2. order) : 0.3241634E+02  (-0.1431489E+02)
 number of electron     488.0000081 magnetization 
 augmentation part      -13.0443621 magnetization 

 Broyden mixing:
  rms(total) = 0.39245E+01    rms(broyden)= 0.39243E+01
  rms(prec ) = 0.52341E+01
  weight for this iteration     100.00

 eigenvalues of (default mixing * dielectric matrix)
  average eigenvalue GAMMA=   0.9278
  1.8782  0.4526  0.4526

 Free energy of the ion-electron system (eV)
  ---------------------------------------------------
  alpha Z        PSCENC =       562.39184220
  Ewald energy   TEWEN  =     40919.62593326
  -Hartree energ DENC   =    -60155.02839790
  -exchange      EXHF   =         0.00000000
  -V(xc)+E(xc)   XCENC  =      -710.07831531
  PAW double counting   =     39246.47078103   -37413.94333359
  entropy T*S    EENTRO =        -0.62093529
  eigenvalues    EBANDS =     -3507.84611317
  atomic energy  EATOM  =     20380.58938199
  Solvation  Ediel_sol  =         0.00000000
  ---------------------------------------------------
  free energy    TOTEN  =      -678.43915678 eV

  energy without entropy =     -677.81822149  energy(sigma->0) =     -678.12868914


--------------------------------------------------------------------------------------------------------




----------------------------------------- Iteration    1(   9)  ---------------------------------------


    POTLOK:  cpu time    0.3646: real time    0.3672
    SETDIJ:  cpu time    0.0108: real time    0.0109
     EDDAV:  cpu time    7.7763: real time    7.8011
       DOS:  cpu time    0.0008: real time    0.0008
    CHARGE:  cpu time    0.5696: real time    0.5724
    MIXING:  cpu time    0.0112: real time    0.0120
    --------------------------------------------
      LOOP:  cpu time    8.7341: real time    8.7676

 eigenvalue-minimisations  :   864
 total energy-change (2. order) : 0.6328242E+01  (-0.1578145E+02)
 number of electron     488.0000082 magnetization 
 augmentation part      -12.9847857 magnetization 

 Broyden mixing:
  rms(total) = 0.32000E+01    rms(broyden)= 0.31997E+01
  rms(prec ) = 0.41332E+01
  weight for this iteration     100.00

 eigenvalues of (default mixing * dielectric matrix)
  average eigenvalue GAMMA=   0.9338
  2.3252  0.6290  0.6290  0.1521

 Free energy of the ion-electron system (eV)
  ---------------------------------------------------
  alpha Z        PSCENC =       562.39184220
  Ewald energy   TEWEN  =     40919.62593326
  -Hartree energ DENC   =    -60221.43395295
  -exchange      EXHF   =         0.00000000
  -V(xc)+E(xc)   XCENC  =      -708.30026132
  PAW double counting   =     40427.25390992   -38595.29540752
  entropy T*S    EENTRO =        -0.24138739
  eigenvalues    EBANDS =     -3436.70097324
  atomic energy  EATOM  =     20380.58938199
  Solvation  Ediel_sol  =         0.00000000
  ---------------------------------------------------
  free energy    TOTEN  =      -672.11091505 eV

  energy without entropy =     -671.86952766  energy(sigma->0) =     -671.99022135


--------------------------------------------------------------------------------------------------------




----------------------------------------- Iteration    1(  10)  ---------------------------------------


    POTLOK:  cpu time    0.3654: real time    0.3675
    SETDIJ:  cpu time    0.0108: real time    0.0108
     EDDAV:  cpu time    7.7848: real time    7.8457
       DOS:  cpu time    0.0007: real time    0.0008
    CHARGE:  cpu time    0.5446: real time    0.5460
    MIXING:  cpu time    0.0122: real time    0.0122
    --------------------------------------------
      LOOP:  cpu time    8.7195: real time    8.7863

 eigenvalue-minimisations  :   864
 total energy-change (2. order) : 0.4853646E+01  (-0.1914718E+02)
 number of electron     488.0000085 magnetization 
 augmentation part       -8.2360680 magnetization 

 Broyden mixing:
  rms(total) = 0.25494E+01    rms(broyden)= 0.25491E+01
  rms(prec ) = 0.27059E+01
  weight for this iteration     100.00

 eigenvalues of (default mixing * dielectric matrix)
  average eigenvalue GAMMA=   0.7727
  2.2569  0.6149  0.6149  0.2114  0.1654

 Free energy of the ion-electron system (eV)
  ---------------------------------------------------
  alpha Z        PSCENC =       562.39184220
  Ewald energy   TEWEN  =     40919.62593326
  -Hartree energ DENC   =    -60238.78402885
  -exchange      EXHF   =         0.00000000
  -V(xc)+E(xc)   XCENC  =      -702.47542654
  PAW double counting   =     43778.53500794   -41947.70091608
  entropy T*S    EENTRO =        -0.10258719
  eigenvalues    EBANDS =     -3419.33647541
  atomic energy  EATOM  =     20380.58938199
  Solvation  Ediel_sol  =         0.00000000
  ---------------------------------------------------
  free energy    TOTEN  =      -667.25726868 eV

  energy without entropy =     -667.15468149  energy(sigma->0) =     -667.20597508


--------------------------------------------------------------------------------------------------------




----------------------------------------- Iteration    1(  11)  ---------------------------------------


    POTLOK:  cpu time    0.3654: real time    0.3663
    SETDIJ:  cpu time    0.0108: real time    0.0109
     EDDAV:  cpu time    8.3797: real time    8.4024
       DOS:  cpu time    0.0008: real time    0.0008
    CHARGE:  cpu time    0.5469: real time    0.5483
    MIXING:  cpu time    0.0124: real time    0.0125
    --------------------------------------------
      LOOP:  cpu time    9.3171: real time    9.3458

 eigenvalue-minimisations  :   948
 total energy-change (2. order) : 0.7965271E+01  (-0.2452726E+01)
 number of electron     488.0000084 magnetization 
 augmentation part       -9.8155754 magnetization 

 Broyden mixing:
  rms(total) = 0.15144E+01    rms(broyden)= 0.15143E+01
  rms(prec ) = 0.15229E+01
  weight for this iteration     100.00

 eigenvalues of (default mixing * dielectric matrix)
  average eigenvalue GAMMA=   0.6822
  2.2414  0.6393  0.6393  0.2130  0.2130  0.1469

 Free energy of the ion-electron system (eV)
  ---------------------------------------------------
  alpha Z        PSCENC =       562.39184220
  Ewald energy   TEWEN  =     40919.62593326
  -Hartree energ DENC   =    -60238.02396578
  -exchange      EXHF   =         0.00000000
  -V(xc)+E(xc)   XCENC  =      -702.60493704
  PAW double counting   =     43389.93415906   -41560.31306840
  entropy T*S    EENTRO =        -0.06886077
  eigenvalues    EBANDS =     -3410.82248245
  atomic energy  EATOM  =     20380.58938199
  Solvation  Ediel_sol  =         0.00000000
  ---------------------------------------------------
  free energy    TOTEN  =      -659.29199793 eV

  energy without entropy =     -659.22313716  energy(sigma->0) =     -659.25756755


--------------------------------------------------------------------------------------------------------




----------------------------------------- Iteration    1(  12)  ---------------------------------------


    POTLOK:  cpu time    0.3701: real time    0.3711
    SETDIJ:  cpu time    0.0109: real time    0.0109
     EDDAV:  cpu time    7.4323: real time    7.4512
       DOS:  cpu time    0.0009: real time    0.0009
    CHARGE:  cpu time    0.5469: real time    0.5483
    MIXING:  cpu time    0.0130: real time    0.0130
    --------------------------------------------
      LOOP:  cpu time    8.3751: real time    8.4005

 eigenvalue-minimisations  :   816
 total energy-change (2. order) :-0.4267857E+00  (-0.6824146E+00)
 number of electron     488.0000085 magnetization 
 augmentation part       -8.9786743 magnetization 

 Broyden mixing:
  rms(total) = 0.16839E+01    rms(broyden)= 0.16838E+01
  rms(prec ) = 0.17825E+01
  weight for this iteration     100.00

 eigenvalues of (default mixing * dielectric matrix)
  average eigenvalue GAMMA=   0.6191
  2.2281  0.6389  0.6389  0.2695  0.2695  0.1443  0.1443

 Free energy of the ion-electron system (eV)
  ---------------------------------------------------
  alpha Z        PSCENC =       562.39184220
  Ewald energy   TEWEN  =     40919.62593326
  -Hartree energ DENC   =    -60238.35566834
  -exchange      EXHF   =         0.00000000
  -V(xc)+E(xc)   XCENC  =      -702.54763273
  PAW double counting   =     43306.51599384   -41476.20429480
  entropy T*S    EENTRO =        -0.09344690
  eigenvalues    EBANDS =     -3411.64089216
  atomic energy  EATOM  =     20380.58938199
  Solvation  Ediel_sol  =         0.00000000
  ---------------------------------------------------
  free energy    TOTEN  =      -659.71878363 eV

  energy without entropy =     -659.62533674  energy(sigma->0) =     -659.67206018


--------------------------------------------------------------------------------------------------------




----------------------------------------- Iteration    1(  13)  ---------------------------------------


    POTLOK:  cpu time    0.3631: real time    0.3658
    SETDIJ:  cpu time    0.0108: real time    0.0109
     EDDAV:  cpu time    8.3697: real time    8.3932
       DOS:  cpu time    0.0009: real time    0.0009
    CHARGE:  cpu time    0.5475: real time    0.5502
    MIXING:  cpu time    0.0127: real time    0.0128
    --------------------------------------------
      LOOP:  cpu time    9.3054: real time    9.3669

 eigenvalue-minimisations  :   936
 total energy-change (2. order) : 0.4676161E+00  (-0.8262039E-01)
 number of electron     488.0000084 magnetization 
 augmentation part       -9.3450151 magnetization 

 Broyden mixing:
  rms(total) = 0.14724E+01    rms(broyden)= 0.14724E+01
  rms(prec ) = 0.15115E+01
  weight for this iteration     100.00

 eigenvalues of (default mixing * dielectric matrix)
  average eigenvalue GAMMA=   0.7032
  2.1355  0.7721  0.7721  0.6507  0.6507  0.3843  0.1527  0.1070

 Free energy of the ion-electron system (eV)
  ---------------------------------------------------
  alpha Z        PSCENC =       562.39184220
  Ewald energy   TEWEN  =     40919.62593326
  -Hartree energ DENC   =    -60237.85432074
  -exchange      EXHF   =         0.00000000
  -V(xc)+E(xc)   XCENC  =      -702.54791486
  PAW double counting   =     43276.81512986   -41446.58774572
  entropy T*S    EENTRO =        -0.13771694
  eigenvalues    EBANDS =     -3411.54575657
  atomic energy  EATOM  =     20380.58938199
  Solvation  Ediel_sol  =         0.00000000
  ---------------------------------------------------
  free energy    TOTEN  =      -659.25116753 eV

  energy without entropy =     -659.11345058  energy(sigma->0) =     -659.18230906


--------------------------------------------------------------------------------------------------------




----------------------------------------- Iteration    1(  14)  ---------------------------------------


    POTLOK:  cpu time    0.3655: real time    0.3683
    SETDIJ:  cpu time    0.0105: real time    0.0106
     EDDAV:  cpu time    8.5791: real time    8.6045
       DOS:  cpu time    0.0008: real time    0.0008
    CHARGE:  cpu time    0.5499: real time    0.5514
    MIXING:  cpu time    0.0128: real time    0.0129
    --------------------------------------------
      LOOP:  cpu time    9.5196: real time    9.5514

 eigenvalue-minimisations  :   972
 total energy-change (2. order) :-0.3849015E+01  (-0.2267317E+01)
 number of electron     488.0000085 magnetization 
 augmentation part       -8.1391892 magnetization 

 Broyden mixing:
  rms(total) = 0.21003E+01    rms(broyden)= 0.21003E+01
  rms(prec ) = 0.22542E+01
  weight for this iteration     100.00

 eigenvalues of (default mixing * dielectric matrix)
  average eigenvalue GAMMA=   0.7601
  1.9061  1.3287  1.3287  0.6097  0.6097  0.3996  0.3996  0.1521  0.1072

 Free energy of the ion-electron system (eV)
  ---------------------------------------------------
  alpha Z        PSCENC =       562.39184220
  Ewald energy   TEWEN  =     40919.62593326
  -Hartree energ DENC   =    -60248.72339470
  -exchange      EXHF   =         0.00000000
  -V(xc)+E(xc)   XCENC  =      -702.24888278
  PAW double counting   =     42901.29703544   -41068.54140782
  entropy T*S    EENTRO =        -0.11050022
  eigenvalues    EBANDS =     -3407.38019034
  atomic energy  EATOM  =     20380.58938199
  Solvation  Ediel_sol  =         0.00000000
  ---------------------------------------------------
  free energy    TOTEN  =      -663.10018296 eV

  energy without entropy =     -662.98968274  energy(sigma->0) =     -663.04493285


--------------------------------------------------------------------------------------------------------




----------------------------------------- Iteration    1(  15)  ---------------------------------------


    POTLOK:  cpu time    0.3691: real time    0.3701
    SETDIJ:  cpu time    0.0106: real time    0.0106
     EDDAV:  cpu time    8.4542: real time    8.4768
       DOS:  cpu time    0.0008: real time    0.0008
    CHARGE:  cpu time    0.5487: real time    0.5500
    MIXING:  cpu time    0.0132: real time    0.0133
    --------------------------------------------
      LOOP:  cpu time    9.3974: real time    9.4260

 eigenvalue-minimisations  :   948
 total energy-change (2. order) : 0.3381139E+01  (-0.1809136E+00)
 number of electron     488.0000084 magnetization 
 augmentation part       -8.9801185 magnetization 

 Broyden mixing:
  rms(total) = 0.12080E+01    rms(broyden)= 0.12077E+01
  rms(prec ) = 0.12649E+01
  weight for this iteration     100.00

 eigenvalues of (default mixing * dielectric matrix)
  average eigenvalue GAMMA=   0.7514
  1.7959  1.7959  1.0827  0.7050  0.7050  0.4227  0.4227  0.3241  0.1523  0.1073

 Free energy of the ion-electron system (eV)
  ---------------------------------------------------
  alpha Z        PSCENC =       562.39184220
  Ewald energy   TEWEN  =     40919.62593326
  -Hartree energ DENC   =    -60261.52293060
  -exchange      EXHF   =         0.00000000
  -V(xc)+E(xc)   XCENC  =      -701.83315181
  PAW double counting   =     42581.57500658   -40748.34306439
  entropy T*S    EENTRO =        -0.09197081
  eigenvalues    EBANDS =     -3392.11009074
  atomic energy  EATOM  =     20380.58938199
  Solvation  Ediel_sol  =         0.00000000
  ---------------------------------------------------
  free energy    TOTEN  =      -659.71904432 eV

  energy without entropy =     -659.62707351  energy(sigma->0) =     -659.67305892


--------------------------------------------------------------------------------------------------------




----------------------------------------- Iteration    1(  16)  ---------------------------------------


    POTLOK:  cpu time    0.3692: real time    0.3701
    SETDIJ:  cpu time    0.0108: real time    0.0108
     EDDAV:  cpu time    7.8980: real time    7.9432
       DOS:  cpu time    0.0008: real time    0.0008
    CHARGE:  cpu time    0.5532: real time    0.5546
    MIXING:  cpu time    0.0138: real time    0.0138
    --------------------------------------------
      LOOP:  cpu time    8.8466: real time    8.8969

 eigenvalue-minimisations  :   876
 total energy-change (2. order) :-0.1247207E+01  (-0.5523229E+00)
 number of electron     488.0000085 magnetization 
 augmentation part       -8.0027757 magnetization 

 Broyden mixing:
  rms(total) = 0.19783E+01    rms(broyden)= 0.19782E+01
  rms(prec ) = 0.21264E+01
  weight for this iteration     100.00

 eigenvalues of (default mixing * dielectric matrix)
  average eigenvalue GAMMA=   0.7920
  2.1232  2.1232  0.9847  0.6033  0.6033  0.6065  0.6065  0.4997  0.3019  0.1522
  0.1072

 Free energy of the ion-electron system (eV)
  ---------------------------------------------------
  alpha Z        PSCENC =       562.39184220
  Ewald energy   TEWEN  =     40919.62593326
  -Hartree energ DENC   =    -60272.55051747
  -exchange      EXHF   =         0.00000000
  -V(xc)+E(xc)   XCENC  =      -701.25576399
  PAW double counting   =     42597.44769064   -40763.82976208
  entropy T*S    EENTRO =        -0.10615203
  eigenvalues    EBANDS =     -3383.27890417
  atomic energy  EATOM  =     20380.58938199
  Solvation  Ediel_sol  =         0.00000000
  ---------------------------------------------------
  free energy    TOTEN  =      -660.96625165 eV

  energy without entropy =     -660.86009962  energy(sigma->0) =     -660.91317564


--------------------------------------------------------------------------------------------------------




----------------------------------------- Iteration    1(  17)  ---------------------------------------


[...]
   -.124E+01 -.116E+02 -.176E+03   0.122E+01 0.116E+02 0.176E+03   0.232E-01 0.481E-01 -.129E-01   0.156E-03 0.507E-03 0.103E-01
   -.201E+00 -.941E+00 0.100E+03   0.219E+00 0.100E+01 -.100E+03   -.182E-01 -.575E-01 0.112E-01   0.114E-03 0.485E-04 -.482E-02
   -.730E+01 0.174E+02 -.188E+03   0.729E+01 -.175E+02 0.188E+03   0.150E-01 0.692E-01 -.278E-01   0.503E-03 -.101E-02 0.969E-02
   -.193E+00 0.165E+00 0.100E+03   0.211E+00 -.106E+00 -.100E+03   -.174E-01 -.564E-01 0.110E-01   0.123E-03 -.366E-05 -.485E-02
   -.134E+00 0.155E+00 0.102E+03   0.151E+00 -.971E-01 -.102E+03   -.174E-01 -.561E-01 0.116E-01   0.115E-03 0.133E-04 -.493E-02
   -.530E+00 -.174E+01 -.213E+03   0.520E+00 0.169E+01 0.213E+03   0.834E-02 0.471E-01 -.327E-01   0.554E-03 -.300E-03 0.115E-01
   0.169E+00 -.107E+01 0.102E+03   -.152E+00 0.113E+01 -.102E+03   -.171E-01 -.572E-01 0.120E-01   0.101E-03 0.834E-04 -.491E-02
   0.715E+01 -.168E+02 -.185E+03   -.717E+01 0.168E+02 0.186E+03   0.140E-01 0.401E-01 -.221E-01   -.146E-03 0.751E-03 0.981E-02
   0.935E-01 -.104E+01 0.100E+03   -.765E-01 0.110E+01 -.100E+03   -.173E-01 -.573E-01 0.112E-01   0.107E-03 0.584E-04 -.483E-02
   0.351E-01 -.108E+01 0.101E+03   -.168E-01 0.114E+01 -.101E+03   -.178E-01 -.576E-01 0.113E-01   0.172E-03 0.854E-04 -.485E-02
   0.631E+00 0.260E+01 -.167E+03   -.646E+00 -.266E+01 0.167E+03   0.160E-01 0.574E-01 -.108E-01   -.258E-03 0.193E-04 0.746E-02
   -.562E+01 -.157E+02 -.189E+03   0.561E+01 0.157E+02 0.189E+03   0.137E-01 0.454E-01 -.251E-01   0.650E-03 0.314E-03 0.947E-02
   0.818E-04 0.133E+00 0.101E+03   0.178E-01 -.751E-01 -.101E+03   -.180E-01 -.565E-01 0.109E-01   0.102E-03 -.112E-04 -.484E-02
   -.879E+01 -.540E+00 -.198E+03   0.879E+01 0.483E+00 0.198E+03   0.842E-02 0.540E-01 -.485E-01   -.251E-04 0.108E-03 0.102E-01
   -.165E+00 0.102E+00 0.101E+03   0.183E+00 -.438E-01 -.101E+03   -.180E-01 -.565E-01 0.115E-01   0.185E-03 0.380E-04 -.491E-02
   0.339E+01 0.127E+02 -.182E+03   -.342E+01 -.128E+02 0.182E+03   0.267E-01 0.796E-01 -.417E-01   0.139E-03 -.445E-03 0.934E-02
   0.337E+01 0.121E+01 -.173E+03   -.339E+01 -.127E+01 0.173E+03   0.165E-01 0.532E-01 -.142E-01   0.115E-03 -.124E-03 0.786E-02
   0.120E+00 0.196E-01 0.100E+03   -.102E+00 0.392E-01 -.100E+03   -.177E-01 -.565E-01 0.109E-01   0.171E-03 0.269E-04 -.485E-02
   -.256E+00 -.998E+00 0.102E+03   0.274E+00 0.106E+01 -.102E+03   -.179E-01 -.574E-01 0.120E-01   0.190E-03 0.971E-04 -.492E-02
   -.172E+01 0.420E+01 -.665E+03   0.164E+01 -.450E+01 0.670E+03   0.775E-01 0.297E+00 -.446E+01   0.194E-03 0.413E-03 0.125E-02
   0.134E+00 0.976E+00 -.386E+03   -.644E-01 -.676E+00 0.390E+03   -.694E-01 -.301E+00 -.444E+01   -.671E-04 -.295E-04 -.938E-02
   -.117E+02 0.248E+02 0.330E+03   0.117E+02 -.251E+02 -.335E+03   0.703E-01 0.303E+00 0.440E+01   0.344E-03 -.157E-02 0.179E-01
   0.101E+00 0.636E+00 0.585E+03   -.306E-01 -.336E+00 -.590E+03   -.696E-01 -.301E+00 0.446E+01   -.650E-04 0.143E-04 -.686E-03
   0.136E+00 0.628E+00 0.585E+03   -.664E-01 -.328E+00 -.590E+03   -.691E-01 -.301E+00 0.446E+01   -.101E-03 -.199E-04 -.716E-03
   0.873E+01 0.138E+02 0.335E+03   -.880E+01 -.141E+02 -.339E+03   0.710E-01 0.301E+00 0.443E+01   -.640E-03 -.400E-03 0.173E-01
   -.902E+00 0.528E+01 -.678E+03   0.828E+00 -.559E+01 0.682E+03   0.747E-01 0.307E+00 -.445E+01   0.313E-03 -.976E-04 0.905E-03
   -.603E+00 0.255E+01 -.383E+03   0.673E+00 -.225E+01 0.388E+03   -.694E-01 -.301E+00 -.443E+01   -.394E-04 -.922E-04 -.958E-02
   -.293E+02 -.232E+02 0.247E+03   0.292E+02 0.230E+02 -.251E+03   0.392E-01 0.298E+00 0.457E+01   0.199E-02 0.958E-03 0.194E-01
   0.820E-01 0.250E+00 0.586E+03   -.120E-01 0.485E-01 -.590E+03   -.694E-01 -.300E+00 0.446E+01   -.908E-04 -.119E-04 -.722E-03
   0.128E-01 0.893E+00 0.586E+03   0.571E-01 -.593E+00 -.590E+03   -.695E-01 -.301E+00 0.446E+01   -.667E-04 0.243E-05 -.707E-03
   0.482E+00 0.923E+00 -.385E+03   -.413E+00 -.623E+00 0.390E+03   -.691E-01 -.301E+00 -.444E+01   -.102E-03 -.350E-04 -.936E-02
   0.118E+01 0.264E+01 -.665E+03   -.125E+01 -.294E+01 0.669E+03   0.715E-01 0.297E+00 -.446E+01   -.253E-03 0.831E-03 0.122E-02
   0.269E+01 -.521E+01 -.678E+03   -.277E+01 0.491E+01 0.682E+03   0.719E-01 0.306E+00 -.446E+01   -.974E-03 -.150E-03 0.212E-03
   -.124E+00 0.362E-01 -.381E+03   0.194E+00 0.264E+00 0.385E+03   -.694E-01 -.302E+00 -.443E+01   -.723E-04 0.761E-04 -.967E-02
   0.288E+02 -.310E+02 0.257E+03   -.289E+02 0.308E+02 -.261E+03   0.856E-01 0.265E+00 0.440E+01   -.152E-02 0.115E-02 0.215E-01
   0.701E-01 0.472E+00 0.586E+03   -.182E-03 -.172E+00 -.591E+03   -.695E-01 -.301E+00 0.446E+01   -.679E-04 0.356E-04 -.728E-03
   0.121E+01 -.542E+01 -.665E+03   -.128E+01 0.513E+01 0.669E+03   0.740E-01 0.296E+00 -.446E+01   -.878E-03 -.148E-03 0.407E-03
   0.613E+00 -.153E+01 -.384E+03   -.543E+00 0.183E+01 0.388E+03   -.694E-01 -.302E+00 -.443E+01   -.104E-03 0.132E-03 -.948E-02
   -.110E+02 0.373E+02 0.251E+03   0.110E+02 -.376E+02 -.256E+03   0.589E-01 0.281E+00 0.443E+01   0.131E-03 -.220E-02 0.199E-01
   -.147E+02 -.211E+02 0.327E+03   0.146E+02 0.208E+02 -.331E+03   0.779E-01 0.307E+00 0.446E+01   -.179E-03 0.176E-02 0.166E-01
   -.216E+01 -.485E+01 -.666E+03   0.209E+01 0.456E+01 0.671E+03   0.708E-01 0.291E+00 -.446E+01   0.328E-03 -.454E-03 0.519E-03
   0.256E-01 0.488E+00 0.586E+03   0.440E-01 -.188E+00 -.590E+03   -.691E-01 -.300E+00 0.446E+01   -.962E-04 -.118E-05 -.749E-03
   -.432E+00 0.183E+00 -.382E+03   0.502E+00 0.117E+00 0.387E+03   -.692E-01 -.301E+00 -.443E+01   -.455E-04 0.568E-04 -.953E-02
   0.600E+00 -.644E+01 -.669E+03   -.669E+00 0.615E+01 0.673E+03   0.707E-01 0.292E+00 -.446E+01   -.449E-03 0.402E-03 0.774E-03
   -.356E+00 -.123E+01 -.384E+03   0.426E+00 0.153E+01 0.388E+03   -.691E-01 -.301E+00 -.443E+01   -.665E-04 0.110E-03 -.941E-02
   0.482E+01 -.379E+02 0.309E+03   -.490E+01 0.376E+02 -.313E+03   0.803E-01 0.298E+00 0.444E+01   0.911E-05 0.272E-02 0.185E-01
   0.328E-01 0.252E+00 0.586E+03   0.369E-01 0.476E-01 -.590E+03   -.691E-01 -.300E+00 0.446E+01   -.104E-03 0.906E-05 -.732E-03
   -.282E+01 -.441E+01 -.679E+03   0.274E+01 0.411E+01 0.683E+03   0.769E-01 0.300E+00 -.448E+01   0.361E-03 -.193E-03 -.266E-03
   0.959E+01 -.238E+02 0.333E+03   -.965E+01 0.235E+02 -.338E+03   0.612E-01 0.307E+00 0.442E+01   -.752E-03 0.258E-02 0.173E-01
   0.228E+00 0.380E+01 -.667E+03   -.294E+00 -.409E+01 0.672E+03   0.666E-01 0.298E+00 -.446E+01   -.111E-03 0.995E-05 0.153E-02
   -.344E+00 0.129E+01 -.385E+03   0.414E+00 -.989E+00 0.390E+03   -.693E-01 -.300E+00 -.444E+01   -.928E-04 -.979E-04 -.940E-02
   0.270E+01 0.269E+02 0.316E+03   -.277E+01 -.272E+02 -.321E+03   0.689E-01 0.310E+00 0.443E+01   0.200E-04 -.130E-02 0.183E-01
   0.365E-01 0.667E+00 0.585E+03   0.335E-01 -.368E+00 -.590E+03   -.694E-01 -.300E+00 0.446E+01   -.923E-04 -.462E-04 -.717E-03
   0.270E+01 0.379E+01 -.674E+03   -.277E+01 -.409E+01 0.679E+03   0.651E-01 0.300E+00 -.447E+01   -.106E-02 -.948E-04 0.298E-03
   0.402E+00 0.247E+01 -.382E+03   -.332E+00 -.217E+01 0.387E+03   -.693E-01 -.300E+00 -.443E+01   -.136E-03 -.131E-03 -.955E-02
   0.282E+02 0.215E+02 0.277E+03   -.283E+02 -.218E+02 -.282E+03   0.919E-01 0.276E+00 0.439E+01   -.158E-02 -.204E-02 0.194E-01
   0.128E+00 0.873E+00 0.586E+03   -.582E-01 -.574E+00 -.590E+03   -.694E-01 -.300E+00 0.446E+01   -.908E-04 -.497E-04 -.755E-03
   0.132E+00 0.860E+00 0.586E+03   -.619E-01 -.561E+00 -.590E+03   -.691E-01 -.301E+00 0.446E+01   -.100E-03 -.235E-04 -.741E-03
   -.172E+02 0.271E+02 0.298E+03   0.171E+02 -.274E+02 -.302E+03   0.768E-01 0.289E+00 0.435E+01   0.698E-03 -.149E-02 0.177E-01
   -.110E+00 -.441E+01 -.673E+03   0.430E-01 0.410E+01 0.678E+03   0.658E-01 0.303E+00 -.446E+01   -.606E-06 0.652E-03 0.869E-04
   0.830E+00 -.727E-01 -.382E+03   -.759E+00 0.372E+00 0.386E+03   -.694E-01 -.300E+00 -.443E+01   -.147E-03 0.338E-04 -.956E-02
   -.249E+00 -.207E+02 0.303E+03   0.180E+00 0.204E+02 -.308E+03   0.710E-01 0.307E+00 0.440E+01   -.998E-03 0.658E-03 0.172E-01
   0.177E+00 0.454E+00 0.586E+03   -.107E+00 -.155E+00 -.590E+03   -.695E-01 -.300E+00 0.446E+01   -.101E-03 -.125E-04 -.758E-03
   0.474E+00 0.227E+01 -.384E+03   -.404E+00 -.197E+01 0.388E+03   -.691E-01 -.301E+00 -.443E+01   -.883E-04 -.843E-04 -.945E-02
   -.202E+01 0.445E+01 -.673E+03   0.195E+01 -.475E+01 0.678E+03   0.683E-01 0.302E+00 -.446E+01   0.947E-05 -.583E-03 0.532E-03
   0.155E-01 -.116E+01 -.385E+03   0.545E-01 0.146E+01 0.389E+03   -.693E-01 -.300E+00 -.443E+01   -.970E-04 0.624E-04 -.940E-02
   0.158E+00 0.215E+00 0.586E+03   -.877E-01 0.852E-01 -.590E+03   -.695E-01 -.301E+00 0.446E+01   -.746E-04 0.430E-04 -.691E-03
 -----------------------------------------------------------------------------------------------
   0.110E+01 -.174E+01 0.354E+01   -.255E-12 0.730E-13 0.909E-12   -.112E+01 0.175E+01 -.375E+01   0.101E-01 -.793E-02 0.208E+00
 
 
 POSITION                                       TOTAL-FORCE (eV/Angst)
 -----------------------------------------------------------------------------------
     -3.88973      7.64571      1.62784        -0.002728      0.007389      0.002021
     -3.07234      6.59842      2.13580        -0.004160     -0.004650      0.000532
     -4.65791      8.18185      2.70287        -0.005036      0.006661     -0.012728
      5.25988      7.46222      3.89885        -0.003246      0.004564     -0.006063
     -3.32110      6.47308      3.54246        -0.004151      0.002833      0.000577
      3.73968      4.46019      1.41286        -0.000910     -0.000584     -0.002063
      3.04591      4.79296      3.60595        -0.007304      0.003990      0.000789
      3.96404      4.05553      2.78170         0.001021      0.000911      0.006656
      2.26520      5.63302      2.76158         0.000154      0.002132      0.002186
      2.68756      5.43757      1.41681        -0.004646     -0.005649      0.002598
      4.41928      6.09054      2.56539         0.002751      0.000060      0.001781
     -2.83633      5.77430      4.22118        -0.006758      0.003038      0.001441
      4.67077      3.30456      3.12568         0.007237     -0.002528      0.007562
      1.52385      6.35560      3.09780         0.001165     -0.006314     -0.001397
      2.97560      4.74043      4.68952         0.001815      0.001059      0.004053
      4.25122      4.07646      0.53355         0.006084     -0.009897      0.002277
     -2.40864      5.96986      1.54600         0.003016      0.000140      0.003422
     -3.96680      7.93900      0.58297         0.002881      0.000704     -0.006629
      4.18575      8.98717      2.63121        -0.001515      0.001208     -0.012746
      4.86759      7.65422      4.89299        -0.007196      0.005326     -0.000076
      2.30489      5.96892      0.54796        -0.000365     -0.005357     -0.000970
      4.78575      0.92747      8.71710         0.000314     -0.001473     -0.003907
      3.19075      3.69032      8.71654         0.000697     -0.001194     -0.004165
      1.59491      4.59923     26.16016         0.000037      0.000231      0.002886
      1.59535      6.45230      8.72430        -0.001272      0.000463     -0.008147
     -0.00026      7.36215     26.16018         0.000013      0.000084      0.002927
      0.00040      9.21504      8.72077         0.000424     -0.000413     -0.006048
     -1.59540     10.12506     26.16017        -0.000117     -0.000097      0.002969
      6.38089      3.68969      8.71876         0.000522     -0.000950     -0.005387
      6.38069      1.83599     26.16015        -0.000144      0.000669      0.003162
      4.78553      4.59888     26.16015        -0.000300      0.000720      0.003004
      4.78774      6.45317      8.72101        -0.001009     -0.002713     -0.008506
      3.19037      7.36180     26.16015        -0.000162      0.000659      0.003153
      3.19112      9.21574      8.71984        -0.000144     -0.000429     -0.006049
      1.59521     10.12469     26.16017        -0.000273      0.000732      0.003124
     -4.78565     10.12480     26.16016         0.000700      0.000694      0.003198
      7.97592      0.92642      8.71735         0.000412     -0.000759     -0.003025
     -3.18819      9.21573      8.72327        -0.001171     -0.000061     -0.008799
      3.19007      1.83635     26.16015        -0.000028      0.000173      0.002916
     -1.59127      6.45050      8.72928         0.000986     -0.001371     -0.012028
     -1.59533      4.59899     26.16016         0.000658      0.000700      0.003167
     -0.00090      3.68655      8.72103        -0.000343      0.000956     -0.006090
      1.59534      0.92689      8.71700         0.000285     -0.000804     -0.004015
     -0.00018      1.83608     26.16015         0.000799      0.000798      0.003140
     -3.19049      7.36191     26.16016         0.000682      0.000696      0.003189
      6.37968      1.83885     10.27209         0.000639     -0.001470     -0.002891
      7.97644      0.92379     27.71485         0.000548     -0.000168     -0.003262
      6.38003      1.83964      7.16244         0.000084      0.000331      0.005402
      7.97645      0.92375     24.60543         0.000421     -0.000204      0.001181
      1.59574      0.92396     24.60545         0.000563     -0.000113      0.001470
     -0.00123      1.83818      7.16248         0.001075      0.001237      0.005171
      4.78423      4.60135     10.27243         0.000745     -0.001749      0.000590
      6.38129      3.68666     27.71484         0.000591     -0.000156     -0.003231
     -3.17895      7.36314      7.17857        -0.000675     -0.000520      0.009595
      0.00048      9.21281     24.60548         0.000576     -0.000100      0.001333
      6.38130      3.68665     24.60544         0.000419     -0.000169      0.001166
      1.59574      0.92400     27.71483         0.000464     -0.000145     -0.003489
     -0.00056      1.83572     10.27355         0.000445      0.001677     -0.003214
      3.19188      7.36551     10.27558        -0.000818      0.000116      0.001536
      4.78612      6.44958     27.71484         0.000587     -0.000138     -0.003250
      3.18740      7.36416      7.16832        -0.000304     -0.000033      0.008537
      4.78614      6.44956     24.60546         0.000445     -0.000205      0.001183
      1.59492     10.12871     10.27359         0.001457      0.001115     -0.000794
      3.19098      9.21249     27.71485         0.000581     -0.000153     -0.003238
      4.78710      4.60496      7.16258         0.001155     -0.000378      0.007803
     -1.59577     10.12634      7.16484         0.001834     -0.001311      0.006442
     -1.59413     10.13050     10.27515        -0.000819      0.000382     -0.001480
     -1.59459      6.44976     24.60548         0.000601     -0.000099      0.001434
     -1.59458      6.44978     27.71483         0.000477     -0.000117     -0.003499
     -4.78620     10.12944     10.27410         0.001239      0.000599     -0.001015
     -3.18974      9.21270     27.71483         0.000512     -0.000079     -0.003540
     -4.78389     10.12489      7.16414        -0.000682     -0.000390      0.005120
     -3.18973      9.21266     24.60547         0.000621     -0.000089      0.001469
     -3.19046      7.36486     10.28001        -0.000753      0.000747      0.000576
      1.59405     10.12599      7.16413         0.000572     -0.001272      0.008051
      3.18973      1.84009     10.27078         0.000222     -0.001306     -0.002063
      4.78596      0.92415     27.71484         0.000648     -0.000011     -0.003318
      3.18984      1.83955      7.16119        -0.000228      0.000232      0.004827
      4.78595      0.92412     24.60546         0.000584     -0.000093      0.001281
      1.59499      4.59896     10.27484         0.001038      0.000001     -0.000442
      3.19080      3.68702     27.71483         0.000643     -0.000071     -0.003312
      1.58983      4.60340      7.16910         0.001101      0.000799      0.008325
      3.19080      3.68701     24.60546         0.000591     -0.000129      0.001378
      0.00057      3.68685     24.60546         0.000591     -0.000138      0.001477
     -1.59499      4.60399      7.16689        -0.000821     -0.000047      0.005033
      0.00277      7.36699     10.28021        -0.001057     -0.001291      0.000406
      1.59564      6.44992     27.71483         0.000622     -0.000039     -0.003383
     -0.00099      7.36274      7.16855         0.000916      0.000752      0.006278
      1.59563      6.44992     24.60548         0.000552     -0.000161      0.001408
      0.00058      3.68687     27.71483         0.000512     -0.000202     -0.003507
     -1.59591      4.59655     10.27793         0.000709      0.002395     -0.001242
      0.00048      9.21284     27.71484         0.000657     -0.000004     -0.003331
      3.19098      9.21246     24.60545         0.000446     -0.000180      0.001138
 -----------------------------------------------------------------------------------
    total drift:                               -0.005103      0.002475     -0.005162


--------------------------------------------------------------------------------------------------------



  FREE ENERGIE OF THE ION-ELECTRON SYSTEM (eV)
  ---------------------------------------------------
  free  energy   TOTEN  =      -673.28906686 eV

  energy  without entropy=     -673.15888585  energy(sigma->0) =     -673.22397635
 
 d Force = 0.7280444E-04[ 0.401E-04, 0.106E-03]  d Energy = 0.5169974E-04 0.211E-04
 d Force = 0.3870512E+00[ 0.387E+00, 0.387E+00]  d Ewald  = 0.3870511E+00 0.307E-07


--------------------------------------------------------------------------------------------------------


    POTLOK:  cpu time    0.3776: real time    0.3785


--------------------------------------------------------------------------------------------------------


 stress matrix after NEB project (eV)
      9.32450      0.01553      0.03701
      0.01553    -11.20416     -0.03630
      0.03701     -0.03630     -2.84457
  FORCES: max atom, RMS     0.015223    0.005559
  FORCE total and by dimension    0.053610    0.012746
  Stress total and by dimension   14.851832   11.204157
 Conjugate gradient step on ions:
 trial-energy change:   -0.000052  1 .order   -0.000073   -0.000106   -0.000040
  (g-gl).g = 0.232E-03      g.g   = 0.423E-03  gl.gl    = 0.494E-03
 g(Force)  = 0.423E-03   g(Stress)= 0.000E+00 ortho     = 0.671E-04
 gamma     =   0.47000
 trial     =   0.23209
 opt step  =   0.37415  (harmonic =   0.37415) maximal distance =0.00059621
 next E    =  -673.289100   (d E  =  -0.00009)


--------------------------------------------------------------------------------------------------------


  
 reached required accuracy - stopping structural energy minimisation
     LOOP+:  cpu time   38.7592: real time   38.9976
    4ORBIT:  cpu time    0.0000: real time    0.0000

 total amount of memory used by VASP on root node   114658. kBytes
========================================================================

   base      :      30000. kBytes
   nonlr-proj:      16435. kBytes
   fftplans  :      19781. kBytes
   grid      :      43661. kBytes
   one-center:        241. kBytes
   wavefun   :       4540. kBytes
 
  
  
 General timing and accounting informations for this job:
 ========================================================
  
                  Total CPU time used (sec):     2190.319
                            User time (sec):     2015.774
                          System time (sec):      174.545
                         Elapsed time (sec):     2235.094
  
                   Maximum memory used (kb):      179644.
                   Average memory used (kb):           0.
  
                          Minor page faults:      2906848
                          Major page faults:           30
                 Voluntary context switches:         8598
