<?xml version="1.0" encoding="ISO-8859-1"?>
<modeling>
 <generator>
  <i name="program" type="string">vasp </i>
  <i name="version" type="string">5.4.1  </i>
  <i name="subversion" type="string">05Feb16 (build Apr 21 2017 13:36:42) gamma-only                       parallel </i>
  <i name="platform" type="string">IFC91_ompi </i>
  <i name="date" type="string">2020 09 15 </i>
  <i name="time" type="string">02:59:41 </i>
 </generator>
 <incar>
  <i type="string" name="SYSTEM"> basalPlane</i>
  <i type="int" name="ISTART">     0</i>
  <i type="string" name="PREC">accurate  !=accurate, max(enmax) no wra</i>
  <i type="string" name="ALGO"> Normal    !=Normal, blocked Davidson it</i>
  <i type="int" name="NSIM">     4</i>
  <i type="int" name="ISPIN">     1</i>
  <i type="int" name="ICHARG">     2</i>
  <i type="int" name="INIWAV">     1</i>
  <i type="int" name="NELM">   200</i>
  <i type="int" name="NELMDL">    -5</i>
  <i type="int" name="NELMIN">     2</i>
  <i type="int" name="IBRION">     2</i>
  <i name="EDIFF">      0.00010000</i>
  <i name="EDIFFG">     -0.02000000</i>
  <i type="int" name="NSW"> 10000</i>
  <i type="int" name="ISIF">     2</i>
  <i type="int" name="ISYM">     2</i>
  <i name="ENCUT">    400.00000000</i>
  <i name="ENAUG">    645.00000000</i>
  <i type="string" name="LREAL"> Auto     !=Auto projection operators ev</i>
  <i type="logical" name="LPLANE"> T  </i>
  <i type="int" name="ISMEAR">     0</i>
  <i name="SIGMA">      0.10000000</i>
  <i type="int" name="NWRITE">     2</i>
  <i type="logical" name="LWAVE"> F  </i>
  <i type="logical" name="LCHARG"> F  </i>
  <i type="logical" name="LORBIT"> F  </i>
  <i type="logical" name="LELF"> F  </i>
  <i type="logical" name="LSCALU"> F  </i>
  <v type="int" name="KPOINT_BSE">    -1     0     0     0</v>
  <i type="int" name="NELM">   200</i>
 </incar>
 <kpoints>
  <varray name="kpointlist" >
   <v>       0.00000000       0.00000000       0.00000000 </v>
  </varray>
  <varray name="weights" >
   <v>       1.00000000 </v>
  </varray>
 </kpoints>
 <parameters>
  <separator name="general" >
   <i type="string" name="SYSTEM">basalPlane</i>
   <i type="logical" name="LCOMPAT"> F  </i>
  </separator>
  <separator name="electronic" >
   <i type="string" name="PREC">accura</i>
   <i name="ENMAX">    400.00000000</i>
   <i name="ENAUG">    645.00000000</i>
   <i name="EDIFF">      0.00010000</i>
   <i type="int" name="IALGO">    38</i>
   <i type="int" name="IWAVPR">    11</i>
   <i type="int" name="NBANDS">   300</i>
   <i name="NELECT">    488.00000000</i>
   <i type="int" name="TURBO">     0</i>
   <i type="int" name="IRESTART">     0</i>
   <i type="int" name="NREBOOT">     0</i>
   <i type="int" name="NMIN">     0</i>
   <i name="EREF">      0.00000000</i>
   <separator name="electronic smearing" >
    <i type="int" name="ISMEAR">     0</i>
    <i name="SIGMA">      0.10000000</i>
    <i name="KSPACING">      0.50000000</i>
    <i type="logical" name="KGAMMA"> T  </i>
   </separator>
   <separator name="electronic projectors" >
    <i type="logical" name="LREAL"> T  </i>
    <v name="ROPT">     -0.00025000     -0.00025000     -0.00025000     -0.00025000     -0.00025000</v>
    <i type="int" name="LMAXPAW">  -100</i>
    <i type="int" name="LMAXMIX">     2</i>
    <i type="logical" name="NLSPLINE"> F  </i>
   </separator>
   <separator name="electronic startup" >
    <i type="int" name="ISTART">     0</i>
    <i type="int" name="ICHARG">     2</i>
    <i type="int" name="INIWAV">     1</i>
   </separator>
   <separator name="electronic spin" >
    <i type="int" name="ISPIN">     1</i>
    <i type="logical" name="LNONCOLLINEAR"> F  </i>
    <v name="MAGMOM">      1.00000000      1.00000000      1.00000000      1.00000000      1.00000000      1.00000000      1.00000000      1.00000000      1.00000000      1.00000000      1.00000000      1.00000000      1.00000000      1.00000000      1.00000000      1.00000000      1.00000000      1.00000000      1.00000000      1.00000000
      1.00000000      1.00000000      1.00000000      1.00000000      1.00000000      1.00000000      1.00000000      1.00000000      1.00000000      1.00000000      1.00000000      1.00000000      1.00000000      1.00000000      1.00000000      1.00000000      1.00000000      1.00000000      1.00000000      1.00000000
      1.00000000      1.00000000      1.00000000      1.00000000      1.00000000      1.00000000      1.00000000      1.00000000      1.00000000      1.00000000      1.00000000      1.00000000      1.00000000      1.00000000      1.00000000      1.00000000      1.00000000      1.00000000      1.00000000      1.00000000
      1.00000000      1.00000000      1.00000000      1.00000000      1.00000000      1.00000000      1.00000000      1.00000000      1.00000000      1.00000000      1.00000000      1.00000000      1.00000000      1.00000000      1.00000000      1.00000000      1.00000000      1.00000000      1.00000000      1.00000000
      1.00000000      1.00000000      1.00000000      1.00000000      1.00000000      1.00000000      1.00000000      1.00000000      1.00000000      1.00000000      1.00000000      1.00000000      1.00000000</v>
    <i name="NUPDOWN">     -1.00000000</i>
    <i type="logical" name="LSORBIT"> F  </i>
    <v name="SAXIS">      0.00000000      0.00000000      1.00000000</v>
    <i type="logical" name="LSPIRAL"> F  </i>
    <v name="QSPIRAL">      0.00000000      0.00000000      0.00000000</v>
    <i type="logical" name="LZEROZ"> F  </i>
   </separator>
   <separator name="electronic exchange-correlation" >
    <i type="logical" name="LASPH"> F  </i>
    <i type="logical" name="LMETAGGA"> F  </i>
   </separator>
   <separator name="electronic convergence" >
    <i type="int" name="NELM">   200</i>
    <i type="int" name="NELMDL">    -5</i>
    <i type="int" name="NELMIN">     2</i>
    <i name="ENINI">    400.00000000</i>
    <separator name="electronic convergence detail" >
     <i type="logical" name="LDIAG"> T  </i>
     <i type="logical" name="LSUBROT"> F  </i>
     <i name="WEIMIN">      0.00100000</i>
     <i name="EBREAK">      0.00000008</i>
     <i name="DEPER">      0.30000000</i>
     <i type="int" name="NRMM">     4</i>
     <i name="TIME">      0.40000000</i>
    </separator>
   </separator>
   <separator name="electronic mixer" >
    <i name="AMIX">      0.40000000</i>
    <i name="BMIX">      1.00000000</i>
    <i name="AMIN">      0.10000000</i>
    <i name="AMIX_MAG">      1.60000000</i>
    <i name="BMIX_MAG">      1.00000000</i>
    <separator name="electronic mixer details" >
     <i type="int" name="IMIX">     4</i>
     <i type="logical" name="MIXFIRST"> F  </i>
     <i type="int" name="MAXMIX">   -45</i>
     <i name="WC">    100.00000000</i>
     <i type="int" name="INIMIX">     1</i>
     <i type="int" name="MIXPRE">     1</i>
     <i type="int" name="MREMOVE">     5</i>
    </separator>
   </separator>
   <separator name="electronic dipolcorrection" >
    <i type="logical" name="LDIPOL"> F  </i>
    <i type="logical" name="LMONO"> F  </i>
    <i type="int" name="IDIPOL">     0</i>
    <i name="EPSILON">      1.00000000</i>
    <v name="DIPOL">   -100.00000000   -100.00000000   -100.00000000</v>
    <i name="EFIELD">      0.00000000</i>
   </separator>
  </separator>
  <separator name="grids" >
   <i type="int" name="NGX">    64</i>
   <i type="int" name="NGY">    84</i>
   <i type="int" name="NGZ">   240</i>
   <i type="int" name="NGXF">   128</i>
   <i type="int" name="NGYF">   168</i>
   <i type="int" name="NGZF">   480</i>
   <i type="logical" name="ADDGRID"> F  </i>
  </separator>
  <separator name="ionic" >
   <i type="int" name="NSW"> 10000</i>
   <i type="int" name="IBRION">     2</i>
   <i type="int" name="ISIF">     2</i>
   <i name="PSTRESS">      0.00000000</i>
   <i name="EDIFFG">     -0.02000000</i>
   <i type="int" name="NFREE">     1</i>
   <i name="POTIM">      0.50000000</i>
   <i name="SMASS">     -3.00000000</i>
   <i name="SCALEE">      1.00000000</i>
  </separator>
  <separator name="ionic md" >
   <i name="TEBEG">      0.00010000</i>
   <i name="TEEND">      0.00010000</i>
   <i type="int" name="NBLOCK">     1</i>
   <i type="int" name="KBLOCK"> 10000</i>
   <i type="int" name="NPACO">   256</i>
   <i name="APACO">     16.00000000</i>
  </separator>
  <separator name="symmetry" >
   <i type="int" name="ISYM">     2</i>
   <i name="SYMPREC">      0.00001000</i>
  </separator>
  <separator name="dos" >
   <i type="logical" name="LORBIT"> F  </i>
   <v name="RWIGS">     -1.00000000     -1.00000000     -1.00000000     -1.00000000     -1.00000000</v>
   <i type="int" name="NEDOS">   301</i>
   <i name="EMIN">     10.00000000</i>
   <i name="EMAX">    -10.00000000</i>
   <i name="EFERMI">      0.00000000</i>
  </separator>
  <separator name="writing" >
   <i type="int" name="NWRITE">     2</i>
   <i type="logical" name="LWAVE"> F  </i>
   <i type="logical" name="LCHARG"> F  </i>
   <i type="logical" name="LPARD"> F  </i>
   <i type="logical" name="LVTOT"> F  </i>
   <i type="logical" name="LVHAR"> F  </i>
   <i type="logical" name="LELF"> F  </i>
   <i type="logical" name="LOPTICS"> F  </i>
   <v name="STM">      0.00000000      0.00000000      0.00000000      0.00000000      0.00000000      0.00000000      0.00000000</v>
  </separator>
  <separator name="performance" >
   <i type="int" name="NPAR">    12</i>
   <i type="int" name="NSIM">     4</i>
   <i type="int" name="NBLK">    -1</i>
   <i type="logical" name="LPLANE"> T  </i>
   <i type="logical" name="LSCALAPACK"> T  </i>
   <i type="logical" name="LSCAAWARE"> F  </i>
   <i type="logical" name="LSCALU"> F  </i>
   <i type="logical" name="LASYNC"> F  </i>
   <i type="logical" name="LORBITALREAL"> F  </i>
  </separator>
  <separator name="miscellaneous" >
   <i type="int" name="IDIOT">     3</i>
   <i type="logical" name="LMUSIC"> F  </i>
   <v name="POMASS">     12.01100000     51.99600000      1.00000000     95.94000000     32.06600000</v>
   <v name="DARWINR">      0.00000000      0.00000000      0.00000000      0.00000000      0.00000000</v>
   <v name="DARWINV">      1.00000000      1.00000000      1.00000000      1.00000000      1.00000000</v>
   <i type="logical" name="LCORR"> T  </i>
  </separator>
  <i type="logical" name="GGA_COMPAT"> T  </i>
  <i type="logical" name="LBERRY"> F  </i>
  <i type="int" name="ICORELEVEL">     0</i>
  <i type="logical" name="LDAU"> F  </i>
  <i type="int" name="I_CONSTRAINED_M">     0</i>
  <separator name="electronic exchange-correlation" >
   <i type="string" name="GGA">--</i>
   <i type="int" name="VOSKOWN">     0</i>
   <i type="logical" name="LHFCALC"> F  </i>
   <i type="string" name="PRECFOCK"></i>
   <i type="logical" name="LSYMGRAD"> F  </i>
   <i type="logical" name="LHFONE"> F  </i>
   <i type="logical" name="LRHFCALC"> F  </i>
   <i type="logical" name="LTHOMAS"> F  </i>
   <i type="logical" name="LMODELHF"> F  </i>
   <i name="ENCUT4O">     -1.00000000</i>
   <i type="int" name="EXXOEP">     0</i>
   <i type="int" name="FOURORBIT">     0</i>
   <i name="AEXX">      0.00000000</i>
   <i name="HFALPHA">      0.00000000</i>
   <i name="MCALPHA">      0.00000000</i>
   <i name="ALDAX">      1.00000000</i>
   <i name="AGGAX">      1.00000000</i>
   <i name="ALDAC">      1.00000000</i>
   <i name="AGGAC">      1.00000000</i>
   <i type="int" name="NKREDX">     1</i>
   <i type="int" name="NKREDY">     1</i>
   <i type="int" name="NKREDZ">     1</i>
   <i type="logical" name="SHIFTRED"> F  </i>
   <i type="logical" name="ODDONLY"> F  </i>
   <i type="logical" name="EVENONLY"> F  </i>
   <i type="int" name="LMAXFOCK">     0</i>
   <i type="int" name="NMAXFOCKAE">     0</i>
   <i type="logical" name="LFOCKAEDFT"> F  </i>
   <i name="HFSCREEN">      0.00000000</i>
   <i name="HFSCREENC">      0.00000000</i>
   <i type="int" name="NBANDSGWLOW">     0</i>
  </separator>
  <separator name="vdW DFT" >
   <i type="logical" name="LUSE_VDW"> F  </i>
   <i name="Zab_VDW">     -0.84910000</i>
   <i name="PARAM1">      0.12340000</i>
   <i name="PARAM2">      1.00000000</i>
   <i name="PARAM3">      0.00000000</i>
  </separator>
  <separator name="model GW" >
   <i type="int" name="MODEL_GW">     0</i>
   <i name="MODEL_EPS0">     23.80275655</i>
   <i name="MODEL_ALPHA">      1.00000000</i>
  </separator>
  <separator name="linear response parameters" >
   <i type="logical" name="LEPSILON"> F  </i>
   <i type="logical" name="LRPA"> F  </i>
   <i type="logical" name="LNABLA"> F  </i>
   <i type="logical" name="LVEL"> F  </i>
   <i type="int" name="KINTER">     0</i>
   <i name="CSHIFT">      0.10000000</i>
   <i name="OMEGAMAX">     -1.00000000</i>
   <i name="DEG_THRESHOLD">      0.00200000</i>
  </separator>
  <separator name="orbital magnetization" >
   <i type="logical" name="NUCIND"> F  </i>
   <v name="MAGPOS">      0.00000000      0.00000000      0.00000000</v>
   <i type="logical" name="LNICSALL"> T  </i>
   <i type="logical" name="ORBITALMAG"> F  </i>
   <i type="logical" name="LMAGBLOCH"> F  </i>
   <i type="logical" name="LCHIMAG"> F  </i>
   <i type="logical" name="LGAUGE"> T  </i>
   <i type="int" name="MAGATOM">     0</i>
   <v name="MAGDIPOL">      0.00000000      0.00000000      0.00000000</v>
   <v name="AVECCONST">      0.00000000      0.00000000      0.00000000</v>
  </separator>
  <separator name="response functions" >
   <i type="logical" name="LADDER"> F  </i>
   <i type="logical" name="LFXC"> F  </i>
   <i type="logical" name="LHARTREE"> T  </i>
   <i type="int" name="IBSE">     0</i>
   <v type="int" name="KPOINT">    -1     0     0     0</v>
   <i type="logical" name="LTCTE"> F  </i>
   <i type="logical" name="LTETE"> F  </i>
   <i type="logical" name="LTRIPLET"> F  </i>
   <i type="logical" name="LFXCEPS"> F  </i>
   <i type="logical" name="LFXHEG"> F  </i>
   <i type="int" name="NATURALO">     0</i>
   <i type="logical" name="L2ORDER"> F  </i>
   <i type="logical" name="LUSEW"> F  </i>
   <i name="ENCUTGW">     -2.00000000</i>
   <i name="ENCUTGWSOFT">     -2.00000000</i>
   <i name="ENCUTLF">     -1.00000000</i>
   <i type="int" name="LMAXMP2">    -1</i>
   <i name="SCISSOR">      0.00000000</i>
   <i type="int" name="NOMEGA">     0</i>
   <i type="int" name="NOMEGAR">     0</i>
   <i type="int" name="NBANDSGW">    -1</i>
   <i type="int" name="NBANDSO">    -1</i>
   <i type="int" name="NBANDSV">    -1</i>
   <i type="int" name="NELM">   200</i>
   <i type="int" name="NELMHF">     1</i>
   <i type="int" name="DIM">     3</i>
   <i type="int" name="ANTIRES">     0</i>
   <i name="OMEGAMAX">    -30.00000000</i>
   <i name="OMEGAMIN">    -30.00000000</i>
   <i name="OMEGATL">   -200.00000000</i>
   <i type="int" name="OMEGAGRID">     0</i>
   <i name="CSHIFT">     -0.10000000</i>
   <i type="logical" name="SELFENERGY"> F  </i>
   <i type="logical" name="LSPECTRAL"> F  </i>
   <i type="logical" name="LSPECTRALGW"> F  </i>
   <i type="logical" name="LSINGLES"> F  </i>
   <i type="logical" name="LFERMIGW"> F  </i>
   <i type="logical" name="ODDONLYGW"> F  </i>
   <i type="logical" name="EVENONLYGW"> F  </i>
   <i type="int" name="NKREDLFX">     1</i>
   <i type="int" name="NKREDLFY">     1</i>
   <i type="int" name="NKREDLFZ">     1</i>
   <i type="int" name="MAXMEM">  1800</i>
   <i type="int" name="TELESCOPE">     0</i>
   <i type="int" name="TAUPAR">     1</i>
   <i type="int" name="OMEGAPAR">    -1</i>
   <i name="LAMBDA">      1.00000000</i>
  </separator>
  <separator name="External order field" >
   <i name="OFIELD_KAPPA">      0.00000000</i>
   <v name="OFIELD_K">      0.00000000      0.00000000      0.00000000</v>
   <i name="OFIELD_Q6_NEAR">      0.00000000</i>
   <i name="OFIELD_Q6_FAR">      0.00000000</i>
   <i name="OFIELD_A">      0.00000000</i>
  </separator>
 </parameters>
 <atominfo>
  <atoms>      93 </atoms>
  <types>       5 </types>
  <array name="atoms" >
   <dimension dim="1">ion</dimension>
   <field type="string">element</field>
   <field type="int">atomtype</field>
   <set>
    <rc><c>C </c><c>   1</c></rc>
    <rc><c>C </c><c>   1</c></rc>
    <rc><c>C </c><c>   1</c></rc>
    <rc><c>C </c><c>   1</c></rc>
    <rc><c>C </c><c>   1</c></rc>
    <rc><c>C </c><c>   1</c></rc>
    <rc><c>C </c><c>   1</c></rc>
    <rc><c>C </c><c>   1</c></rc>
    <rc><c>C </c><c>   1</c></rc>
    <rc><c>C </c><c>   1</c></rc>
    <rc><c>Cr</c><c>   2</c></rc>
    <rc><c>H </c><c>   3</c></rc>
    <rc><c>H </c><c>   3</c></rc>
    <rc><c>H </c><c>   3</c></rc>
    <rc><c>H </c><c>   3</c></rc>
    <rc><c>H </c><c>   3</c></rc>
    <rc><c>H </c><c>   3</c></rc>
    <rc><c>H </c><c>   3</c></rc>
    <rc><c>H </c><c>   3</c></rc>
    <rc><c>H </c><c>   3</c></rc>
    <rc><c>H </c><c>   3</c></rc>
    <rc><c>Mo</c><c>   4</c></rc>
    <rc><c>Mo</c><c>   4</c></rc>
    <rc><c>Mo</c><c>   4</c></rc>
    <rc><c>Mo</c><c>   4</c></rc>
    <rc><c>Mo</c><c>   4</c></rc>
    <rc><c>Mo</c><c>   4</c></rc>
    <rc><c>Mo</c><c>   4</c></rc>
    <rc><c>Mo</c><c>   4</c></rc>
    <rc><c>Mo</c><c>   4</c></rc>
    <rc><c>Mo</c><c>   4</c></rc>
    <rc><c>Mo</c><c>   4</c></rc>
    <rc><c>Mo</c><c>   4</c></rc>
    <rc><c>Mo</c><c>   4</c></rc>
    <rc><c>Mo</c><c>   4</c></rc>
    <rc><c>Mo</c><c>   4</c></rc>
    <rc><c>Mo</c><c>   4</c></rc>
    <rc><c>Mo</c><c>   4</c></rc>
    <rc><c>Mo</c><c>   4</c></rc>
    <rc><c>Mo</c><c>   4</c></rc>
    <rc><c>Mo</c><c>   4</c></rc>
    <rc><c>Mo</c><c>   4</c></rc>
    <rc><c>Mo</c><c>   4</c></rc>
    <rc><c>Mo</c><c>   4</c></rc>
    <rc><c>Mo</c><c>   4</c></rc>
    <rc><c>S </c><c>   5</c></rc>
    <rc><c>S </c><c>   5</c></rc>
    <rc><c>S </c><c>   5</c></rc>
    <rc><c>S </c><c>   5</c></rc>
    <rc><c>S </c><c>   5</c></rc>
    <rc><c>S </c><c>   5</c></rc>
    <rc><c>S </c><c>   5</c></rc>
    <rc><c>S </c><c>   5</c></rc>
    <rc><c>S </c><c>   5</c></rc>
    <rc><c>S </c><c>   5</c></rc>
    <rc><c>S </c><c>   5</c></rc>
    <rc><c>S </c><c>   5</c></rc>
    <rc><c>S </c><c>   5</c></rc>
    <rc><c>S </c><c>   5</c></rc>
    <rc><c>S </c><c>   5</c></rc>
    <rc><c>S </c><c>   5</c></rc>
    <rc><c>S </c><c>   5</c></rc>
    <rc><c>S </c><c>   5</c></rc>
    <rc><c>S </c><c>   5</c></rc>
    <rc><c>S </c><c>   5</c></rc>
    <rc><c>S </c><c>   5</c></rc>
    <rc><c>S </c><c>   5</c></rc>
    <rc><c>S </c><c>   5</c></rc>
    <rc><c>S </c><c>   5</c></rc>
    <rc><c>S </c><c>   5</c></rc>
    <rc><c>S </c><c>   5</c></rc>
    <rc><c>S </c><c>   5</c></rc>
    <rc><c>S </c><c>   5</c></rc>
    <rc><c>S </c><c>   5</c></rc>
    <rc><c>S </c><c>   5</c></rc>
    <rc><c>S </c><c>   5</c></rc>
    <rc><c>S </c><c>   5</c></rc>
    <rc><c>S </c><c>   5</c></rc>
    <rc><c>S </c><c>   5</c></rc>
    <rc><c>S </c><c>   5</c></rc>
    <rc><c>S </c><c>   5</c></rc>
    <rc><c>S </c><c>   5</c></rc>
    <rc><c>S </c><c>   5</c></rc>
    <rc><c>S </c><c>   5</c></rc>
    <rc><c>S </c><c>   5</c></rc>
    <rc><c>S </c><c>   5</c></rc>
    <rc><c>S </c><c>   5</c></rc>
    <rc><c>S </c><c>   5</c></rc>
    <rc><c>S </c><c>   5</c></rc>
    <rc><c>S </c><c>   5</c></rc>
    <rc><c>S </c><c>   5</c></rc>
    <rc><c>S </c><c>   5</c></rc>
    <rc><c>S </c><c>   5</c></rc>
   </set>
  </array>
  <array name="atomtypes" >
   <dimension dim="1">type</dimension>
   <field type="int">atomspertype</field>
   <field type="string">element</field>
   <field>mass</field>
   <field>valence</field>
   <field type="string">pseudopotential</field>
   <set>
    <rc><c>  10</c><c>C </c><c>     12.01100000</c><c>      4.00000000</c><c>  PAW_PBE C 08Apr2002                   </c></rc>
    <rc><c>   1</c><c>Cr</c><c>     51.99600000</c><c>      6.00000000</c><c>  PAW_PBE Cr 06Sep2000                  </c></rc>
    <rc><c>  10</c><c>H </c><c>      1.00000000</c><c>      1.00000000</c><c>  PAW_PBE H 15Jun2001                   </c></rc>
    <rc><c>  24</c><c>Mo</c><c>     95.94000000</c><c>      6.00000000</c><c>  PAW_PBE Mo 08Apr2002                  </c></rc>
    <rc><c>  48</c><c>S </c><c>     32.06600000</c><c>      6.00000000</c><c>  PAW_PBE S 06Sep2000                   </c></rc>
   </set>
  </array>
 </atominfo>
 <structure name="initialpos" >
  <crystal>
   <varray name="basis" >
    <v>       9.57094646       0.00000000       0.00000000 </v>
    <v>      -6.38062803      11.05157872       0.00000000 </v>
    <v>       0.00000000       0.00000000      34.88026251 </v>
   </varray>
   <i name="volume">   3689.42726549 </i>
   <varray name="rec_basis" >
    <v>       0.10448287       0.06032318       0.00000000 </v>
    <v>       0.00000000       0.09048481       0.00000000 </v>
    <v>       0.00000000       0.00000000       0.02866951 </v>
   </varray>
  </crystal>
  <varray name="positions" >
   <v>       0.05416014       0.69156758       0.04681121 </v>
   <v>       0.07657862       0.59678423       0.06127783 </v>
   <v>       0.00664891       0.74009994       0.07774550 </v>
   <v>       0.99986498       0.67487306       0.11206480 </v>
   <v>       0.04332602       0.58533633       0.10160939 </v>
   <v>       0.65992283       0.40382372       0.04037140 </v>
   <v>       0.60787824       0.43384688       0.10333574 </v>
   <v>       0.65895238       0.36700313       0.07958920 </v>
   <v>       0.57725739       0.51015969       0.07913280 </v>
   <v>       0.60934200       0.49246893       0.04054148 </v>
   <v>       0.82916020       0.55121893       0.07356844 </v>
   <v>       0.05186470       0.52187656       0.12091912 </v>
   <v>       0.68712311       0.29872295       0.08931417 </v>
   <v>       0.54374838       0.57574045       0.08876841 </v>
   <v>       0.59687885       0.42865341       0.13439679 </v>
   <v>       0.68979075       0.36886905       0.01514250 </v>
   <v>       0.10783248       0.53988721       0.04433779 </v>
   <v>       0.06382815       0.71831810       0.01687256 </v>
   <v>       0.97931746       0.81300377       0.07558596 </v>
   <v>       0.97224566       0.69255851       0.14075965 </v>
   <v>       0.60107795       0.54053521       0.01566253 </v>
   <v>       0.55555566       0.08333325       0.25000928 </v>
   <v>       0.55555566       0.33333325       0.25000928 </v>
   <v>       0.44444432       0.41666674       0.74999076 </v>
   <v>       0.55555566       0.58333325       0.25000928 </v>
   <v>       0.44444432       0.66666674       0.74999076 </v>
   <v>       0.55555566       0.83333325       0.25000928 </v>
   <v>       0.44444432       0.91666674       0.74999076 </v>
   <v>       0.88888899       0.33333325       0.25000928 </v>
   <v>       0.77777765       0.16666674       0.74999076 </v>
   <v>       0.77777765       0.41666674       0.74999076 </v>
   <v>       0.88888899       0.58333325       0.25000928 </v>
   <v>       0.77777765       0.66666674       0.74999076 </v>
   <v>       0.88888899       0.83333325       0.25000928 </v>
   <v>       0.77777765       0.91666674       0.74999076 </v>
   <v>       0.11111099       0.91666674       0.74999076 </v>
   <v>       0.88888899       0.08333325       0.25000928 </v>
   <v>       0.22222233       0.83333325       0.25000928 </v>
   <v>       0.44444432       0.16666674       0.74999076 </v>
   <v>       0.22222233       0.58333325       0.25000928 </v>
   <v>       0.11111099       0.41666674       0.74999076 </v>
   <v>       0.22222233       0.33333325       0.25000928 </v>
   <v>       0.22222233       0.08333325       0.25000928 </v>
   <v>       0.11111099       0.16666674       0.74999076 </v>
   <v>       0.11111099       0.66666674       0.74999076 </v>
   <v>       0.77777765       0.16666674       0.29487388 </v>
   <v>       0.88888899       0.08333325       0.79485533 </v>
   <v>       0.77777765       0.16666674       0.20514467 </v>
   <v>       0.88888899       0.08333325       0.70512613 </v>
   <v>       0.22222233       0.08333325       0.70512613 </v>
   <v>       0.11111099       0.16666674       0.20514467 </v>
   <v>       0.77777765       0.41666674       0.29487388 </v>
   <v>       0.88888899       0.33333325       0.79485533 </v>
   <v>       0.11111099       0.66666674       0.20514467 </v>
   <v>       0.55555566       0.83333325       0.70512613 </v>
   <v>       0.88888899       0.33333325       0.70512613 </v>
   <v>       0.22222233       0.08333325       0.79485533 </v>
   <v>       0.11111099       0.16666674       0.29487388 </v>
   <v>       0.77777765       0.66666674       0.29487388 </v>
   <v>       0.88888899       0.58333325       0.79485533 </v>
   <v>       0.77777765       0.66666674       0.20514467 </v>
   <v>       0.88888899       0.58333325       0.70512613 </v>
   <v>       0.77777765       0.91666674       0.29487388 </v>
   <v>       0.88888899       0.83333325       0.79485533 </v>
   <v>       0.77777765       0.41666674       0.20514467 </v>
   <v>       0.44444432       0.91666674       0.20514467 </v>
   <v>       0.44444432       0.91666674       0.29487388 </v>
   <v>       0.22222233       0.58333325       0.70512613 </v>
   <v>       0.22222233       0.58333325       0.79485533 </v>
   <v>       0.11111099       0.91666674       0.29487388 </v>
   <v>       0.22222233       0.83333325       0.79485533 </v>
   <v>       0.11111099       0.91666674       0.20514467 </v>
   <v>       0.22222233       0.83333325       0.70512613 </v>
   <v>       0.11111099       0.66666674       0.29487388 </v>
   <v>       0.77777765       0.91666674       0.20514467 </v>
   <v>       0.44444432       0.16666674       0.29487388 </v>
   <v>       0.55555566       0.08333325       0.79485533 </v>
   <v>       0.44444432       0.16666674       0.20514467 </v>
   <v>       0.55555566       0.08333325       0.70512613 </v>
   <v>       0.44444432       0.41666674       0.29487388 </v>
   <v>       0.55555566       0.33333325       0.79485533 </v>
   <v>       0.44444432       0.41666674       0.20514467 </v>
   <v>       0.55555566       0.33333325       0.70512613 </v>
   <v>       0.22222233       0.33333325       0.70512613 </v>
   <v>       0.11111099       0.41666674       0.20514467 </v>
   <v>       0.44444432       0.66666674       0.29487388 </v>
   <v>       0.55555566       0.58333325       0.79485533 </v>
   <v>       0.44444432       0.66666674       0.20514467 </v>
   <v>       0.55555566       0.58333325       0.70512613 </v>
   <v>       0.22222233       0.33333325       0.79485533 </v>
   <v>       0.11111099       0.41666674       0.29487388 </v>
   <v>       0.55555566       0.83333325       0.79485533 </v>
   <v>       0.88888899       0.83333325       0.70512613 </v>
  </varray>
 </structure>
 <calculation>
  <scstep>
   <time name="dav">    5.34    5.66</time>
   <time name="total">    5.74    6.07</time>
   <energy>
    <i name="alphaZ">    562.39184220 </i>
    <i name="ewald">  40919.62593326 </i>
    <i name="hartreedc"> -59839.94238571 </i>
    <i name="XCdc">   -737.09877131 </i>
    <i name="pawpsdc">  18197.44745459 </i>
    <i name="pawaedc"> -16322.33343364 </i>
    <i name="eentropy">     -0.14488445 </i>
    <i name="bandstr">   1182.63590084 </i>
    <i name="atom">  20380.58938199 </i>
    <i name="e_fr_energy">   4343.17103776 </i>
    <i name="e_wo_entrp">   4343.31592222 </i>
    <i name="e_0_energy">   4343.24347999 </i>
   </energy>
  </scstep>
  <scstep>
   <time name="dav">    8.58    8.67</time>
   <time name="total">    8.58    8.67</time>
   <energy>
    <i name="e_fr_energy">    -27.91614535 </i>
    <i name="e_wo_entrp">    -27.86623656 </i>
    <i name="e_0_energy">    -27.89119096 </i>
   </energy>
  </scstep>
  <scstep>
   <time name="dav">    6.77    6.79</time>
   <time name="total">    6.77    6.80</time>
   <energy>
    <i name="e_fr_energy">   -678.99159247 </i>
    <i name="e_wo_entrp">   -678.99159239 </i>
    <i name="e_0_energy">   -678.99159243 </i>
   </energy>
  </scstep>
  <scstep>
   <time name="dav">    7.81    7.84</time>
   <time name="total">    7.82    7.85</time>
   <energy>
    <i name="e_fr_energy">   -713.54513242 </i>
    <i name="e_wo_entrp">   -713.54513241 </i>
    <i name="e_0_energy">   -713.54513241 </i>
   </energy>
  </scstep>
  <scstep>
   <time name="dav">    7.69    7.72</time>
   <time name="total">    8.26    8.29</time>
   <energy>
    <i name="e_fr_energy">   -714.83953533 </i>
    <i name="e_wo_entrp">   -714.83953532 </i>
    <i name="e_0_energy">   -714.83953533 </i>
   </energy>
  </scstep>
  <scstep>
   <time name="dav">    7.33    7.36</time>
   <time name="total">    8.28    8.30</time>
   <energy>
    <i name="e_fr_energy">   -699.63336156 </i>
    <i name="e_wo_entrp">   -699.52058312 </i>
    <i name="e_0_energy">   -699.57697234 </i>
   </energy>
  </scstep>
  <scstep>
   <time name="dav">    7.97    7.99</time>
   <time name="total">    8.93    8.96</time>
   <energy>
    <i name="e_fr_energy">   -710.85549218 </i>
    <i name="e_wo_entrp">   -710.68780613 </i>
    <i name="e_0_energy">   -710.77164916 </i>
   </energy>
  </scstep>
  <scstep>
   <time name="dav">    7.09    7.11</time>
   <time name="total">    8.06    8.09</time>
   <energy>
    <i name="e_fr_energy">   -678.43915678 </i>
    <i name="e_wo_entrp">   -677.81822149 </i>
    <i name="e_0_energy">   -678.12868914 </i>
   </energy>
  </scstep>
  <scstep>
   <time name="dav">    7.78    7.80</time>
   <time name="total">    8.73    8.77</time>
   <energy>
    <i name="e_fr_energy">   -672.11091505 </i>
    <i name="e_wo_entrp">   -671.86952766 </i>
    <i name="e_0_energy">   -671.99022135 </i>
   </energy>
  </scstep>
  <scstep>
   <time name="dav">    7.78    7.85</time>
   <time name="total">    8.72    8.79</time>
   <energy>
    <i name="e_fr_energy">   -667.25726868 </i>
    <i name="e_wo_entrp">   -667.15468149 </i>
    <i name="e_0_energy">   -667.20597508 </i>
   </energy>
  </scstep>
  <scstep>
   <time name="dav">    8.38    8.40</time>
   <time name="total">    9.32    9.35</time>
   <energy>
    <i name="e_fr_energy">   -659.29199793 </i>
    <i name="e_wo_entrp">   -659.22313716 </i>
    <i name="e_0_energy">   -659.25756755 </i>
   </energy>
  </scstep>
  <scstep>
   <time name="dav">    7.43    7.45</time>
   <time name="total">    8.38    8.40</time>
   <energy>
    <i name="e_fr_energy">   -659.71878363 </i>
    <i name="e_wo_entrp">   -659.62533674 </i>
    <i name="e_0_energy">   -659.67206018 </i>
   </energy>
  </scstep>
  <scstep>
   <time name="dav">    8.37    8.39</time>
   <time name="total">    9.31    9.37</time>
   <energy>
    <i name="e_fr_energy">   -659.25116753 </i>
    <i name="e_wo_entrp">   -659.11345058 </i>
    <i name="e_0_energy">   -659.18230906 </i>
   </energy>
  </scstep>
  <scstep>
   <time name="dav">    8.58    8.60</time>
   <time name="total">    9.52    9.55</time>
   <energy>
    <i name="e_fr_energy">   -663.10018296 </i>
    <i name="e_wo_entrp">   -662.98968274 </i>
    <i name="e_0_energy">   -663.04493285 </i>
   </energy>
  </scstep>
  <scstep>
   <time name="dav">    8.45    8.48</time>
   <time name="total">    9.40    9.43</time>
   <energy>
    <i name="e_fr_energy">   -659.71904432 </i>
    <i name="e_wo_entrp">   -659.62707351 </i>
    <i name="e_0_energy">   -659.67305892 </i>
   </energy>
  </scstep>
  <scstep>
   <time name="dav">    7.90    7.94</time>
   <time name="total">    8.85    8.90</time>
   <energy>
    <i name="e_fr_energy">   -660.96625165 </i>
    <i name="e_wo_entrp">   -660.86009962 </i>
    <i name="e_0_energy">   -660.91317564 </i>
   </energy>
  </scstep>
  <scstep>
   <time name="dav">    8.33    8.36</time>
   <time name="total">    9.30    9.33</time>
   <energy>
    <i name="e_fr_energy">   -661.58954201 </i>
    <i name="e_wo_entrp">   -661.46341165 </i>
    <i name="e_0_energy">   -661.52647683 </i>
   </energy>
  </scstep>
  <scstep>
   <time name="dav">    6.90    6.92</time>
   <time name="total">    7.87    7.91</time>
   <energy>
    <i name="e_fr_energy">   -660.26655490 </i>
    <i name="e_wo_entrp">   -660.13500556 </i>
    <i name="e_0_energy">   -660.20078023 </i>
   </energy>
  </scstep>
  <scstep>
   <time name="dav">    7.82    7.85</time>
   <time name="total">    8.79    8.83</time>
   <energy>
    <i name="e_fr_energy">   -659.53409734 </i>
    <i name="e_wo_entrp">   -659.45118784 </i>
    <i name="e_0_energy">   -659.49264259 </i>
   </energy>
  </scstep>
  <scstep>
   <time name="dav">    8.18    8.21</time>
   <time name="total">    9.15    9.33</time>
   <energy>
    <i name="e_fr_energy">   -659.23970433 </i>
    <i name="e_wo_entrp">   -659.05033147 </i>
    <i name="e_0_energy">   -659.14501790 </i>
   </energy>
  </scstep>
  <scstep>
   <time name="dav">    7.38    7.41</time>
   <time name="total">    8.38    8.41</time>
   <energy>
    <i name="e_fr_energy">   -658.77299840 </i>
    <i name="e_wo_entrp">   -658.66385805 </i>
    <i name="e_0_energy">   -658.71842823 </i>
   </energy>
  </scstep>
  <scstep>
   <time name="dav">    7.54    7.58</time>
   <time name="total">    8.51    8.57</time>
   <energy>
    <i name="e_fr_energy">   -658.62997385 </i>
    <i name="e_wo_entrp">   -658.39129143 </i>
    <i name="e_0_energy">   -658.51063264 </i>
   </energy>
  </scstep>
  <scstep>
   <time name="dav">    8.15    8.19</time>
   <time name="total">    9.13    9.17</time>
   <energy>
    <i name="e_fr_energy">   -658.76330205 </i>
    <i name="e_wo_entrp">   -658.55182101 </i>
    <i name="e_0_energy">   -658.65756153 </i>
   </energy>
  </scstep>
  <scstep>
   <time name="dav">    7.64    7.67</time>
   <time name="total">    8.62    8.65</time>
   <energy>
    <i name="e_fr_energy">   -658.68372551 </i>
    <i name="e_wo_entrp">   -658.52260805 </i>
    <i name="e_0_energy">   -658.60316678 </i>
   </energy>
  </scstep>
  <scstep>
   <time name="dav">    7.71    7.73</time>
   <time name="total">    8.68    8.71</time>
   <energy>
    <i name="e_fr_energy">   -658.74799449 </i>
    <i name="e_wo_entrp">   -658.55270033 </i>
    <i name="e_0_energy">   -658.65034741 </i>
   </energy>
  </scstep>
  <scstep>
   <time name="dav">    7.44    7.46</time>
   <time name="total">    8.41    8.44</time>
   <energy>
    <i name="e_fr_energy">   -658.58361797 </i>
    <i name="e_wo_entrp">   -658.42287892 </i>
    <i name="e_0_energy">   -658.50324845 </i>
   </energy>
  </scstep>
  <scstep>
   <time name="dav">    7.44    7.46</time>
   <time name="total">    8.42    8.44</time>
   <energy>
    <i name="e_fr_energy">   -658.54517282 </i>
    <i name="e_wo_entrp">   -658.42177720 </i>
    <i name="e_0_energy">   -658.48347501 </i>
   </energy>
  </scstep>
  <scstep>
   <time name="dav">    7.69    7.71</time>
   <time name="total">    8.65    8.87</time>
   <energy>
    <i name="e_fr_energy">   -658.51818013 </i>
    <i name="e_wo_entrp">   -658.39676781 </i>
    <i name="e_0_energy">   -658.45747397 </i>
   </energy>
  </scstep>
  <scstep>
   <time name="dav">    6.79    6.83</time>
   <time name="total">    7.76    7.81</time>
   <energy>
    <i name="e_fr_energy">   -658.51175195 </i>
    <i name="e_wo_entrp">   -658.39805648 </i>
    <i name="e_0_energy">   -658.45490422 </i>
   </energy>
  </scstep>
  <scstep>
   <time name="dav">    7.80    7.84</time>
   <time name="total">    8.76    8.81</time>
   <energy>
    <i name="e_fr_energy">   -658.46411083 </i>
    <i name="e_wo_entrp">   -658.35125801 </i>
    <i name="e_0_energy">   -658.40768442 </i>
   </energy>
  </scstep>
  <scstep>
   <time name="dav">    7.51    7.53</time>
   <time name="total">    8.46    8.49</time>
   <energy>
    <i name="e_fr_energy">   -658.43893512 </i>
    <i name="e_wo_entrp">   -658.32612029 </i>
    <i name="e_0_energy">   -658.38252771 </i>
   </energy>
  </scstep>
  <scstep>
   <time name="dav">    7.37    7.40</time>
   <time name="total">    8.33    8.37</time>
   <energy>
    <i name="e_fr_energy">   -658.40279299 </i>
    <i name="e_wo_entrp">   -658.28913470 </i>
    <i name="e_0_energy">   -658.34596384 </i>
   </energy>
  </scstep>
  <scstep>
   <time name="dav">    6.95    6.97</time>
   <time name="total">    7.91    7.94</time>
   <energy>
    <i name="e_fr_energy">   -658.38691969 </i>
    <i name="e_wo_entrp">   -658.27310509 </i>
    <i name="e_0_energy">   -658.33001239 </i>
   </energy>
  </scstep>
  <scstep>
   <time name="dav">    6.20    6.22</time>
   <time name="total">    7.15    7.29</time>
   <energy>
    <i name="e_fr_energy">   -658.39918824 </i>
    <i name="e_wo_entrp">   -658.28560684 </i>
    <i name="e_0_energy">   -658.34239754 </i>
   </energy>
  </scstep>
  <scstep>
   <time name="dav">    4.24    4.26</time>
   <time name="total">    5.19    5.55</time>
   <energy>
    <i name="e_fr_energy">   -658.40071699 </i>
    <i name="e_wo_entrp">   -658.28714216 </i>
    <i name="e_0_energy">   -658.34392958 </i>
   </energy>
  </scstep>
  <scstep>
   <time name="dav">    5.76    5.83</time>
   <time name="total">    6.71    6.80</time>
   <energy>
    <i name="e_fr_energy">   -658.38605460 </i>
    <i name="e_wo_entrp">   -658.27184642 </i>
    <i name="e_0_energy">   -658.32895051 </i>
   </energy>
  </scstep>
  <scstep>
   <time name="dav">    7.39    7.56</time>
   <time name="total">    8.28    8.94</time>
   <energy>
    <i name="e_fr_energy">   -658.31465720 </i>
    <i name="e_wo_entrp">   -658.20030298 </i>
    <i name="e_0_energy">   -658.25748009 </i>
   </energy>
  </scstep>
  <scstep>
   <time name="dav">    7.90    8.12</time>
   <time name="total">    8.84    9.31</time>
   <energy>
    <i name="e_fr_energy">   -658.26551658 </i>
    <i name="e_wo_entrp">   -658.15018833 </i>
    <i name="e_0_energy">   -658.20785245 </i>
   </energy>
  </scstep>
  <scstep>
   <time name="dav">    7.84    7.87</time>
   <time name="total">    8.79    8.89</time>
   <energy>
    <i name="e_fr_energy">   -658.24771659 </i>
    <i name="e_wo_entrp">   -658.13314878 </i>
    <i name="e_0_energy">   -658.19043268 </i>
   </energy>
  </scstep>
  <scstep>
   <time name="dav">    7.35    7.37</time>
   <time name="total">    8.30    8.40</time>
   <energy>
    <i name="e_fr_energy">   -658.23898531 </i>
    <i name="e_wo_entrp">   -658.12391388 </i>
    <i name="e_0_energy">   -658.18144959 </i>
   </energy>
  </scstep>
  <scstep>
   <time name="dav">    7.65    7.69</time>
   <time name="total">    8.61    8.87</time>
   <energy>
    <i name="e_fr_energy">   -658.20498615 </i>
    <i name="e_wo_entrp">   -658.09515302 </i>
    <i name="e_0_energy">   -658.15006958 </i>
   </energy>
  </scstep>
  <scstep>
   <time name="dav">    8.09    8.13</time>
   <time name="total">    9.05    9.12</time>
   <energy>
    <i name="e_fr_energy">   -658.18972736 </i>
    <i name="e_wo_entrp">   -658.08010581 </i>
    <i name="e_0_energy">   -658.13491658 </i>
   </energy>
  </scstep>
  <scstep>
   <time name="dav">    7.96    7.99</time>
   <time name="total">    8.92    9.04</time>
   <energy>
    <i name="e_fr_energy">   -658.19285339 </i>
    <i name="e_wo_entrp">   -658.09006106 </i>
    <i name="e_0_energy">   -658.14145723 </i>
   </energy>
  </scstep>
  <scstep>
   <time name="dav">    7.96    7.99</time>
   <time name="total">    8.92    9.00</time>
   <energy>
    <i name="e_fr_energy">   -658.20201728 </i>
    <i name="e_wo_entrp">   -658.09592206 </i>
    <i name="e_0_energy">   -658.14896967 </i>
   </energy>
  </scstep>
  <scstep>
   <time name="dav">    7.72    7.96</time>
   <time name="total">    8.67    9.12</time>
   <energy>
    <i name="e_fr_energy">   -658.20895817 </i>
    <i name="e_wo_entrp">   -658.10609935 </i>
    <i name="e_0_energy">   -658.15752876 </i>
   </energy>
  </scstep>
  <scstep>
   <time name="dav">    6.03    6.05</time>
   <time name="total">    6.98    7.05</time>
   <energy>
    <i name="e_fr_energy">   -658.20825298 </i>
    <i name="e_wo_entrp">   -658.10173087 </i>
    <i name="e_0_energy">   -658.15499193 </i>
   </energy>
  </scstep>
  <scstep>
   <time name="dav">    5.25    5.26</time>
   <time name="total">    6.20    6.60</time>
   <energy>
    <i name="e_fr_energy">   -658.20522244 </i>
    <i name="e_wo_entrp">   -658.09984640 </i>
    <i name="e_0_energy">   -658.15253442 </i>
   </energy>
  </scstep>
  <scstep>
   <time name="dav">    5.76    5.78</time>
   <time name="total">    6.71    6.82</time>
   <energy>
    <i name="e_fr_energy">   -658.20145510 </i>
    <i name="e_wo_entrp">   -658.09249255 </i>
    <i name="e_0_energy">   -658.14697383 </i>
   </energy>
  </scstep>
  <scstep>
   <time name="dav">    6.78    6.85</time>
   <time name="total">    7.73    7.89</time>
   <energy>
    <i name="e_fr_energy">   -658.19213888 </i>
    <i name="e_wo_entrp">   -658.08342167 </i>
    <i name="e_0_energy">   -658.13778027 </i>
   </energy>
  </scstep>
  <scstep>
   <time name="dav">    6.23    6.26</time>
   <time name="total">    7.19    7.22</time>
   <energy>
    <i name="e_fr_energy">   -658.18603305 </i>
    <i name="e_wo_entrp">   -658.07605479 </i>
    <i name="e_0_energy">   -658.13104392 </i>
   </energy>
  </scstep>
  <scstep>
   <time name="dav">    5.79    5.81</time>
   <time name="total">    6.75    6.84</time>
   <energy>
    <i name="e_fr_energy">   -658.18456412 </i>
    <i name="e_wo_entrp">   -658.07598317 </i>
    <i name="e_0_energy">   -658.13027364 </i>
   </energy>
  </scstep>
  <scstep>
   <time name="dav">    6.05    6.07</time>
   <time name="total">    7.02    7.13</time>
   <energy>
    <i name="e_fr_energy">   -658.17634113 </i>
    <i name="e_wo_entrp">   -658.06642118 </i>
    <i name="e_0_energy">   -658.12138115 </i>
   </energy>
  </scstep>
  <scstep>
   <time name="dav">    5.26    5.36</time>
   <time name="total">    6.22    6.47</time>
   <energy>
    <i name="e_fr_energy">   -658.17067699 </i>
    <i name="e_wo_entrp">   -658.06141692 </i>
    <i name="e_0_energy">   -658.11604696 </i>
   </energy>
  </scstep>
  <scstep>
   <time name="dav">    4.75    4.77</time>
   <time name="total">    5.72    5.78</time>
   <energy>
    <i name="e_fr_energy">   -658.17028077 </i>
    <i name="e_wo_entrp">   -658.06056274 </i>
    <i name="e_0_energy">   -658.11542176 </i>
   </energy>
  </scstep>
  <scstep>
   <time name="dav">    4.48    4.50</time>
   <time name="total">    5.43    5.51</time>
   <energy>
    <i name="e_fr_energy">   -658.17102707 </i>
    <i name="e_wo_entrp">   -658.06174526 </i>
    <i name="e_0_energy">   -658.11638617 </i>
   </energy>
  </scstep>
  <scstep>
   <time name="dav">    7.21    7.23</time>
   <time name="total">    8.17    8.24</time>
   <energy>
    <i name="e_fr_energy">   -658.14588969 </i>
    <i name="e_wo_entrp">   -658.03366250 </i>
    <i name="e_0_energy">   -658.08977609 </i>
   </energy>
  </scstep>
  <scstep>
   <time name="dav">    6.68    6.70</time>
   <time name="total">    7.64    7.97</time>
   <energy>
    <i name="e_fr_energy">   -658.13855295 </i>
    <i name="e_wo_entrp">   -658.02886621 </i>
    <i name="e_0_energy">   -658.08370958 </i>
   </energy>
  </scstep>
  <scstep>
   <time name="dav">    6.55    6.58</time>
   <time name="total">    7.51    7.64</time>
   <energy>
    <i name="e_fr_energy">   -658.13257775 </i>
    <i name="e_wo_entrp">   -658.02114783 </i>
    <i name="e_0_energy">   -658.07686279 </i>
   </energy>
  </scstep>
  <scstep>
   <time name="dav">    7.55    7.58</time>
   <time name="total">    8.52    8.79</time>
   <energy>
    <i name="e_fr_energy">   -658.12144510 </i>
    <i name="e_wo_entrp">   -658.01331413 </i>
    <i name="e_0_energy">   -658.06737961 </i>
   </energy>
  </scstep>
  <scstep>
   <time name="dav">    7.62    7.65</time>
   <time name="total">    8.60    8.74</time>
   <energy>
    <i name="e_fr_energy">   -658.11345163 </i>
    <i name="e_wo_entrp">   -658.00243748 </i>
    <i name="e_0_energy">   -658.05794455 </i>
   </energy>
  </scstep>
  <scstep>
   <time name="dav">    7.76    7.81</time>
   <time name="total">    8.74    8.95</time>
   <energy>
    <i name="e_fr_energy">   -658.12260191 </i>
    <i name="e_wo_entrp">   -657.96804053 </i>
    <i name="e_0_energy">   -658.04532122 </i>
   </energy>
  </scstep>
  <scstep>
   <time name="dav">    6.89    6.92</time>
   <time name="total">    7.87    8.02</time>
   <energy>
    <i name="e_fr_energy">   -658.11433689 </i>
    <i name="e_wo_entrp">   -657.96920506 </i>
    <i name="e_0_energy">   -658.04177098 </i>
   </energy>
  </scstep>
  <scstep>
   <time name="dav">    6.13    6.15</time>
   <time name="total">    7.11    7.19</time>
   <energy>
    <i name="e_fr_energy">   -658.10813643 </i>
    <i name="e_wo_entrp">   -657.96878741 </i>
    <i name="e_0_energy">   -658.03846192 </i>
   </energy>
  </scstep>
  <scstep>
   <time name="dav">    5.95    5.97</time>
   <time name="total">    6.92    7.04</time>
   <energy>
    <i name="e_fr_energy">   -658.10633516 </i>
    <i name="e_wo_entrp">   -657.95863174 </i>
    <i name="e_0_energy">   -658.03248345 </i>
   </energy>
  </scstep>
  <scstep>
   <time name="dav">    4.89    4.91</time>
   <time name="total">    5.87    6.16</time>
   <energy>
    <i name="e_fr_energy">   -658.10455787 </i>
    <i name="e_wo_entrp">   -657.96082782 </i>
    <i name="e_0_energy">   -658.03269285 </i>
   </energy>
  </scstep>
  <scstep>
   <time name="dav">    5.68    5.71</time>
   <time name="total">    6.66    6.76</time>
   <energy>
    <i name="e_fr_energy">   -658.09877759 </i>
    <i name="e_wo_entrp">   -657.96105906 </i>
    <i name="e_0_energy">   -658.02991833 </i>
   </energy>
  </scstep>
  <scstep>
   <time name="dav">    4.94    4.97</time>
   <time name="total">    5.92    6.23</time>
   <energy>
    <i name="e_fr_energy">   -658.09950470 </i>
    <i name="e_wo_entrp">   -657.96227479 </i>
    <i name="e_0_energy">   -658.03088975 </i>
   </energy>
  </scstep>
  <scstep>
   <time name="dav">    5.09    5.11</time>
   <time name="total">    6.07    6.11</time>
   <energy>
    <i name="e_fr_energy">   -658.09773990 </i>
    <i name="e_wo_entrp">   -657.96646908 </i>
    <i name="e_0_energy">   -658.03210449 </i>
   </energy>
  </scstep>
  <scstep>
   <time name="dav">    5.16    5.19</time>
   <time name="total">    5.54    5.71</time>
   <energy>
    <i name="alphaZ">    562.39184220 </i>
    <i name="ewald">  40919.62593326 </i>
    <i name="hartreedc"> -60318.68150881 </i>
    <i name="XCdc">   -700.18741238 </i>
    <i name="pawpsdc">  42728.88818615 </i>
    <i name="pawaedc"> -40896.60992436 </i>
    <i name="eentropy">     -0.12870143 </i>
    <i name="bandstr">  -3333.98545976 </i>
    <i name="atom">  20380.58938199 </i>
    <i name="e_fr_energy">   -658.09766314 </i>
    <i name="e_wo_entrp">   -657.96896171 </i>
    <i name="e_0_energy">   -658.03331242 </i>
   </energy>
  </scstep>
  <structure>
   <crystal>
    <varray name="basis" >
     <v>       9.57094646       0.00000000       0.00000000 </v>
     <v>      -6.38062803      11.05157872       0.00000000 </v>
     <v>       0.00000000       0.00000000      34.88026251 </v>
    </varray>
    <i name="volume">   3689.42726549 </i>
    <varray name="rec_basis" >
     <v>       0.10448287       0.06032318       0.00000000 </v>
     <v>       0.00000000       0.09048481       0.00000000 </v>
     <v>       0.00000000       0.00000000       0.02866951 </v>
    </varray>
   </crystal>
   <varray name="positions" >
    <v>       0.05416014       0.69156758       0.04681121 </v>
    <v>       0.07657862       0.59678423       0.06127783 </v>
    <v>       0.00664891       0.74009994       0.07774550 </v>
    <v>       0.99986498       0.67487306       0.11206480 </v>
    <v>       0.04332602       0.58533633       0.10160939 </v>
    <v>       0.65992283       0.40382372       0.04037140 </v>
    <v>       0.60787824       0.43384688       0.10333574 </v>
    <v>       0.65895238       0.36700313       0.07958920 </v>
    <v>       0.57725739       0.51015969       0.07913280 </v>
    <v>       0.60934200       0.49246893       0.04054148 </v>
    <v>       0.82916020       0.55121893       0.07356844 </v>
    <v>       0.05186470       0.52187656       0.12091912 </v>
    <v>       0.68712311       0.29872295       0.08931417 </v>
    <v>       0.54374838       0.57574045       0.08876841 </v>
    <v>       0.59687885       0.42865341       0.13439679 </v>
    <v>       0.68979075       0.36886905       0.01514250 </v>
    <v>       0.10783248       0.53988721       0.04433779 </v>
    <v>       0.06382815       0.71831810       0.01687256 </v>
    <v>       0.97931746       0.81300377       0.07558596 </v>
    <v>       0.97224566       0.69255851       0.14075965 </v>
    <v>       0.60107795       0.54053521       0.01566253 </v>
    <v>       0.55555566       0.08333325       0.25000928 </v>
    <v>       0.55555566       0.33333325       0.25000928 </v>
    <v>       0.44444432       0.41666674       0.74999076 </v>
    <v>       0.55555566       0.58333325       0.25000928 </v>
    <v>       0.44444432       0.66666674       0.74999076 </v>
    <v>       0.55555566       0.83333325       0.25000928 </v>
    <v>       0.44444432       0.91666674       0.74999076 </v>
    <v>       0.88888899       0.33333325       0.25000928 </v>
    <v>       0.77777765       0.16666674       0.74999076 </v>
    <v>       0.77777765       0.41666674       0.74999076 </v>
    <v>       0.88888899       0.58333325       0.25000928 </v>
    <v>       0.77777765       0.66666674       0.74999076 </v>
    <v>       0.88888899       0.83333325       0.25000928 </v>
    <v>       0.77777765       0.91666674       0.74999076 </v>
    <v>       0.11111099       0.91666674       0.74999076 </v>
    <v>       0.88888899       0.08333325       0.25000928 </v>
    <v>       0.22222233       0.83333325       0.25000928 </v>
    <v>       0.44444432       0.16666674       0.74999076 </v>
    <v>       0.22222233       0.58333325       0.25000928 </v>
    <v>       0.11111099       0.41666674       0.74999076 </v>
    <v>       0.22222233       0.33333325       0.25000928 </v>
    <v>       0.22222233       0.08333325       0.25000928 </v>
    <v>       0.11111099       0.16666674       0.74999076 </v>
    <v>       0.11111099       0.66666674       0.74999076 </v>
    <v>       0.77777765       0.16666674       0.29487388 </v>
    <v>       0.88888899       0.08333325       0.79485533 </v>
    <v>       0.77777765       0.16666674       0.20514467 </v>
    <v>       0.88888899       0.08333325       0.70512613 </v>
    <v>       0.22222233       0.08333325       0.70512613 </v>
    <v>       0.11111099       0.16666674       0.20514467 </v>
    <v>       0.77777765       0.41666674       0.29487388 </v>
    <v>       0.88888899       0.33333325       0.79485533 </v>
    <v>       0.11111099       0.66666674       0.20514467 </v>
    <v>       0.55555566       0.83333325       0.70512613 </v>
    <v>       0.88888899       0.33333325       0.70512613 </v>
    <v>       0.22222233       0.08333325       0.79485533 </v>
    <v>       0.11111099       0.16666674       0.29487388 </v>
    <v>       0.77777765       0.66666674       0.29487388 </v>
    <v>       0.88888899       0.58333325       0.79485533 </v>
    <v>       0.77777765       0.66666674       0.20514467 </v>
    <v>       0.88888899       0.58333325       0.70512613 </v>
    <v>       0.77777765       0.91666674       0.29487388 </v>
    <v>       0.88888899       0.83333325       0.79485533 </v>
    <v>       0.77777765       0.41666674       0.20514467 </v>
    <v>       0.44444432       0.91666674       0.20514467 </v>
    <v>       0.44444432       0.91666674       0.29487388 </v>
    <v>       0.22222233       0.58333325       0.70512613 </v>
    <v>       0.22222233       0.58333325       0.79485533 </v>
    <v>       0.11111099       0.91666674       0.29487388 </v>
    <v>       0.22222233       0.83333325       0.79485533 </v>
    <v>       0.11111099       0.91666674       0.20514467 </v>
    <v>       0.22222233       0.83333325       0.70512613 </v>
    <v>       0.11111099       0.66666674       0.29487388 </v>
    <v>       0.77777765       0.91666674       0.20514467 </v>
    <v>       0.44444432       0.16666674       0.29487388 </v>
    <v>       0.55555566       0.08333325       0.79485533 </v>
    <v>       0.44444432       0.16666674       0.20514467 </v>
    <v>       0.55555566       0.08333325       0.70512613 </v>
    <v>       0.44444432       0.41666674       0.29487388 </v>
    <v>       0.55555566       0.33333325       0.79485533 </v>
    <v>       0.44444432       0.41666674       0.20514467 </v>
    <v>       0.55555566       0.33333325       0.70512613 </v>
    <v>       0.22222233       0.33333325       0.70512613 </v>
    <v>       0.11111099       0.41666674       0.20514467 </v>
    <v>       0.44444432       0.66666674       0.29487388 </v>
    <v>       0.55555566       0.58333325       0.79485533 </v>
    <v>       0.44444432       0.66666674       0.20514467 </v>
    <v>       0.55555566       0.58333325       0.70512613 </v>
    <v>       0.22222233       0.33333325       0.79485533 </v>
    <v>       0.11111099       0.41666674       0.29487388 </v>
    <v>       0.55555566       0.83333325       0.79485533 </v>
    <v>       0.88888899       0.83333325       0.70512613 </v>
   </varray>
  </structure>
  <varray name="forces" >
   <v>       0.05572277       0.03346015       0.04611756 </v>
   <v>      -0.00743615       0.03931102      -0.00159203 </v>
   <v>       0.01370962      -0.01804277      -0.02323775 </v>
   <v>      -0.02118011      -0.01160124      -0.10828264 </v>
   <v>      -0.00738466       0.02920045      -0.02092283 </v>
   <v>      -0.00798201       0.02627538      -0.00456778 </v>
   <v>      -0.02964493       0.00436662      -0.06715535 </v>
   <v>      -0.01340943       0.03630012       0.02406768 </v>
   <v>      -0.00337112      -0.03747756      -0.01329587 </v>
   <v>      -0.04065434      -0.04505433       0.05160527 </v>
   <v>       0.03686763      -0.02881632       0.11419294 </v>
   <v>       0.00144751      -0.01751045       0.02183712 </v>
   <v>       0.00744708       0.00422054       0.01281115 </v>
   <v>      -0.00719763      -0.00547053       0.00394759 </v>
   <v>       0.00780768       0.01203223      -0.00261103 </v>
   <v>       0.00328541       0.00391497       0.00632219 </v>
   <v>       0.00649792      -0.00290946      -0.01008923 </v>
   <v>      -0.00384216      -0.00067227      -0.01010026 </v>
   <v>       0.00127802       0.00017594       0.01178493 </v>
   <v>      -0.02849810      -0.00900730      -0.07707824 </v>
   <v>       0.01105337       0.00053460      -0.00198309 </v>
   <v>       0.02009772       0.18269289      -0.00556934 </v>
   <v>       0.02067784       0.17216649      -0.01499967 </v>
   <v>      -0.01481541      -0.17673898       0.00392353 </v>
   <v>       0.02361237       0.17246915       0.00203259 </v>
   <v>      -0.01502271      -0.17641914       0.00416773 </v>
   <v>       0.01730456       0.16894749      -0.00646579 </v>
   <v>      -0.01477773      -0.17634644       0.00415733 </v>
   <v>       0.02209916       0.17187208      -0.00616574 </v>
   <v>      -0.00931213      -0.17846616       0.00416924 </v>
   <v>      -0.00891258      -0.17882624       0.00400657 </v>
   <v>       0.03122669       0.17846734      -0.02419216 </v>
   <v>      -0.00920669      -0.17799621       0.00406984 </v>
   <v>       0.02517849       0.17714538      -0.00445441 </v>
   <v>      -0.00914216      -0.17848373       0.00436250 </v>
   <v>      -0.01627309      -0.17645034       0.00387684 </v>
   <v>       0.02555881       0.17859994      -0.00924203 </v>
   <v>       0.01761896       0.15953488      -0.01678304 </v>
   <v>      -0.01459766      -0.17699493       0.00395658 </v>
   <v>       0.00287249       0.17891442       0.00501627 </v>
   <v>      -0.01640532      -0.17678356       0.00378902 </v>
   <v>       0.02166949       0.15455080      -0.00574888 </v>
   <v>       0.00995807       0.19038378      -0.00185992 </v>
   <v>      -0.01625941      -0.17707982       0.00379323 </v>
   <v>      -0.01617719      -0.17657731       0.00379849 </v>
   <v>      -0.01075651      -0.08731799      -0.20583488 </v>
   <v>       0.00675144       0.08874338      -0.18806871 </v>
   <v>      -0.01236524      -0.08883754       0.20121197 </v>
   <v>       0.00673606       0.08848651       0.18503837 </v>
   <v>       0.00819672       0.08866038       0.18551805 </v>
   <v>      -0.01222035      -0.09251009       0.19993832 </v>
   <v>      -0.01219005      -0.08652637      -0.20645879 </v>
   <v>       0.00706177       0.08866805      -0.18827881 </v>
   <v>       0.07256305      -0.09616838       0.33994238 </v>
   <v>       0.00692360       0.08839376       0.18544248 </v>
   <v>       0.00702474       0.08851040       0.18531596 </v>
   <v>       0.00814192       0.08900348      -0.18841233 </v>
   <v>      -0.00931362      -0.08540875      -0.20467820 </v>
   <v>      -0.00975187      -0.09008653      -0.20581245 </v>
   <v>       0.00674709       0.08878321      -0.18812558 </v>
   <v>      -0.04307848      -0.08220582       0.22749704 </v>
   <v>       0.00671046       0.08849580       0.18519034 </v>
   <v>      -0.01026416      -0.08756470      -0.20376594 </v>
   <v>       0.00705120       0.08883465      -0.18838381 </v>
   <v>       0.00340011      -0.08416627       0.19560439 </v>
   <v>      -0.00992923      -0.08859786       0.19938842 </v>
   <v>      -0.01085430      -0.08806715      -0.20290697 </v>
   <v>       0.00807239       0.08854043       0.18547019 </v>
   <v>       0.00807098       0.08891091      -0.18838278 </v>
   <v>      -0.00962781      -0.08919922      -0.20478381 </v>
   <v>       0.00771667       0.08927479      -0.18811721 </v>
   <v>      -0.01144979      -0.09046268       0.18980444 </v>
   <v>       0.00775622       0.08880586       0.18520580 </v>
   <v>      -0.01161595      -0.08838734      -0.19979994 </v>
   <v>      -0.01191586      -0.08924218       0.20242857 </v>
   <v>      -0.01019452      -0.08754057      -0.20638580 </v>
   <v>       0.00670637       0.08909309      -0.18850201 </v>
   <v>      -0.00875993      -0.08910490       0.19645821 </v>
   <v>       0.00673686       0.08877316       0.18558038 </v>
   <v>      -0.01210678      -0.08475795      -0.20591762 </v>
   <v>       0.00700821       0.08843062      -0.18831248 </v>
   <v>      -0.03789995      -0.08429887       0.24908911 </v>
   <v>       0.00705091       0.08823148       0.18544491 </v>
   <v>       0.00760446       0.08876018       0.18505219 </v>
   <v>      -0.01720730      -0.08376257       0.19051439 </v>
   <v>      -0.00936646      -0.08743967      -0.20501263 </v>
   <v>       0.00687739       0.08923065      -0.18830900 </v>
   <v>      -0.01192053      -0.08614776       0.19065778 </v>
   <v>       0.00691869       0.08889596       0.18539229 </v>
   <v>       0.00756220       0.08899540      -0.18798991 </v>
   <v>      -0.00802054      -0.08382543      -0.20728110 </v>
   <v>       0.00688788       0.08884680      -0.18845702 </v>
   <v>       0.00704291       0.08844606       0.18538266 </v>
  </varray>
  <varray name="stress" >
   <v>       1.72098356       0.00449352      -0.00056851 </v>
   <v>       0.00449350      -6.14668469      -0.08583908 </v>
   <v>      -0.00056855      -0.08583907      -7.48159901 </v>
  </varray>
  <energy>
   <i name="e_fr_energy">   -673.25503370 </i>
   <i name="e_wo_entrp">   -673.19068298 </i>
   <i name="e_0_energy">     -0.12870143 </i>
  </energy>
  <time name="totalsc">  554.16  563.65</time>
 </calculation>
 <calculation>
  <scstep>
   <time name="dav">    5.82    5.84</time>
   <time name="total">    6.79    6.82</time>
   <energy>
    <i name="alphaZ">    562.39184220 </i>
    <i name="ewald">  41146.71610191 </i>
    <i name="hartreedc"> -60535.79510103 </i>
    <i name="XCdc">   -699.09568191 </i>
    <i name="pawpsdc">  42729.13556463 </i>
    <i name="pawaedc"> -40896.86074846 </i>
    <i name="eentropy">     -0.14350190 </i>
    <i name="bandstr">  -3345.04806383 </i>
    <i name="atom">  20380.58938199 </i>
    <i name="e_fr_energy">   -658.11020640 </i>
    <i name="e_wo_entrp">   -657.96670450 </i>
    <i name="e_0_energy">   -658.03845545 </i>
   </energy>
  </scstep>
  <scstep>
   <time name="dav">    6.55    6.58</time>
   <time name="total">    7.47    7.57</time>
   <energy>
    <i name="e_fr_energy">   -658.27319327 </i>
    <i name="e_wo_entrp">   -658.16196276 </i>
    <i name="e_0_energy">   -658.21757802 </i>
   </energy>
  </scstep>
  <scstep>
   <time name="dav">    7.44    7.47</time>
   <time name="total">    8.39    8.46</time>
   <energy>
    <i name="e_fr_energy">   -658.19780118 </i>
    <i name="e_wo_entrp">   -658.02000048 </i>
    <i name="e_0_energy">   -658.10890083 </i>
   </energy>
  </scstep>
  <scstep>
   <time name="dav">    7.38    7.42</time>
   <time name="total">    8.30    8.34</time>
   <energy>
    <i name="e_fr_energy">   -658.19705952 </i>
    <i name="e_wo_entrp">   -658.09972314 </i>
    <i name="e_0_energy">   -658.14839133 </i>
   </energy>
  </scstep>
  <scstep>
   <time name="dav">    7.35    7.38</time>
   <time name="total">    8.27    8.31</time>
   <energy>
    <i name="e_fr_energy">   -658.17315718 </i>
    <i name="e_wo_entrp">   -658.06358153 </i>
    <i name="e_0_energy">   -658.11836936 </i>
   </energy>
  </scstep>
  <scstep>
   <time name="dav">    7.45    7.49</time>
   <time name="total">    8.39    8.49</time>
   <energy>
    <i name="e_fr_energy">   -658.13717909 </i>
    <i name="e_wo_entrp">   -658.04327499 </i>
    <i name="e_0_energy">   -658.09022704 </i>
   </energy>
  </scstep>
  <scstep>
   <time name="dav">    6.99    7.05</time>
   <time name="total">    7.94    8.05</time>
   <energy>
    <i name="e_fr_energy">   -658.12445488 </i>
    <i name="e_wo_entrp">   -657.99668161 </i>
    <i name="e_0_energy">   -658.06056825 </i>
   </energy>
  </scstep>
  <scstep>
   <time name="dav">    7.28    7.31</time>
   <time name="total">    8.25    9.03</time>
   <energy>
    <i name="e_fr_energy">   -658.12321431 </i>
    <i name="e_wo_entrp">   -657.97910850 </i>
    <i name="e_0_energy">   -658.05116141 </i>
   </energy>
  </scstep>
  <scstep>
   <time name="dav">    7.28    7.31</time>
   <time name="total">    8.23    8.35</time>
   <energy>
    <i name="e_fr_energy">   -658.11082886 </i>
    <i name="e_wo_entrp">   -657.98726319 </i>
    <i name="e_0_energy">   -658.04904603 </i>
   </energy>
  </scstep>
  <scstep>
   <time name="dav">    6.52    6.56</time>
   <time name="total">    7.48    7.56</time>
   <energy>
    <i name="e_fr_energy">   -658.10816283 </i>
    <i name="e_wo_entrp">   -657.98374691 </i>
    <i name="e_0_energy">   -658.04595487 </i>
   </energy>
  </scstep>
  <scstep>
   <time name="dav">    6.51    6.54</time>
   <time name="total">    7.47    7.59</time>
   <energy>
    <i name="e_fr_energy">   -658.10660717 </i>
    <i name="e_wo_entrp">   -657.97826924 </i>
    <i name="e_0_energy">   -658.04243820 </i>
   </energy>
  </scstep>
  <scstep>
   <time name="dav">    4.94    4.97</time>
   <time name="total">    5.91    6.54</time>
   <energy>
    <i name="e_fr_energy">   -658.10606017 </i>
    <i name="e_wo_entrp">   -657.97906575 </i>
    <i name="e_0_energy">   -658.04256296 </i>
   </energy>
  </scstep>
  <scstep>
   <time name="dav">    5.68    5.71</time>
   <time name="total">    6.65    7.00</time>
   <energy>
    <i name="e_fr_energy">   -658.10605162 </i>
    <i name="e_wo_entrp">   -657.97080236 </i>
    <i name="e_0_energy">   -658.03842699 </i>
   </energy>
  </scstep>
  <scstep>
   <time name="dav">    5.15    5.18</time>
   <time name="total">    6.12    6.20</time>
   <energy>
    <i name="e_fr_energy">   -658.10533956 </i>
    <i name="e_wo_entrp">   -657.97469646 </i>
    <i name="e_0_energy">   -658.04001801 </i>
   </energy>
  </scstep>
  <scstep>
   <time name="dav">    4.56    4.60</time>
   <time name="total">    5.52    5.66</time>
   <energy>
    <i name="e_fr_energy">   -658.10552513 </i>
    <i name="e_wo_entrp">   -657.97450916 </i>
    <i name="e_0_energy">   -658.04001714 </i>
   </energy>
  </scstep>
  <scstep>
   <time name="dav">    4.40    4.42</time>
   <time name="total">    5.36    5.56</time>
   <energy>
    <i name="e_fr_energy">   -658.10537829 </i>
    <i name="e_wo_entrp">   -657.97530966 </i>
    <i name="e_0_energy">   -658.04034398 </i>
   </energy>
  </scstep>
  <scstep>
   <time name="dav">    4.41    4.43</time>
   <time name="total">    5.39    5.64</time>
   <energy>
    <i name="e_fr_energy">   -658.10553643 </i>
    <i name="e_wo_entrp">   -657.97540376 </i>
    <i name="e_0_energy">   -658.04047009 </i>
   </energy>
  </scstep>
  <scstep>
   <time name="dav">    4.08    4.10</time>
   <time name="total">    4.46    4.54</time>
   <energy>
    <i name="alphaZ">    562.39184220 </i>
    <i name="ewald">  41146.71610191 </i>
    <i name="hartreedc"> -60538.53560505 </i>
    <i name="XCdc">   -699.11456047 </i>
    <i name="pawpsdc">  43109.99691437 </i>
    <i name="pawaedc"> -41278.35655303 </i>
    <i name="eentropy">     -0.12973405 </i>
    <i name="bandstr">  -3341.66332458 </i>
    <i name="atom">  20380.58938199 </i>
    <i name="e_fr_energy">   -658.10553671 </i>
    <i name="e_wo_entrp">   -657.97580265 </i>
    <i name="e_0_energy">   -658.04066968 </i>
   </energy>
  </scstep>
  <structure>
   <crystal>
    <varray name="basis" >
     <v>       9.57094646       0.00000000       0.00000000 </v>
     <v>      -6.38062803      11.05157872       0.00000000 </v>
     <v>       0.00000000       0.00000000      34.88026251 </v>
    </varray>
    <i name="volume">   3689.42726549 </i>
    <varray name="rec_basis" >
     <v>       0.10448287       0.06032318       0.00000000 </v>
     <v>       0.00000000       0.09048481       0.00000000 </v>
     <v>       0.00000000       0.00000000       0.02866951 </v>
    </varray>
   </crystal>
   <varray name="positions" >
    <v>       0.05453839       0.69171364       0.04687499 </v>
    <v>       0.07665553       0.59695583       0.06127563 </v>
    <v>       0.00666551       0.74002118       0.07771336 </v>
    <v>       0.99972446       0.67482241       0.11191503 </v>
    <v>       0.04337377       0.58546380       0.10158045 </v>
    <v>       0.65995906       0.40393842       0.04036509 </v>
    <v>       0.60774152       0.43386594       0.10324286 </v>
    <v>       0.65899042       0.36716159       0.07962248 </v>
    <v>       0.57713133       0.50999609       0.07911441 </v>
    <v>       0.60900596       0.49227226       0.04061285 </v>
    <v>       0.82926217       0.55109314       0.07372638 </v>
    <v>       0.05182104       0.52180012       0.12094932 </v>
    <v>       0.68717293       0.29874138       0.08933189 </v>
    <v>       0.54369618       0.57571657       0.08877386 </v>
    <v>       0.59695322       0.42870593       0.13439318 </v>
    <v>       0.68981870       0.36888614       0.01515124 </v>
    <v>       0.10785677       0.53987451       0.04432384 </v>
    <v>       0.06380683       0.71831516       0.01685859 </v>
    <v>       0.97932442       0.81300454       0.07560226 </v>
    <v>       0.97207580       0.69251919       0.14065304 </v>
    <v>       0.60113522       0.54053755       0.01565979 </v>
    <v>       0.55618863       0.08413074       0.25000158 </v>
    <v>       0.55616092       0.33408479       0.24998854 </v>
    <v>       0.44385530       0.41589524       0.74999618 </v>
    <v>       0.55617659       0.58408611       0.25001209 </v>
    <v>       0.44385519       0.66589663       0.74999652 </v>
    <v>       0.55613455       0.83407074       0.25000034 </v>
    <v>       0.44385664       0.91589695       0.74999651 </v>
    <v>       0.88950056       0.33408351       0.25000076 </v>
    <v>       0.77721135       0.16588770       0.74999652 </v>
    <v>       0.77721232       0.41588613       0.74999630 </v>
    <v>       0.88956576       0.58411230       0.24997582 </v>
    <v>       0.77721325       0.66588975       0.74999639 </v>
    <v>       0.88953143       0.83410653       0.25000312 </v>
    <v>       0.77721216       0.91588762       0.74999679 </v>
    <v>       0.11051546       0.91589650       0.74999612 </v>
    <v>       0.88953758       0.08411288       0.24999650 </v>
    <v>       0.22277541       0.83402965       0.24998607 </v>
    <v>       0.44385566       0.16589412       0.74999623 </v>
    <v>       0.22275747       0.58411425       0.25001622 </v>
    <v>       0.11051383       0.41589504       0.74999600 </v>
    <v>       0.22278132       0.33400790       0.25000133 </v>
    <v>       0.22282657       0.08416432       0.25000671 </v>
    <v>       0.11051370       0.16589375       0.74999600 </v>
    <v>       0.11051558       0.66589594       0.74999601 </v>
    <v>       0.77746933       0.16628558       0.29458919 </v>
    <v>       0.88918128       0.08372063       0.79459521 </v>
    <v>       0.77745679       0.16627895       0.20542297 </v>
    <v>       0.88918046       0.08371951       0.70538206 </v>
    <v>       0.22252166       0.08372027       0.70538272 </v>
    <v>       0.11078017       0.16626292       0.20542121 </v>
    <v>       0.77746440       0.41628904       0.29458833 </v>
    <v>       0.88918263       0.33372030       0.79459492 </v>
    <v>       0.11119688       0.66624695       0.20561484 </v>
    <v>       0.55584780       0.83371911       0.70538262 </v>
    <v>       0.88918198       0.33371962       0.70538244 </v>
    <v>       0.22252238       0.08372177       0.79459474 </v>
    <v>       0.11081549       0.16629391       0.29459079 </v>
    <v>       0.77746633       0.66627349       0.29458922 </v>
    <v>       0.88918137       0.58372081       0.79459513 </v>
    <v>       0.77732128       0.66630790       0.20545932 </v>
    <v>       0.88918035       0.58371955       0.70538227 </v>
    <v>       0.77747109       0.91628450       0.29459205 </v>
    <v>       0.88918306       0.83372103       0.79459478 </v>
    <v>       0.77754985       0.41629934       0.20541521 </v>
    <v>       0.44413644       0.91627999       0.20542044 </v>
    <v>       0.44413332       0.91628231       0.29459324 </v>
    <v>       0.22252068       0.58371975       0.70538265 </v>
    <v>       0.22252175       0.58372136       0.79459478 </v>
    <v>       0.11080287       0.91627737       0.29459065 </v>
    <v>       0.22252103       0.83372295       0.79459514 </v>
    <v>       0.11079001       0.91627185       0.20540719 </v>
    <v>       0.22251986       0.83372091       0.70538229 </v>
    <v>       0.11079522       0.66628091       0.29459754 </v>
    <v>       0.77745788       0.91627718       0.20542465 </v>
    <v>       0.44413818       0.16628461       0.29458843 </v>
    <v>       0.55584874       0.08372216       0.79459461 </v>
    <v>       0.44414086       0.16627778       0.20541639 </v>
    <v>       0.55584796       0.08372076       0.70538281 </v>
    <v>       0.44413664       0.41629676       0.29458908 </v>
    <v>       0.55584833       0.33371927       0.79459487 </v>
    <v>       0.44400796       0.41629876       0.20548919 </v>
    <v>       0.55584797       0.33371840       0.70538262 </v>
    <v>       0.22251896       0.33372071       0.70538208 </v>
    <v>       0.11078049       0.41630110       0.20540817 </v>
    <v>       0.44414264       0.66628505       0.29459033 </v>
    <v>       0.55585000       0.58372276       0.79459488 </v>
    <v>       0.44413353       0.66629069       0.20540837 </v>
    <v>       0.55584923       0.58372130       0.70538255 </v>
    <v>       0.22251943       0.33372173       0.79459532 </v>
    <v>       0.11082661       0.41630083       0.29458719 </v>
    <v>       0.55584894       0.83372108       0.79459467 </v>
    <v>       0.88918188       0.83371933       0.70538253 </v>
   </varray>
  </structure>
  <varray name="forces" >
   <v>      -0.02148612       0.06961447      -0.18836093 </v>
   <v>       0.11375864      -0.09353368      -0.02455103 </v>
   <v>      -0.07330086       0.09987507      -0.03252255 </v>
   <v>      -0.02623620       0.03265306       0.18308338 </v>
   <v>       0.09721077      -0.08541641       0.07480112 </v>
   <v>       0.02142905      -0.03219097       0.04087546 </v>
   <v>      -0.01189091      -0.05079257       0.23507211 </v>
   <v>       0.07523159      -0.09062731      -0.05240166 </v>
   <v>      -0.12901141       0.09877391       0.05175123 </v>
   <v>      -0.01470891       0.03914992      -0.18224794 </v>
   <v>      -0.03164184      -0.00346674      -0.06195479 </v>
   <v>      -0.03921600       0.05581734      -0.03362283 </v>
   <v>      -0.03278491       0.03899416       0.00720604 </v>
   <v>       0.02625124      -0.04382838      -0.01097561 </v>
   <v>       0.00112102       0.01416981      -0.09887614 </v>
   <v>      -0.00104845       0.01252288       0.00931103 </v>
   <v>      -0.03123868       0.03737320       0.02275045 </v>
   <v>       0.00876743      -0.01691468       0.06986606 </v>
   <v>       0.02355361      -0.02566434       0.00875454 </v>
   <v>      -0.00694225      -0.01257414      -0.11279667 </v>
   <v>       0.02578293      -0.03466993       0.06523891 </v>
   <v>      -0.01696678      -0.08436223       0.00131885 </v>
   <v>      -0.00978774      -0.07673496       0.00478083 </v>
   <v>       0.00674456       0.08099037      -0.00493485 </v>
   <v>      -0.03130730      -0.07900031       0.01835181 </v>
   <v>       0.00688826       0.08120019      -0.00505759 </v>
   <v>      -0.01374960      -0.07576799       0.00229999 </v>
   <v>       0.00669400       0.08102168      -0.00513132 </v>
   <v>      -0.01773515      -0.08155821       0.00190609 </v>
   <v>       0.00380428       0.08220458      -0.00521193 </v>
   <v>       0.00315664       0.08256087      -0.00506611 </v>
   <v>      -0.02461787      -0.08655192       0.02441006 </v>
   <v>       0.00355300       0.08195532      -0.00511356 </v>
   <v>      -0.02165474      -0.07828273       0.00636064 </v>
   <v>       0.00334315       0.08243687      -0.00535620 </v>
   <v>       0.00918939       0.08173610      -0.00481014 </v>
   <v>      -0.01910516      -0.08099734       0.00182111 </v>
   <v>      -0.00664653      -0.05619704       0.03049685 </v>
   <v>       0.00652453       0.08142726      -0.00496795 </v>
   <v>       0.03231041      -0.10036380       0.03889138 </v>
   <v>       0.00937916       0.08176730      -0.00473372 </v>
   <v>      -0.03028947      -0.07697038       0.00773709 </v>
   <v>      -0.00745137      -0.08966851      -0.00384895 </v>
   <v>       0.00891681       0.08217560      -0.00475979 </v>
   <v>       0.00893171       0.08195601      -0.00471045 </v>
   <v>       0.00869085       0.04059293      -0.01297506 </v>
   <v>      -0.00206427      -0.04147603      -0.02135008 </v>
   <v>       0.00714856       0.03979225       0.00281337 </v>
   <v>      -0.00209705      -0.04146858       0.02572679 </v>
   <v>      -0.00351757      -0.03996028       0.02637969 </v>
   <v>       0.00592513       0.03636145      -0.00304417 </v>
   <v>       0.00673008       0.04168799      -0.02248674 </v>
   <v>      -0.00215336      -0.04152458      -0.02108727 </v>
   <v>       0.04070191       0.03547465       0.02861213 </v>
   <v>      -0.00238878      -0.03995860       0.02691559 </v>
   <v>      -0.00212148      -0.04147417       0.02545218 </v>
   <v>      -0.00357038      -0.04007623      -0.02236303 </v>
   <v>       0.00504953       0.03854011      -0.00497760 </v>
   <v>       0.01399251       0.03814893      -0.01551620 </v>
   <v>      -0.00201689      -0.04146975      -0.02151474 </v>
   <v>      -0.00445479       0.04357528       0.00621869 </v>
   <v>      -0.00200625      -0.04134870       0.02579847 </v>
   <v>       0.00707318       0.03982996      -0.01547932 </v>
   <v>      -0.00207021      -0.04129052      -0.02106267 </v>
   <v>       0.01532130       0.04171844      -0.00587037 </v>
   <v>       0.00769215       0.04032680       0.00207175 </v>
   <v>       0.00439121       0.03846576      -0.01771172 </v>
   <v>      -0.00353479      -0.03983265       0.02658836 </v>
   <v>      -0.00363673      -0.04001343      -0.02251123 </v>
   <v>       0.00922340       0.04097468      -0.01697462 </v>
   <v>      -0.00347256      -0.04006603      -0.02263744 </v>
   <v>       0.00629149       0.04022171      -0.00137454 </v>
   <v>      -0.00337265      -0.03992524       0.02675764 </v>
   <v>      -0.00013193       0.03983707       0.00241740 </v>
   <v>       0.00676593       0.03871305       0.00630298 </v>
   <v>       0.00672780       0.04348747      -0.01443406 </v>
   <v>      -0.00247283      -0.04011496      -0.02224972 </v>
   <v>       0.00606075       0.03959538      -0.00048874 </v>
   <v>      -0.00226706      -0.04013888       0.02657653 </v>
   <v>       0.00837797       0.03536188      -0.01123126 </v>
   <v>      -0.00254795      -0.04013178      -0.02251250 </v>
   <v>      -0.00464744       0.04066057       0.01748673 </v>
   <v>      -0.00238034      -0.04007849       0.02681855 </v>
   <v>      -0.00336226      -0.04010858       0.02680866 </v>
   <v>       0.00468173       0.04056456       0.00185467 </v>
   <v>       0.00715329       0.04105385      -0.01091428 </v>
   <v>      -0.00254894      -0.04013684      -0.02266602 </v>
   <v>       0.00453795       0.03717526       0.00270956 </v>
   <v>      -0.00246813      -0.04006097       0.02699350 </v>
   <v>      -0.00339640      -0.04027440      -0.02279960 </v>
   <v>       0.00717843       0.03569978      -0.01329634 </v>
   <v>      -0.00260146      -0.03997674      -0.02237862 </v>
   <v>      -0.00213653      -0.04119481       0.02553238 </v>
  </varray>
  <varray name="stress" >
   <v>       4.22864902       0.05266115      -0.00264457 </v>
   <v>       0.05266116      -5.24437943      -0.05367410 </v>
   <v>      -0.00264456      -0.05367418      -1.58456817 </v>
  </varray>
  <energy>
   <i name="e_fr_energy">   -673.28041230 </i>
   <i name="e_wo_entrp">   -673.21554528 </i>
   <i name="e_0_energy">     -0.12973405 </i>
  </energy>
  <time name="totalsc">  136.30  139.79</time>
 </calculation>
 <calculation>
  <scstep>
   <time name="dav">    5.99    6.01</time>
   <time name="total">    6.95    6.99</time>
   <energy>
    <i name="alphaZ">    562.39184220 </i>
    <i name="ewald">  41041.11859077 </i>
    <i name="hartreedc"> -60437.54476348 </i>
    <i name="XCdc">   -699.62436695 </i>
    <i name="pawpsdc">  43110.38848294 </i>
    <i name="pawaedc"> -41278.74662435 </i>
    <i name="eentropy">     -0.12361666 </i>
    <i name="bandstr">  -3336.54670801 </i>
    <i name="atom">  20380.58938199 </i>
    <i name="e_fr_energy">   -658.09778154 </i>
    <i name="e_wo_entrp">   -657.97416489 </i>
    <i name="e_0_energy">   -658.03597321 </i>
   </energy>
  </scstep>
  <scstep>
   <time name="dav">    6.51    6.54</time>
   <time name="total">    7.47    7.54</time>
   <energy>
    <i name="e_fr_energy">   -658.17292739 </i>
    <i name="e_wo_entrp">   -657.96188351 </i>
    <i name="e_0_energy">   -658.06740545 </i>
   </energy>
  </scstep>
  <scstep>
   <time name="dav">    7.52    7.55</time>
   <time name="total">    8.46    8.72</time>
   <energy>
    <i name="e_fr_energy">   -658.14501844 </i>
    <i name="e_wo_entrp">   -658.03891499 </i>
    <i name="e_0_energy">   -658.09196672 </i>
   </energy>
  </scstep>
  <scstep>
   <time name="dav">    7.34    7.48</time>
   <time name="total">    8.24    8.80</time>
   <energy>
    <i name="e_fr_energy">   -658.12772695 </i>
    <i name="e_wo_entrp">   -658.01458291 </i>
    <i name="e_0_energy">   -658.07115493 </i>
   </energy>
  </scstep>
  <scstep>
   <time name="dav">    6.94    6.97</time>
[...]
       <r>   -17.3409     0.0000     4.0000 </r>
       <r>   -17.2690     0.0000     4.0000 </r>
       <r>   -17.1971     0.0000     4.0000 </r>
       <r>   -17.1251     0.0000     4.0000 </r>
       <r>   -17.0532     0.0000     4.0000 </r>
       <r>   -16.9812     0.0000     4.0000 </r>
       <r>   -16.9093     0.0000     4.0000 </r>
       <r>   -16.8373     0.0000     4.0000 </r>
       <r>   -16.7654     0.0000     4.0000 </r>
       <r>   -16.6935     0.0000     4.0000 </r>
       <r>   -16.6215     0.0000     4.0000 </r>
       <r>   -16.5496     0.0000     4.0000 </r>
       <r>   -16.4776     0.0000     4.0000 </r>
       <r>   -16.4057     0.0000     4.0000 </r>
       <r>   -16.3337     0.0000     4.0000 </r>
       <r>   -16.2618     0.0000     4.0000 </r>
       <r>   -16.1899     0.0000     4.0000 </r>
       <r>   -16.1179     0.0003     4.0000 </r>
       <r>   -16.0460     0.0192     4.0014 </r>
       <r>   -15.9740     0.4551     4.0341 </r>
       <r>   -15.9021     4.1607     4.3335 </r>
       <r>   -15.8301    14.9128     5.4063 </r>
       <r>   -15.7582    21.1804     6.9301 </r>
       <r>   -15.6862    11.9595     7.7905 </r>
       <r>   -15.6143     2.6706     7.9827 </r>
       <r>   -15.5424     0.2330     7.9994 </r>
       <r>   -15.4704     0.0078     8.0000 </r>
       <r>   -15.3985     0.0001     8.0000 </r>
       <r>   -15.3265     0.0012     8.0001 </r>
       <r>   -15.2546     0.0629     8.0046 </r>
       <r>   -15.1826     1.3052     8.0985 </r>
       <r>   -15.1107    10.4810     8.8525 </r>
       <r>   -15.0388    33.0591    11.2309 </r>
       <r>   -14.9668    41.4251    14.2112 </r>
       <r>   -14.8949    21.8954    15.7864 </r>
       <r>   -14.8229    14.6367    16.8394 </r>
       <r>   -14.7510    34.1334    19.2950 </r>
       <r>   -14.6790    48.8314    22.8081 </r>
       <r>   -14.6071    54.8907    26.7571 </r>
       <r>   -14.5352    66.9595    31.5744 </r>
       <r>   -14.4632    46.4247    34.9143 </r>
       <r>   -14.3913    13.9202    35.9158 </r>
       <r>   -14.3193     6.7028    36.3980 </r>
       <r>   -14.2474    24.5086    38.1612 </r>
       <r>   -14.1754    54.7428    42.0996 </r>
       <r>   -14.1035    90.3268    48.5980 </r>
       <r>   -14.0316   136.3857    58.4100 </r>
       <r>   -13.9596   129.4777    67.7250 </r>
       <r>   -13.8877    83.2557    73.7146 </r>
       <r>   -13.8157    89.1351    80.1273 </r>
       <r>   -13.7438   126.5166    89.2293 </r>
       <r>   -13.6718   129.3248    98.5333 </r>
       <r>   -13.5999    87.5735   104.8336 </r>
       <r>   -13.5280    35.9479   107.4198 </r>
       <r>   -13.4560     7.3870   107.9512 </r>
       <r>   -13.3841     0.6545   107.9983 </r>
       <r>   -13.3121     0.0232   108.0000 </r>
       <r>   -13.2402     0.0003   108.0000 </r>
       <r>   -13.1682     0.0000   108.0000 </r>
       <r>   -13.0963     0.0000   108.0000 </r>
       <r>   -13.0244     0.0000   108.0000 </r>
       <r>   -12.9524     0.0000   108.0000 </r>
       <r>   -12.8805     0.0000   108.0000 </r>
       <r>   -12.8085     0.0000   108.0000 </r>
       <r>   -12.7366     0.0000   108.0000 </r>
       <r>   -12.6646     0.0000   108.0000 </r>
       <r>   -12.5927     0.0000   108.0000 </r>
       <r>   -12.5208     0.0000   108.0000 </r>
       <r>   -12.4488     0.0000   108.0000 </r>
       <r>   -12.3769     0.0000   108.0000 </r>
       <r>   -12.3049     0.0000   108.0000 </r>
       <r>   -12.2330     0.0000   108.0000 </r>
       <r>   -12.1610     0.0000   108.0000 </r>
       <r>   -12.0891     0.0000   108.0000 </r>
       <r>   -12.0172     0.0000   108.0000 </r>
       <r>   -11.9452     0.0000   108.0000 </r>
       <r>   -11.8733     0.0000   108.0000 </r>
       <r>   -11.8013     0.0000   108.0000 </r>
       <r>   -11.7294     0.0000   108.0000 </r>
       <r>   -11.6574     0.0000   108.0000 </r>
       <r>   -11.5855     0.0000   108.0000 </r>
       <r>   -11.5136     0.0000   108.0000 </r>
       <r>   -11.4416     0.0000   108.0000 </r>
       <r>   -11.3697     0.0000   108.0000 </r>
       <r>   -11.2977     0.0000   108.0000 </r>
       <r>   -11.2258     0.0000   108.0000 </r>
       <r>   -11.1538     0.0000   108.0000 </r>
       <r>   -11.0819     0.0000   108.0000 </r>
       <r>   -11.0100     0.0000   108.0000 </r>
       <r>   -10.9380     0.0000   108.0000 </r>
       <r>   -10.8661     0.0000   108.0000 </r>
       <r>   -10.7941     0.0000   108.0000 </r>
       <r>   -10.7222     0.0000   108.0000 </r>
       <r>   -10.6502     0.0000   108.0000 </r>
       <r>   -10.5783     0.0000   108.0000 </r>
       <r>   -10.5064     0.0000   108.0000 </r>
       <r>   -10.4344     0.0000   108.0000 </r>
       <r>   -10.3625     0.0000   108.0000 </r>
       <r>   -10.2905     0.0000   108.0000 </r>
       <r>   -10.2186     0.0000   108.0000 </r>
       <r>   -10.1466     0.0000   108.0000 </r>
       <r>   -10.0747     0.0000   108.0000 </r>
       <r>   -10.0028     0.0000   108.0000 </r>
       <r>    -9.9308     0.0000   108.0000 </r>
       <r>    -9.8589     0.0011   108.0001 </r>
       <r>    -9.7869     0.0505   108.0037 </r>
       <r>    -9.7150     0.8878   108.0676 </r>
       <r>    -9.6430     6.2010   108.5137 </r>
       <r>    -9.5711    18.0922   109.8153 </r>
       <r>    -9.4992    25.9180   111.6799 </r>
       <r>    -9.4272    27.6367   113.6682 </r>
       <r>    -9.3553    26.6125   115.5828 </r>
       <r>    -9.2833    19.6855   116.9990 </r>
       <r>    -9.2114    10.6666   117.7664 </r>
       <r>    -9.1394     4.8494   118.1153 </r>
       <r>    -9.0675     7.4971   118.6546 </r>
       <r>    -8.9956    10.8135   119.4326 </r>
       <r>    -8.9236     6.3303   119.8880 </r>
       <r>    -8.8517     1.4295   119.9909 </r>
       <r>    -8.7797     0.1230   119.9997 </r>
       <r>    -8.7078     0.0040   120.0000 </r>
       <r>    -8.6358     0.0000   120.0000 </r>
       <r>    -8.5639     0.0000   120.0000 </r>
       <r>    -8.4920     0.0000   120.0000 </r>
       <r>    -8.4200     0.0000   120.0000 </r>
       <r>    -8.3481     0.0000   120.0000 </r>
       <r>    -8.2761     0.0000   120.0000 </r>
       <r>    -8.2042     0.0000   120.0000 </r>
       <r>    -8.1322     0.0000   120.0000 </r>
       <r>    -8.0603     0.0000   120.0000 </r>
       <r>    -7.9883     0.0000   120.0000 </r>
       <r>    -7.9164     0.0000   120.0000 </r>
       <r>    -7.8445     0.0000   120.0000 </r>
       <r>    -7.7725     0.0004   120.0000 </r>
       <r>    -7.7006     0.0219   120.0016 </r>
       <r>    -7.6286     0.5022   120.0377 </r>
       <r>    -7.5567     4.4521   120.3580 </r>
       <r>    -7.4847    15.7808   121.4933 </r>
       <r>    -7.4128    24.9810   123.2906 </r>
       <r>    -7.3409    25.8577   125.1508 </r>
       <r>    -7.2689    23.6683   126.8536 </r>
       <r>    -7.1970    13.5908   127.8314 </r>
       <r>    -7.1250    12.5294   128.7328 </r>
       <r>    -7.0531    46.6430   132.0884 </r>
       <r>    -6.9811   104.1753   139.5831 </r>
       <r>    -6.9092   111.4192   147.5989 </r>
       <r>    -6.8373    70.3505   152.6602 </r>
       <r>    -6.7653    81.3462   158.5124 </r>
       <r>    -6.6934   128.8509   167.7824 </r>
       <r>    -6.6214   124.0237   176.7050 </r>
       <r>    -6.5495    84.1669   182.7602 </r>
       <r>    -6.4775    48.4152   186.2434 </r>
       <r>    -6.4056    22.0135   187.8271 </r>
       <r>    -6.3337    12.2798   188.7105 </r>
       <r>    -6.2617    11.2158   189.5174 </r>
       <r>    -6.1898     7.2371   190.0381 </r>
       <r>    -6.1178    10.0493   190.7611 </r>
       <r>    -6.0459    21.0546   192.2758 </r>
       <r>    -5.9739    29.2657   194.3812 </r>
       <r>    -5.9020    48.4769   197.8688 </r>
       <r>    -5.8301    73.5942   203.1634 </r>
       <r>    -5.7581    68.3188   208.0785 </r>
       <r>    -5.6862    70.4202   213.1447 </r>
       <r>    -5.6142   153.9259   224.2186 </r>
       <r>    -5.5423   236.6373   241.2430 </r>
       <r>    -5.4703   175.8187   253.8919 </r>
       <r>    -5.3984    76.0286   259.3616 </r>
       <r>    -5.3265    57.3968   263.4909 </r>
       <r>    -5.2545    72.3734   268.6977 </r>
       <r>    -5.1826    62.1603   273.1697 </r>
       <r>    -5.1106    31.6947   275.4499 </r>
       <r>    -5.0387    24.6689   277.2247 </r>
       <r>    -4.9667    66.4401   282.0046 </r>
       <r>    -4.8948   108.0137   289.7754 </r>
       <r>    -4.8229    88.4551   296.1391 </r>
       <r>    -4.7509    72.1594   301.3305 </r>
       <r>    -4.6790    81.7000   307.2082 </r>
       <r>    -4.6070    80.9852   313.0345 </r>
       <r>    -4.5351    62.2183   317.5107 </r>
       <r>    -4.4631    34.9440   320.0247 </r>
       <r>    -4.3912    34.2337   322.4876 </r>
       <r>    -4.3193    56.0141   326.5174 </r>
       <r>    -4.2473    65.0189   331.1950 </r>
       <r>    -4.1754    59.6701   335.4879 </r>
       <r>    -4.1034    54.1732   339.3853 </r>
       <r>    -4.0315    43.0315   342.4811 </r>
       <r>    -3.9595    17.8438   343.7648 </r>
       <r>    -3.8876     3.2664   343.9998 </r>
       <r>    -3.8157     3.2155   344.2312 </r>
       <r>    -3.7437    17.7169   345.5058 </r>
       <r>    -3.6718    45.4800   348.7777 </r>
       <r>    -3.5998    71.7427   353.9391 </r>
       <r>    -3.5279   111.8133   361.9833 </r>
       <r>    -3.4559   146.8717   372.5497 </r>
       <r>    -3.3840   134.4691   382.2238 </r>
       <r>    -3.3121   104.0151   389.7070 </r>
       <r>    -3.2401    83.2210   395.6941 </r>
       <r>    -3.1682    70.0422   400.7332 </r>
       <r>    -3.0962    83.2662   406.7236 </r>
       <r>    -3.0243   108.3634   414.5196 </r>
       <r>    -2.9523    94.6663   421.3301 </r>
       <r>    -2.8804    53.3273   425.1667 </r>
       <r>    -2.8085    37.4716   427.8625 </r>
       <r>    -2.7365    50.4690   431.4934 </r>
       <r>    -2.6646    74.3261   436.8406 </r>
       <r>    -2.5926    76.9265   442.3749 </r>
       <r>    -2.5207    58.5058   446.5840 </r>
       <r>    -2.4487    47.3953   449.9938 </r>
       <r>    -2.3768    65.8096   454.7283 </r>
       <r>    -2.3049    79.3678   460.4383 </r>
       <r>    -2.2329    73.1071   465.6978 </r>
       <r>    -2.1610    55.7929   469.7117 </r>
       <r>    -2.0890    26.5354   471.6208 </r>
       <r>    -2.0171    12.1109   472.4921 </r>
       <r>    -1.9451    27.4333   474.4657 </r>
       <r>    -1.8732    43.1844   477.5725 </r>
       <r>    -1.8013    30.2133   479.7461 </r>
       <r>    -1.7293    20.2956   481.2063 </r>
       <r>    -1.6574    22.1763   482.8017 </r>
       <r>    -1.5854    13.2224   483.7530 </r>
       <r>    -1.5135     3.1375   483.9787 </r>
       <r>    -1.4415     0.2863   483.9993 </r>
       <r>    -1.3696     0.0099   484.0000 </r>
       <r>    -1.2977     0.0001   484.0000 </r>
       <r>    -1.2257     0.0000   484.0000 </r>
       <r>    -1.1538     0.0000   484.0000 </r>
       <r>    -1.0818     0.0000   484.0000 </r>
       <r>    -1.0099     0.0000   484.0000 </r>
       <r>    -0.9379     0.0000   484.0000 </r>
       <r>    -0.8660     0.0000   484.0000 </r>
       <r>    -0.7940     0.0000   484.0000 </r>
       <r>    -0.7221     0.0000   484.0000 </r>
       <r>    -0.6502     0.0000   484.0000 </r>
       <r>    -0.5782     0.0000   484.0000 </r>
       <r>    -0.5063     0.0003   484.0000 </r>
       <r>    -0.4343     0.0186   484.0014 </r>
       <r>    -0.3624     0.3828   484.0289 </r>
       <r>    -0.2904     2.9781   484.2432 </r>
       <r>    -0.2185     8.9216   484.8850 </r>
       <r>    -0.1466    11.1584   485.6878 </r>
       <r>    -0.0746    11.0402   486.4820 </r>
       <r>    -0.0027    19.6699   487.8971 </r>
       <r>     0.0693    30.6799   490.1044 </r>
       <r>     0.1412    43.2880   493.2186 </r>
       <r>     0.2132    46.0882   496.5343 </r>
       <r>     0.2851    38.9794   499.3386 </r>
       <r>     0.3570    60.6491   503.7019 </r>
       <r>     0.4290   115.3526   512.0007 </r>
       <r>     0.5009   166.8722   524.0060 </r>
       <r>     0.5729   153.8593   535.0751 </r>
       <r>     0.6448   134.8084   544.7736 </r>
       <r>     0.7168   113.2430   552.9207 </r>
       <r>     0.7887    56.0349   556.9520 </r>
       <r>     0.8606    17.7834   558.2314 </r>
       <r>     0.9326    28.1228   560.2546 </r>
       <r>     1.0045    74.5682   565.6193 </r>
       <r>     1.0765   110.8684   573.5955 </r>
       <r>     1.1484   112.8684   581.7156 </r>
       <r>     1.2204   104.7697   589.2530 </r>
       <r>     1.2923    87.6715   595.5604 </r>
       <r>     1.3642    47.3235   598.9650 </r>
       <r>     1.4362    12.7717   599.8838 </r>
       <r>     1.5081     1.5361   599.9943 </r>
       <r>     1.5801     0.0773   599.9999 </r>
       <r>     1.6520     0.0016   600.0000 </r>
       <r>     1.7240     0.0000   600.0000 </r>
       <r>     1.7959     0.0000   600.0000 </r>
       <r>     1.8678     0.0000   600.0000 </r>
       <r>     1.9398     0.0000   600.0000 </r>
       <r>     2.0117     0.0000   600.0000 </r>
       <r>     2.0837     0.0000   600.0000 </r>
       <r>     2.1556     0.0000   600.0000 </r>
       <r>     2.2276     0.0000   600.0000 </r>
       <r>     2.2995     0.0000   600.0000 </r>
      </set>
     </set>
    </array>
   </total>
  </dos>
 </calculation>
 <structure name="finalpos" >
  <crystal>
   <varray name="basis" >
    <v>       9.57094646       0.00000000       0.00000000 </v>
    <v>      -6.38062803      11.05157872       0.00000000 </v>
    <v>       0.00000000       0.00000000      34.88026251 </v>
   </varray>
   <i name="volume">   3689.42726549 </i>
   <varray name="rec_basis" >
    <v>       0.10448287       0.06032318       0.00000000 </v>
    <v>       0.00000000       0.09048481       0.00000000 </v>
    <v>       0.00000000       0.00000000       0.02866951 </v>
   </varray>
  </crystal>
  <varray name="positions" >
   <v>       0.05480320       0.69182027       0.04666942 </v>
   <v>       0.07703015       0.59705639       0.06123233 </v>
   <v>       0.00688274       0.74033289       0.07748993 </v>
   <v>       0.99971186       0.67521748       0.11177813 </v>
   <v>       0.04347917       0.58571558       0.10156067 </v>
   <v>       0.65978535       0.40357983       0.04050609 </v>
   <v>       0.60737196       0.43368972       0.10338076 </v>
   <v>       0.65881657       0.36696349       0.07975001 </v>
   <v>       0.57647677       0.50970314       0.07917323 </v>
   <v>       0.60881573       0.49201786       0.04061917 </v>
   <v>       0.82913947       0.55110091       0.07354833 </v>
   <v>       0.05197602       0.52248676       0.12101914 </v>
   <v>       0.68735748       0.29901271       0.08961168 </v>
   <v>       0.54260595       0.57508514       0.08881251 </v>
   <v>       0.59685703       0.42893672       0.13444635 </v>
   <v>       0.69008466       0.36885762       0.01529669 </v>
   <v>       0.10845886       0.54018137       0.04432309 </v>
   <v>       0.06444321       0.71835857       0.01671347 </v>
   <v>       0.97947346       0.81320236       0.07543542 </v>
   <v>       0.97030610       0.69259047       0.14027964 </v>
   <v>       0.60088509       0.54009626       0.01570972 </v>
   <v>       0.55597710       0.08392176       0.24991505 </v>
   <v>       0.55599082       0.33391772       0.24989888 </v>
   <v>       0.44408053       0.41616021       0.74999896 </v>
   <v>       0.55591038       0.58383553       0.25012143 </v>
   <v>       0.44408172       0.66616315       0.74999953 </v>
   <v>       0.55592187       0.83382116       0.25002017 </v>
   <v>       0.44408378       0.91616376       0.74999928 </v>
   <v>       0.88926801       0.33386098       0.24996244 </v>
   <v>       0.77742495       0.16612878       0.74999857 </v>
   <v>       0.77742538       0.41612876       0.74999872 </v>
   <v>       0.88951214       0.58391347       0.25002713 </v>
   <v>       0.77742570       0.66613088       0.74999869 </v>
   <v>       0.88934057       0.83388456       0.24999357 </v>
   <v>       0.77742571       0.91613032       0.74999911 </v>
   <v>       0.11074226       0.91614079       0.74999881 </v>
   <v>       0.88923237       0.08382726       0.24992223 </v>
   <v>       0.22281076       0.83388331       0.25009177 </v>
   <v>       0.44408201       0.16616141       0.74999876 </v>
   <v>       0.22285372       0.58367214       0.25026428 </v>
   <v>       0.11074072       0.41613833       0.74999884 </v>
   <v>       0.22229028       0.33357693       0.25002775 </v>
   <v>       0.22259832       0.08386965       0.24991208 </v>
   <v>       0.11073912       0.16613755       0.74999860 </v>
   <v>       0.11074185       0.66614061       0.74999899 </v>
   <v>       0.77749236       0.16638819       0.29449580 </v>
   <v>       0.88912763       0.08358905       0.79457121 </v>
   <v>       0.77757615       0.16645923       0.20534368 </v>
   <v>       0.88912643       0.08358570       0.70542571 </v>
   <v>       0.22246355       0.08360476       0.70542623 </v>
   <v>       0.11075652       0.16632731       0.20534487 </v>
   <v>       0.77743805       0.41635224       0.29450549 </v>
   <v>       0.88912652       0.33358715       0.79457098 </v>
   <v>       0.11202219       0.66625212       0.20580608 </v>
   <v>       0.55579588       0.83361927       0.70542707 </v>
   <v>       0.88912764       0.33358617       0.70542595 </v>
   <v>       0.22246642       0.08360799       0.79457051 </v>
   <v>       0.11067762       0.16610471       0.29453750 </v>
   <v>       0.77780721       0.66646659       0.29459588 </v>
   <v>       0.88912697       0.58358888       0.79457088 </v>
   <v>       0.77725850       0.66634491       0.20551213 </v>
   <v>       0.88912804       0.58358744       0.70542633 </v>
   <v>       0.77763768       0.91649401       0.29453887 </v>
   <v>       0.88912921       0.83359041       0.79457102 </v>
   <v>       0.77795637       0.41667936       0.20534771 </v>
   <v>       0.44412238       0.91628005       0.20541246 </v>
   <v>       0.44454445       0.91665602       0.29458344 </v>
   <v>       0.22246312       0.58360522       0.70542710 </v>
   <v>       0.22246467       0.58360693       0.79457059 </v>
   <v>       0.11096425       0.91656075       0.29455330 </v>
   <v>       0.22246641       0.83360908       0.79457071 </v>
   <v>       0.11093068       0.91614910       0.20539239 </v>
   <v>       0.22246426       0.83360575       0.70542679 </v>
   <v>       0.11092318       0.66640772       0.29472274 </v>
   <v>       0.77738341       0.91624865       0.20539201 </v>
   <v>       0.44427191       0.16649992       0.29445825 </v>
   <v>       0.55579787       0.08362130       0.79457072 </v>
   <v>       0.44425134       0.16645146       0.20530791 </v>
   <v>       0.55579579       0.08361849       0.70542651 </v>
   <v>       0.44407278       0.41613574       0.29457467 </v>
   <v>       0.55579661       0.33361907       0.79457056 </v>
   <v>       0.44380145       0.41653799       0.20553458 </v>
   <v>       0.55579603       0.33361878       0.70542652 </v>
   <v>       0.22246216       0.33360390       0.70542647 </v>
   <v>       0.11107832       0.41659154       0.20547123 </v>
   <v>       0.44468986       0.66660107       0.29472849 </v>
   <v>       0.55579713       0.58361990       0.79457050 </v>
   <v>       0.44404094       0.66621653       0.20551873 </v>
   <v>       0.55579513       0.58361949       0.70542703 </v>
   <v>       0.22246390       0.33360537       0.79457046 </v>
   <v>       0.11053257       0.41591756       0.29466332 </v>
   <v>       0.55579792       0.83362207       0.79457088 </v>
   <v>       0.88912806       0.83358787       0.70542622 </v>
  </varray>
 </structure>
</modeling>
