basalPlane                              
           1
     9.570946    0.000000    0.000000
    -6.380628   11.051579    0.000000
     0.000000    0.000000   34.880263
   C    Cr   H    Mo   S 
  10   1  10  24  48
Direct configuration=     1
   0.05416014  0.69156758  0.04681121
   0.07657862  0.59678423  0.06127783
   0.00664891  0.74009994  0.07774550
   0.99986498  0.67487306  0.11206480
   0.04332602  0.58533633  0.10160939
   0.65992283  0.40382372  0.04037140
   0.60787824  0.43384688  0.10333574
   0.65895238  0.36700313  0.07958920
   0.57725739  0.51015969  0.07913280
   0.60934200  0.49246893  0.04054148
   0.82916020  0.55121893  0.07356844
   0.05186470  0.52187656  0.12091912
   0.68712311  0.29872295  0.08931417
   0.54374838  0.57574045  0.08876841
   0.59687885  0.42865341  0.13439679
   0.68979075  0.36886905  0.01514250
   0.10783248  0.53988721  0.04433779
   0.06382815  0.71831810  0.01687256
   0.97931746  0.81300377  0.07558596
   0.97224566  0.69255851  0.14075965
   0.60107795  0.54053521  0.01566253
   0.55555566  0.08333325  0.25000928
   0.55555566  0.33333325  0.25000928
   0.44444432  0.41666674  0.74999076
   0.55555566  0.58333325  0.25000928
   0.44444432  0.66666674  0.74999076
   0.55555566  0.83333325  0.25000928
   0.44444432  0.91666674  0.74999076
   0.88888899  0.33333325  0.25000928
   0.77777765  0.16666674  0.74999076
   0.77777765  0.41666674  0.74999076
   0.88888899  0.58333325  0.25000928
   0.77777765  0.66666674  0.74999076
   0.88888899  0.83333325  0.25000928
   0.77777765  0.91666674  0.74999076
   0.11111099  0.91666674  0.74999076
   0.88888899  0.08333325  0.25000928
   0.22222233  0.83333325  0.25000928
   0.44444432  0.16666674  0.74999076
   0.22222233  0.58333325  0.25000928
   0.11111099  0.41666674  0.74999076
   0.22222233  0.33333325  0.25000928
   0.22222233  0.08333325  0.25000928
   0.11111099  0.16666674  0.74999076
   0.11111099  0.66666674  0.74999076
   0.77777765  0.16666674  0.29487388
   0.88888899  0.08333325  0.79485533
   0.77777765  0.16666674  0.20514467
   0.88888899  0.08333325  0.70512613
   0.22222233  0.08333325  0.70512613
   0.11111099  0.16666674  0.20514467
   0.77777765  0.41666674  0.29487388
   0.88888899  0.33333325  0.79485533
   0.11111099  0.66666674  0.20514467
   0.55555566  0.83333325  0.70512613
   0.88888899  0.33333325  0.70512613
   0.22222233  0.08333325  0.79485533
   0.11111099  0.16666674  0.29487388
   0.77777765  0.66666674  0.29487388
   0.88888899  0.58333325  0.79485533
   0.77777765  0.66666674  0.20514467
   0.88888899  0.58333325  0.70512613
   0.77777765  0.91666674  0.29487388
   0.88888899  0.83333325  0.79485533
   0.77777765  0.41666674  0.20514467
   0.44444432  0.91666674  0.20514467
   0.44444432  0.91666674  0.29487388
   0.22222233  0.58333325  0.70512613
   0.22222233  0.58333325  0.79485533
   0.11111099  0.91666674  0.29487388
   0.22222233  0.83333325  0.79485533
   0.11111099  0.91666674  0.20514467
   0.22222233  0.83333325  0.70512613
   0.11111099  0.66666674  0.29487388
   0.77777765  0.91666674  0.20514467
   0.44444432  0.16666674  0.29487388
   0.55555566  0.08333325  0.79485533
   0.44444432  0.16666674  0.20514467
   0.55555566  0.08333325  0.70512613
   0.44444432  0.41666674  0.29487388
   0.55555566  0.33333325  0.79485533
   0.44444432  0.41666674  0.20514467
   0.55555566  0.33333325  0.70512613
   0.22222233  0.33333325  0.70512613
   0.11111099  0.41666674  0.20514467
   0.44444432  0.66666674  0.29487388
   0.55555566  0.58333325  0.79485533
   0.44444432  0.66666674  0.20514467
   0.55555566  0.58333325  0.70512613
   0.22222233  0.33333325  0.79485533
   0.11111099  0.41666674  0.29487388
   0.55555566  0.83333325  0.79485533
   0.88888899  0.83333325  0.70512613
Direct configuration=     2
   0.05453839  0.69171364  0.04687499
   0.07665553  0.59695583  0.06127563
   0.00666551  0.74002118  0.07771336
   0.99972446  0.67482241  0.11191503
   0.04337377  0.58546380  0.10158045
   0.65995906  0.40393842  0.04036509
   0.60774152  0.43386594  0.10324286
   0.65899042  0.36716159  0.07962248
   0.57713133  0.50999609  0.07911441
   0.60900596  0.49227226  0.04061285
   0.82926217  0.55109314  0.07372638
   0.05182104  0.52180012  0.12094932
   0.68717293  0.29874138  0.08933189
   0.54369618  0.57571657  0.08877386
   0.59695322  0.42870593  0.13439318
   0.68981870  0.36888614  0.01515124
   0.10785677  0.53987451  0.04432384
   0.06380683  0.71831516  0.01685859
   0.97932442  0.81300454  0.07560226
   0.97207580  0.69251919  0.14065304
   0.60113522  0.54053755  0.01565979
   0.55618863  0.08413074  0.25000158
   0.55616092  0.33408479  0.24998854
   0.44385530  0.41589524  0.74999618
   0.55617659  0.58408611  0.25001209
   0.44385519  0.66589663  0.74999652
   0.55613455  0.83407074  0.25000034
   0.44385664  0.91589695  0.74999651
   0.88950056  0.33408351  0.25000076
   0.77721135  0.16588770  0.74999652
   0.77721232  0.41588613  0.74999630
   0.88956576  0.58411230  0.24997582
   0.77721325  0.66588975  0.74999639
   0.88953143  0.83410653  0.25000312
   0.77721216  0.91588762  0.74999679
   0.11051546  0.91589650  0.74999612
   0.88953758  0.08411288  0.24999650
   0.22277541  0.83402965  0.24998607
   0.44385566  0.16589412  0.74999623
   0.22275747  0.58411425  0.25001622
   0.11051383  0.41589504  0.74999600
   0.22278132  0.33400790  0.25000133
   0.22282657  0.08416432  0.25000671
   0.11051370  0.16589375  0.74999600
   0.11051558  0.66589594  0.74999601
   0.77746933  0.16628558  0.29458919
   0.88918128  0.08372063  0.79459521
   0.77745679  0.16627895  0.20542297
   0.88918046  0.08371951  0.70538206
   0.22252166  0.08372027  0.70538272
   0.11078017  0.16626292  0.20542121
   0.77746440  0.41628904  0.29458833
   0.88918263  0.33372030  0.79459492
   0.11119688  0.66624695  0.20561484
   0.55584780  0.83371911  0.70538262
   0.88918198  0.33371962  0.70538244
   0.22252238  0.08372177  0.79459474
   0.11081549  0.16629391  0.29459079
   0.77746633  0.66627349  0.29458922
   0.88918137  0.58372081  0.79459513
   0.77732128  0.66630790  0.20545932
   0.88918035  0.58371955  0.70538227
   0.77747109  0.91628450  0.29459205
   0.88918306  0.83372103  0.79459478
   0.77754985  0.41629934  0.20541521
   0.44413644  0.91627999  0.20542044
   0.44413332  0.91628231  0.29459324
   0.22252068  0.58371975  0.70538265
   0.22252175  0.58372136  0.79459478
   0.11080287  0.91627737  0.29459065
   0.22252103  0.83372295  0.79459514
   0.11079001  0.91627185  0.20540719
   0.22251986  0.83372091  0.70538229
   0.11079522  0.66628091  0.29459754
   0.77745788  0.91627718  0.20542465
   0.44413818  0.16628461  0.29458843
   0.55584874  0.08372216  0.79459461
   0.44414086  0.16627778  0.20541639
   0.55584796  0.08372076  0.70538281
   0.44413664  0.41629676  0.29458908
   0.55584833  0.33371927  0.79459487
   0.44400796  0.41629876  0.20548919
   0.55584797  0.33371840  0.70538262
   0.22251896  0.33372071  0.70538208
   0.11078049  0.41630110  0.20540817
   0.44414264  0.66628505  0.29459033
   0.55585000  0.58372276  0.79459488
   0.44413353  0.66629069  0.20540837
   0.55584923  0.58372130  0.70538255
   0.22251943  0.33372173  0.79459532
   0.11082661  0.41630083  0.29458719
   0.55584894  0.83372108  0.79459467
   0.88918188  0.83371933  0.70538253
Direct configuration=     3
   0.05436264  0.69164578  0.04684536
   0.07661979  0.59687610  0.06127665
   0.00665780  0.74005777  0.07772829
   0.99978975  0.67484594  0.11198462
   0.04335159  0.58540457  0.10159389
   0.65994223  0.40388513  0.04036802
   0.60780505  0.43385708  0.10328601
   0.65897275  0.36708797  0.07960702
   0.57718990  0.51007211  0.07912295
   0.60916210  0.49236364  0.04057969
   0.82921479  0.55115159  0.07365300
   0.05184132  0.52183563  0.12093529
   0.68714978  0.29873282  0.08932366
   0.54372043  0.57572767  0.08877133
   0.59691867  0.42868153  0.13439486
   0.68980572  0.36887820  0.01514718
   0.10784548  0.53988041  0.04433032
   0.06381673  0.71831653  0.01686508
   0.97932118  0.81300418  0.07559469
   0.97215472  0.69253746  0.14070257
   0.60110861  0.54053646  0.01566107
   0.55589453  0.08376020  0.25000516
   0.55587969  0.33373560  0.24999818
   0.44412898  0.41625371  0.74999366
   0.55588808  0.58373630  0.25001079
   0.44412892  0.66625445  0.74999384
   0.55586557  0.83372807  0.25000450
   0.44412970  0.91625462  0.74999384
   0.88921640  0.33373491  0.25000472
   0.77747448  0.16624967  0.74999384
   0.77747499  0.41624883  0.74999372
   0.88925131  0.58375032  0.24999137
   0.77747549  0.66625077  0.74999377
   0.88923293  0.83374723  0.25000598
   0.77747491  0.91624963  0.74999399
   0.11079217  0.91625438  0.74999363
   0.88923622  0.08375063  0.25000244
   0.22251842  0.83370608  0.24999686
   0.44412917  0.16625311  0.74999369
   0.22250882  0.58375137  0.25001300
   0.11079129  0.41625360  0.74999356
   0.22252159  0.33369443  0.25000503
   0.22254581  0.08377817  0.25000791
   0.11079122  0.16625291  0.74999357
   0.11079223  0.66625408  0.74999357
   0.77761259  0.16646268  0.29472147
   0.88904547  0.08354064  0.79471607
   0.77760588  0.16645913  0.20529366
   0.88904503  0.08354004  0.70526314
   0.22238258  0.08354044  0.70526350
   0.11093388  0.16645055  0.20529272
   0.77760995  0.41646453  0.29472101
   0.88904619  0.33354046  0.79471592
   0.11115697  0.66644200  0.20539638
   0.55571206  0.83353982  0.70526344
   0.88904585  0.33354009  0.70526335
   0.22238296  0.08354125  0.79471582
   0.11095279  0.16646714  0.29472233
   0.77761098  0.66645621  0.29472149
   0.88904552  0.58354073  0.79471603
   0.77753333  0.66647463  0.20531312
   0.88904498  0.58354006  0.70526326
   0.77761353  0.91646211  0.29472300
   0.88904642  0.83354085  0.79471584
   0.77765570  0.41647005  0.20528951
   0.44427949  0.91645969  0.20529231
   0.44427782  0.91646093  0.29472364
   0.22238205  0.58354016  0.70526346
   0.22238263  0.58354103  0.79471584
   0.11094603  0.91645829  0.29472225
   0.22238224  0.83354188  0.79471604
   0.11093915  0.91645533  0.20528521
   0.22238161  0.83354078  0.70526327
   0.11094193  0.66646018  0.29472594
   0.77760646  0.91645819  0.20529456
   0.44428042  0.16646216  0.29472106
   0.55571256  0.08354146  0.79471575
   0.44428186  0.16645851  0.20529014
   0.55571215  0.08354071  0.70526355
   0.44427960  0.41646867  0.29472141
   0.55571234  0.33353991  0.79471589
   0.44421071  0.41646974  0.20532911
   0.55571215  0.33353944  0.70526345
   0.22238113  0.33354068  0.70526316
   0.11093405  0.41647099  0.20528574
   0.44428281  0.66646240  0.29472208
   0.55571324  0.58354178  0.79471589
   0.44427793  0.66646542  0.20528585
   0.55571283  0.58354100  0.70526341
   0.22238139  0.33354123  0.79471613
   0.11095874  0.41647084  0.29472040
   0.55571267  0.83354088  0.79471578
   0.88904580  0.83353994  0.70526340
Direct configuration=     4
   0.05449185  0.69169567  0.04686715
   0.07664607  0.59693471  0.06127590
   0.00666347  0.74003087  0.07771731
   0.99974175  0.67482864  0.11193346
   0.04336790  0.58544811  0.10158401
   0.65995460  0.40392431  0.04036586
   0.60775835  0.43386359  0.10325428
   0.65898574  0.36714209  0.07961839
   0.57714684  0.51001622  0.07911667
   0.60904731  0.49229646  0.04060407
   0.82924962  0.55110862  0.07370695
   0.05182641  0.52180952  0.12094561
   0.68716680  0.29873911  0.08932971
   0.54370260  0.57571951  0.08877319
   0.59694407  0.42869947  0.13439362
   0.68981526  0.36888403  0.01515017
   0.10785378  0.53987607  0.04432555
   0.06380945  0.71831553  0.01686031
   0.97932356  0.81300444  0.07560026
   0.97209670  0.69252403  0.14066616
   0.60112817  0.54053726  0.01566013
   0.55611075  0.08403262  0.25000253
   0.55608645  0.33399232  0.24999109
   0.44392778  0.41599016  0.74999552
   0.55610019  0.58399348  0.25001175
   0.44392768  0.66599139  0.74999581
   0.55606332  0.83398000  0.25000144
   0.44392895  0.91599167  0.74999580
   0.88942531  0.33399120  0.25000180
   0.77728103  0.16598355  0.74999581
   0.77728188  0.41598217  0.74999562
   0.88948249  0.58401644  0.24997994
   0.77728269  0.66598535  0.74999569
   0.88945238  0.83401138  0.25000388
   0.77728174  0.91598348  0.74999605
   0.11058874  0.91599127  0.74999546
   0.88945777  0.08401695  0.24999807
   0.22270735  0.83394397  0.24998893
   0.44392809  0.16598918  0.74999556
   0.22269163  0.58401815  0.25001537
   0.11058730  0.41598999  0.74999535
   0.22271254  0.33392489  0.25000231
   0.22275222  0.08406206  0.25000703
   0.11058719  0.16598886  0.74999536
   0.11058884  0.66599078  0.74999536
   0.77750726  0.16633248  0.29462422
   0.88914532  0.08367297  0.79462722
   0.77749627  0.16632666  0.20538873
   0.88914459  0.08367198  0.70535057
   0.22248483  0.08367265  0.70535115
   0.11082087  0.16631260  0.20538718
   0.77750295  0.41633551  0.29462346
   0.88914650  0.33367268  0.79462696
   0.11118631  0.66629860  0.20555699
   0.55581185  0.83367163  0.70535106
   0.88914593  0.33367208  0.70535090
   0.22248546  0.08367396  0.79462680
   0.11085185  0.16633979  0.29462562
   0.77750464  0.66632188  0.29462425
   0.88914540  0.58367312  0.79462715
   0.77737743  0.66635205  0.20542061
   0.88914450  0.58367202  0.70535075
   0.77750881  0.91633153  0.29462673
   0.88914687  0.83367332  0.79462683
   0.77757788  0.41634454  0.20538192
   0.44417432  0.91632758  0.20538651
   0.44417158  0.91632961  0.29462777
   0.22248397  0.58367219  0.70535109
   0.22248491  0.58367361  0.79462684
   0.11084078  0.91632528  0.29462550
   0.22248427  0.83367500  0.79462716
   0.11082951  0.91632044  0.20537489
   0.22248325  0.83367321  0.70535077
   0.11083407  0.66632838  0.29463154
   0.77749723  0.91632511  0.20539020
   0.44417585  0.16633163  0.29462355
   0.55581268  0.08367431  0.79462669
   0.44417819  0.16632564  0.20538296
   0.55581200  0.08367308  0.70535123
   0.44417449  0.41634228  0.29462412
   0.55581232  0.33367177  0.79462692
   0.44406165  0.41634404  0.20544680
   0.55581200  0.33367101  0.70535106
   0.22248246  0.33367303  0.70535058
   0.11082115  0.41634609  0.20537575
   0.44417976  0.66633201  0.29462522
   0.55581378  0.58367483  0.79462693
   0.44417177  0.66633696  0.20537592
   0.55581311  0.58367355  0.70535100
   0.22248288  0.33367393  0.79462731
   0.11086160  0.41634585  0.29462247
   0.55581285  0.83367336  0.79462675
   0.88914585  0.83367183  0.70535099
Direct configuration=     5
   0.05463339  0.69198987  0.04665155
   0.07691224  0.59657787  0.06124561
   0.00659603  0.74041119  0.07768214
   0.99973075  0.67497387  0.11211882
   0.04362050  0.58517498  0.10167550
   0.65994116  0.40378476  0.04041140
   0.60754797  0.43365879  0.10351673
   0.65905542  0.36679539  0.07955973
   0.57682427  0.51039588  0.07918103
   0.60901127  0.49239551  0.04039685
   0.82912073  0.55111003  0.07365405
   0.05178051  0.52199830  0.12091373
   0.68713773  0.29889021  0.08934187
   0.54369550  0.57554262  0.08876102
   0.59700804  0.42876642  0.13427470
   0.68985295  0.36893347  0.01516452
   0.10781626  0.54001526  0.04435150
   0.06379318  0.71824749  0.01694252
   0.97936248  0.81290590  0.07561672
   0.97198658  0.69246558  0.14050540
   0.60117429  0.54040730  0.01573832
   0.55598956  0.08392208  0.25000231
   0.55600930  0.33390172  0.24999121
   0.44400540  0.41609444  0.74999095
   0.55592998  0.58389550  0.25003398
   0.44400621  0.66609601  0.74999112
   0.55596480  0.83388988  0.25000166
   0.44400650  0.91609573  0.74999106
   0.88930646  0.33388461  0.25000181
   0.77735288  0.16608856  0.74999078
   0.77735208  0.41608845  0.74999075
   0.88933955  0.58389945  0.25000002
   0.77735313  0.66608974  0.74999071
   0.88933408  0.83392313  0.25000973
   0.77735250  0.91608957  0.74999096
   0.11067376  0.91609294  0.74999105
   0.88934548  0.08392031  0.24999675
   0.22267951  0.83391432  0.25001905
   0.44400604  0.16609501  0.74999091
   0.22271946  0.58384800  0.25006290
   0.11067291  0.41609142  0.74999102
   0.22253123  0.33381124  0.25000902
   0.22265621  0.08394655  0.25000134
   0.11067173  0.16609156  0.74999093
   0.11067319  0.66609307  0.74999100
   0.77756609  0.16638529  0.29453546
   0.88911009  0.08361862  0.79453330
   0.77754319  0.16637470  0.20546327
   0.88910902  0.08361708  0.70544890
   0.22244705  0.08362341  0.70545018
   0.11085170  0.16634387  0.20545441
   0.77755493  0.41639247  0.29452341
   0.88911066  0.33361802  0.79453326
   0.11147274  0.66632106  0.20571135
   0.55577837  0.83362247  0.70545077
   0.88911026  0.33361727  0.70544894
   0.22244813  0.08362489  0.79453178
   0.11089321  0.16638679  0.29454686
   0.77757999  0.66636309  0.29453279
   0.88911037  0.58361878  0.79453293
   0.77734913  0.66642235  0.20550858
   0.88910960  0.58361749  0.70544917
   0.77755886  0.91638042  0.29453564
   0.88911211  0.83361982  0.79453316
   0.77768904  0.41640446  0.20544402
   0.44422992  0.91637857  0.20545966
   0.44420683  0.91637383  0.29453439
   0.22244639  0.58362340  0.70545039
   0.22244743  0.58362473  0.79453160
   0.11090243  0.91637721  0.29453246
   0.22244770  0.83362610  0.79453177
   0.11087382  0.91636868  0.20544046
   0.22244647  0.83362418  0.70545022
   0.11085117  0.66637711  0.29456338
   0.77753965  0.91636876  0.20546941
   0.44423453  0.16639531  0.29453285
   0.55577911  0.08362452  0.79453166
   0.44422506  0.16637331  0.20545180
   0.55577856  0.08362285  0.70545057
   0.44421912  0.41637816  0.29453739
   0.55577834  0.33362218  0.79453146
   0.44403054  0.41639972  0.20555584
   0.55577803  0.33362137  0.70545069
   0.22244524  0.33362332  0.70545010
   0.11085652  0.41640213  0.20544539
   0.44423628  0.66638741  0.29453943
   0.55577981  0.58362494  0.79453136
   0.44420524  0.66637964  0.20544653
   0.55577912  0.58362363  0.70545084
   0.22244590  0.33362400  0.79453172
   0.11090728  0.41638316  0.29453304
   0.55577930  0.83362466  0.79453148
   0.88911086  0.83361803  0.70544912
Direct configuration=     6
   0.05453770  0.69179097  0.04679731
   0.07673229  0.59681912  0.06126609
   0.00664162  0.74015407  0.07770592
   0.99973818  0.67487569  0.11199350
   0.04344973  0.58535964  0.10161364
   0.65995025  0.40387911  0.04038061
   0.60769020  0.43379725  0.10333930
   0.65900831  0.36702978  0.07959939
   0.57704235  0.51013921  0.07913752
   0.60903563  0.49232855  0.04053695
   0.82920787  0.55110907  0.07368982
   0.05181154  0.52187067  0.12093528
   0.68715738  0.29878806  0.08933365
   0.54370030  0.57566221  0.08876925
   0.59696479  0.42872116  0.13435510
   0.68982747  0.36890005  0.01515482
   0.10784162  0.53992116  0.04433396
   0.06380418  0.71829349  0.01688694
   0.97933617  0.81297252  0.07560559
   0.97206103  0.69250509  0.14061408
   0.60114311  0.54049516  0.01568546
   0.55607149  0.08399681  0.25000246
   0.55606146  0.33396297  0.24999113
   0.44395292  0.41602394  0.74999404
   0.55604505  0.58396174  0.25001895
   0.44395312  0.66602528  0.74999429
   0.55603140  0.83395081  0.25000151
   0.44395407  0.91602538  0.74999426
   0.88938681  0.33395667  0.25000181
   0.77730430  0.16601757  0.74999419
   0.77730462  0.41601660  0.74999404
   0.88943619  0.58397854  0.24998644
   0.77730551  0.66601917  0.74999408
   0.88941406  0.83398280  0.25000578
   0.77730466  0.91601785  0.74999440
   0.11061628  0.91602420  0.74999403
   0.88942140  0.08398565  0.24999765
   0.22269834  0.83393436  0.24999868
   0.44395334  0.16602347  0.74999405
   0.22270064  0.58396303  0.25003077
   0.11061503  0.41602285  0.74999395
   0.22265381  0.33388807  0.25000448
   0.22272112  0.08402464  0.25000519
   0.11061458  0.16602213  0.74999392
   0.11061616  0.66602392  0.74999395
   0.77752632  0.16634958  0.29459547
   0.88913391  0.08365536  0.79459679
   0.77751147  0.16634222  0.20541287
   0.88913307  0.08365420  0.70538242
   0.22247259  0.08365670  0.70538323
   0.11083086  0.16632273  0.20540896
   0.77751978  0.41635396  0.29459105
   0.88913489  0.33365497  0.79459661
   0.11127910  0.66630587  0.20560699
   0.55580101  0.83365571  0.70538336
   0.88913438  0.33365432  0.70538266
   0.22247337  0.08365807  0.79459602
   0.11086524  0.16635501  0.29460011
   0.77752905  0.66633523  0.29459462
   0.88913405  0.58365552  0.79459663
   0.77736827  0.66637482  0.20544911
   0.88913320  0.58365436  0.70538263
   0.77752502  0.91634737  0.29459722
   0.88913561  0.83365599  0.79459649
   0.77761389  0.41636395  0.20540204
   0.44419233  0.91634410  0.20541021
   0.44418300  0.91634394  0.29459752
   0.22247180  0.58365639  0.70538326
   0.22247277  0.58365778  0.79459599
   0.11086075  0.91634210  0.29459536
   0.22247243  0.83365916  0.79459626
   0.11084386  0.91633607  0.20539613
   0.22247134  0.83365732  0.70538299
   0.11083961  0.66634417  0.29460946
   0.77751097  0.91633925  0.20541586
   0.44419486  0.16635226  0.29459417
   0.55580180  0.08365818  0.79459591
   0.44419337  0.16634108  0.20540526
   0.55580116  0.08365681  0.70538341
   0.44418895  0.41635390  0.29459603
   0.55580131  0.33365571  0.79459600
   0.44405157  0.41636207  0.20548212
   0.55580100  0.33365493  0.70538334
   0.22247041  0.33365693  0.70538282
   0.11083261  0.41636424  0.20539831
   0.44419807  0.66634996  0.29459743
   0.55580278  0.58365867  0.79459597
   0.44418261  0.66635079  0.20539880
   0.55580210  0.58365738  0.70538334
   0.22247090  0.33365776  0.79459635
   0.11087640  0.41635794  0.29459350
   0.55580198  0.83365759  0.79459589
   0.88913451  0.83365440  0.70538278
Direct configuration=     7
   0.05454268  0.69174569  0.04681382
   0.07679499  0.59690168  0.06129827
   0.00671672  0.74011618  0.07768499
   0.99992425  0.67488515  0.11195295
   0.04361209  0.58546052  0.10160491
   0.65986184  0.40379459  0.04040488
   0.60760615  0.43374974  0.10331117
   0.65889036  0.36699270  0.07959554
   0.57701266  0.50999925  0.07913178
   0.60901158  0.49225086  0.04055960
   0.82912818  0.55116090  0.07364317
   0.05179200  0.52189190  0.12095674
   0.68719165  0.29881059  0.08935857
   0.54357912  0.57570422  0.08878832
   0.59697983  0.42875470  0.13437613
   0.68988051  0.36894544  0.01517102
   0.10788762  0.53989979  0.04431705
   0.06383244  0.71832820  0.01685703
   0.97930359  0.81305074  0.07561668
   0.97182775  0.69251374  0.14056479
   0.60116954  0.54050617  0.01567751
   0.55589581  0.08380923  0.24999948
   0.55592868  0.33379787  0.24998905
   0.44408913  0.41620393  0.74999092
   0.55582199  0.58379233  0.25003899
   0.44409015  0.66620556  0.74999106
   0.55587514  0.83378517  0.24999911
   0.44409015  0.91620512  0.74999098
   0.88921786  0.33378125  0.24999851
   0.77743523  0.16619906  0.74999064
   0.77743418  0.41619935  0.74999064
   0.88923768  0.58378589  0.25000458
   0.77743518  0.66620009  0.74999060
   0.88924196  0.83382101  0.25000892
   0.77743477  0.91620042  0.74999079
   0.11075880  0.91620152  0.74999107
   0.88925163  0.08381189  0.24999545
   0.22262259  0.83383792  0.25002857
   0.44408983  0.16620491  0.74999086
   0.22268232  0.58371231  0.25007785
   0.11075813  0.41620002  0.74999107
   0.22241268  0.33370115  0.25000989
   0.22256498  0.08382825  0.24999697
   0.11075678  0.16620036  0.74999096
   0.11075813  0.66620173  0.74999105
   0.77761161  0.16643907  0.29454223
   0.88906983  0.08356297  0.79453535
   0.77758498  0.16642736  0.20545113
   0.88906846  0.08356115  0.70544836
   0.22240598  0.08356920  0.70544975
   0.11088955  0.16639216  0.20544013
   0.77759872  0.41644630  0.29452733
   0.88906997  0.33356223  0.79453537
   0.11157525  0.66636574  0.20571457
   0.55573861  0.83356896  0.70545033
   0.88906947  0.33356135  0.70544831
   0.22240681  0.08357058  0.79453356
   0.11093020  0.16643401  0.29455683
   0.77763192  0.66641625  0.29454085
   0.88907013  0.58356311  0.79453493
   0.77737478  0.66647717  0.20549936
   0.88906929  0.58356169  0.70544869
   0.77760279  0.91643671  0.29454204
   0.88907175  0.83356439  0.79453528
   0.77775150  0.41646610  0.20542776
   0.44427328  0.91643291  0.20544786
   0.44425556  0.91643069  0.29454197
   0.22240556  0.58356936  0.70545006
   0.22240619  0.58357049  0.79453330
   0.11095007  0.91643734  0.29453937
   0.22240688  0.83357171  0.79453341
   0.11091734  0.91641779  0.20542802
   0.22240601  0.83356993  0.70544998
   0.11088808  0.66643009  0.29458072
   0.77758148  0.91642107  0.20545904
   0.44428242  0.16645522  0.29453867
   0.55573949  0.08357059  0.79453357
   0.44426948  0.16642812  0.20543791
   0.55573882  0.08356878  0.70545002
   0.44425398  0.41641886  0.29454663
   0.55573855  0.33356870  0.79453330
   0.44405225  0.41645543  0.20555066
   0.55573827  0.33356789  0.70545022
   0.22240481  0.33356889  0.70544989
   0.11089919  0.41645818  0.20543448
   0.44429737  0.66645162  0.29455391
   0.55573982  0.58357082  0.79453309
   0.44424158  0.66642670  0.20543657
   0.55573896  0.58356951  0.70545046
   0.22240515  0.33356934  0.79453330
   0.11093702  0.41641789  0.29454458
   0.55573961  0.83357124  0.79453335
   0.88907029  0.83356249  0.70544850
Direct configuration=     8
   0.05454106  0.69176038  0.04680846
   0.07677465  0.59687490  0.06128783
   0.00669236  0.74012847  0.07769178
   0.99986389  0.67488208  0.11196611
   0.04355942  0.58542780  0.10160774
   0.65989052  0.40382201  0.04039701
   0.60763342  0.43376515  0.10332029
   0.65892862  0.36700473  0.07959679
   0.57702229  0.51004465  0.07913364
   0.60901938  0.49227606  0.04055225
   0.82915403  0.55114409  0.07365830
   0.05179834  0.52188502  0.12094978
   0.68718054  0.29880328  0.08935048
   0.54361843  0.57569059  0.08878214
   0.59697495  0.42874382  0.13436931
   0.68986330  0.36893072  0.01516577
   0.10787270  0.53990672  0.04432253
   0.06382328  0.71831694  0.01686674
   0.97931416  0.81302537  0.07561308
   0.97190342  0.69251093  0.14058078
   0.60116097  0.54050260  0.01568009
   0.55595280  0.08387008  0.25000045
   0.55597175  0.33385143  0.24998972
   0.44404494  0.41614555  0.74999193
   0.55589435  0.58384729  0.25003249
   0.44404570  0.66614708  0.74999211
   0.55592583  0.83383890  0.24999989
   0.44404601  0.91614682  0.74999205
   0.88927266  0.33383815  0.24999958
   0.77739276  0.16614019  0.74999179
   0.77739215  0.41614007  0.74999174
   0.88930207  0.58384838  0.24999870
   0.77739312  0.66614140  0.74999173
   0.88929779  0.83387349  0.25000790
   0.77739257  0.91614120  0.74999196
   0.11071257  0.91614400  0.74999203
   0.88930670  0.08386825  0.24999616
   0.22264716  0.83386921  0.25001888
   0.44404555  0.16614605  0.74999189
   0.22268826  0.58379364  0.25006258
   0.11071171  0.41614255  0.74999200
   0.22249090  0.33376179  0.25000814
   0.22261563  0.08389195  0.24999963
   0.11071065  0.16614255  0.74999192
   0.11071208  0.66614405  0.74999199
   0.77758395  0.16641004  0.29455950
   0.88909061  0.08359294  0.79455528
   0.77756114  0.16639975  0.20543872
   0.88908941  0.08359133  0.70542697
   0.22242759  0.08359758  0.70542817
   0.11087051  0.16636964  0.20543002
   0.77757311  0.41641635  0.29454800
   0.88909103  0.33359232  0.79455523
   0.11147918  0.66634632  0.20567967
   0.55575885  0.83359710  0.70542861
   0.88909052  0.33359151  0.70542701
   0.22242840  0.08359896  0.79455382
   0.11090913  0.16640838  0.29457087
   0.77759855  0.66638997  0.29455829
   0.88909087  0.58359308  0.79455494
   0.77737267  0.66644397  0.20548306
   0.88909002  0.58359175  0.70542726
   0.77757756  0.91640773  0.29455994
   0.88909247  0.83359410  0.79455514
   0.77770686  0.41643297  0.20541941
   0.44424702  0.91640410  0.20543564
   0.44423202  0.91640255  0.29455999
   0.22242705  0.58359759  0.70542839
   0.22242779  0.58359880  0.79455364
   0.11092110  0.91640645  0.29455753
   0.22242814  0.83360008  0.79455379
   0.11089350  0.91639128  0.20541767
   0.22242720  0.83359828  0.70542825
   0.11087235  0.66640222  0.29459005
   0.77755861  0.91639453  0.20544503
   0.44425402  0.16642182  0.29455667
   0.55575970  0.08359901  0.79455379
   0.44424479  0.16639989  0.20542732
   0.55575904  0.08359733  0.70542841
   0.44423289  0.41639779  0.29456265
   0.55575891  0.33359692  0.79455363
   0.44405203  0.41642515  0.20552843
   0.55575862  0.33359612  0.70542852
   0.22242609  0.33359745  0.70542813
   0.11087759  0.41642771  0.20542275
   0.44426516  0.66641864  0.29456803
   0.55576025  0.58359932  0.79455349
   0.44422246  0.66640207  0.20542432
   0.55575944  0.58359802  0.70542868
   0.22242648  0.33359802  0.79455375
   0.11091735  0.41639844  0.29456045
   0.55575984  0.83359925  0.79455363
   0.88909112  0.83359231  0.70542718
Direct configuration=     9
   0.05454098  0.69176110  0.04680820
   0.07677365  0.59687358  0.06128732
   0.00669116  0.74012907  0.07769212
   0.99986092  0.67488193  0.11196676
   0.04355682  0.58542618  0.10160788
   0.65989194  0.40382336  0.04039662
   0.60763476  0.43376591  0.10332074
   0.65893051  0.36700532  0.07959685
   0.57702277  0.51004689  0.07913373
   0.60901977  0.49227730  0.04055189
   0.82915531  0.55114326  0.07365905
   0.05179865  0.52188468  0.12094943
   0.68717999  0.29880292  0.08935008
   0.54362037  0.57568992  0.08878183
   0.59697471  0.42874328  0.13436897
   0.68986245  0.36892999  0.01516551
   0.10787196  0.53990706  0.04432280
   0.06382282  0.71831638  0.01686721
   0.97931468  0.81302411  0.07561290
   0.97190715  0.69251080  0.14058157
   0.60116054  0.54050242  0.01568022
   0.55595561  0.08387308  0.25000050
   0.55597387  0.33385407  0.24998975
   0.44404277  0.41614267  0.74999198
   0.55589792  0.58385000  0.25003217
   0.44404351  0.66614420  0.74999216
   0.55592833  0.83384155  0.24999992
   0.44404383  0.91614394  0.74999210
   0.88927536  0.33384096  0.24999963
   0.77739066  0.16613729  0.74999185
   0.77739008  0.41613715  0.74999180
   0.88930524  0.58385146  0.24999841
   0.77739104  0.66613851  0.74999179