  93  93   0   0
  0.3967126E+02  0.9570947E-09  0.1276126E-08  0.3488026E-08  0.5000000E-15
  1.000000000000000E-004
  CAR 
 basalPlane                              
      2.58053594    -20.65956535  301      0.28891236      1.00000000
    -20.660  0.0000E+00  0.0000E+00
    -20.582  0.0000E+00  0.0000E+00
    -20.505  0.0000E+00  0.0000E+00
    -20.427  0.0000E+00  0.0000E+00
    -20.350  0.0000E+00  0.0000E+00
    -20.272  0.0000E+00  0.0000E+00
    -20.195  0.1433E-18  0.1110E-19
    -20.117  0.4623E-15  0.3583E-16
    -20.040  0.8541E-12  0.6620E-13
    -19.962  0.4880E-09  0.3787E-10
    -19.885  0.8706E-07  0.6782E-08
    -19.807  0.4913E-05  0.3874E-06
    -19.730  0.8926E-04  0.7302E-05
    -19.652  0.5327E-03  0.4857E-04
    -19.575  0.1064E-02  0.1310E-03
    -19.498  0.7167E-03  0.1865E-03
    -19.420  0.1639E-03  0.1992E-03
    -19.343  0.5590E-04  0.2035E-03
    -19.265  0.3585E-03  0.2313E-03
    -19.188  0.9757E-03  0.3069E-03
    -19.110  0.8959E-03  0.3763E-03
    -19.033  0.2770E-03  0.3977E-03
    -18.955  0.2844E-04  0.3999E-03
    -18.878  0.9505E-06  0.4000E-03
    -18.800  0.1014E-07  0.4000E-03
    -18.723  0.3403E-10  0.4000E-03
    -18.645  0.3548E-13  0.4000E-03
    -18.568  0.1147E-16  0.4000E-03
    -18.490  0.0000E+00  0.4000E-03
    -18.413  0.0000E+00  0.4000E-03
    -18.336  0.0000E+00  0.4000E-03
    -18.258  0.0000E+00  0.4000E-03
    -18.181  0.0000E+00  0.4000E-03
    -18.103  0.0000E+00  0.4000E-03
    -18.026  0.0000E+00  0.4000E-03
    -17.948  0.0000E+00  0.4000E-03
    -17.871  0.0000E+00  0.4000E-03
    -17.793  0.0000E+00  0.4000E-03
    -17.716  0.0000E+00  0.4000E-03
    -17.638  0.0000E+00  0.4000E-03
    -17.561  0.0000E+00  0.4000E-03
    -17.483  0.0000E+00  0.4000E-03
    -17.406  0.0000E+00  0.4000E-03
    -17.328  0.0000E+00  0.4000E-03
    -17.251  0.0000E+00  0.4000E-03
    -17.174  0.0000E+00  0.4000E-03
    -17.096  0.0000E+00  0.4000E-03
    -17.019  0.0000E+00  0.4000E-03
    -16.941  0.0000E+00  0.4000E-03
    -16.864  0.0000E+00  0.4000E-03
    -16.786  0.0000E+00  0.4000E-03
    -16.709  0.0000E+00  0.4000E-03
    -16.631  0.0000E+00  0.4000E-03
    -16.554  0.0000E+00  0.4000E-03
    -16.476  0.0000E+00  0.4000E-03
    -16.399  0.0000E+00  0.4000E-03
    -16.321  0.0000E+00  0.4000E-03
    -16.244  0.0000E+00  0.4000E-03
    -16.166  0.1433E-18  0.4000E-03
    -16.089  0.5202E-15  0.4000E-03
    -16.012  0.9845E-12  0.4000E-03
    -15.934  0.5831E-09  0.4000E-03
    -15.857  0.1095E-06  0.4000E-03
    -15.779  0.6624E-05  0.4005E-03
    -15.702  0.1318E-03  0.4107E-03
    -15.624  0.8831E-03  0.4791E-03
    -15.547  0.2031E-02  0.6365E-03
    -15.469  0.1620E-02  0.7620E-03
    -15.392  0.4473E-03  0.7966E-03
    -15.314  0.4206E-04  0.7999E-03
    -15.237  0.1329E-05  0.8000E-03
    -15.159  0.1274E-05  0.8001E-03
    -15.082  0.4753E-04  0.8038E-03
    -15.004  0.6136E-03  0.8513E-03
    -14.927  0.2885E-02  0.1075E-02
    -14.850  0.5745E-02  0.1520E-02
    -14.772  0.6268E-02  0.2005E-02
    -14.695  0.3932E-02  0.2310E-02
    -14.617  0.1502E-02  0.2426E-02
    -14.540  0.2411E-02  0.2613E-02
    -14.462  0.4587E-02  0.2969E-02
    -14.385  0.5201E-02  0.3371E-02
    -14.307  0.6582E-02  0.3881E-02
    -14.230  0.5071E-02  0.4274E-02
    -14.152  0.1509E-02  0.4391E-02
    -14.075  0.6829E-03  0.4444E-02
    -13.997  0.2713E-02  0.4654E-02
    -13.920  0.6024E-02  0.5121E-02
    -13.842  0.1030E-01  0.5919E-02
    -13.765  0.1429E-01  0.7026E-02
    -13.688  0.1086E-01  0.7867E-02
    -13.610  0.7311E-02  0.8433E-02
    -13.533  0.8878E-02  0.9121E-02
    -13.455  0.9626E-02  0.9867E-02
    -13.378  0.7401E-02  0.1044E-01
    -13.300  0.3697E-02  0.1073E-01
    -13.223  0.8698E-03  0.1079E-01
    -13.145  0.7623E-04  0.1080E-01
    -13.068  0.2268E-05  0.1080E-01
    -12.990  0.2206E-07  0.1080E-01
    -12.913  0.6854E-10  0.1080E-01
    -12.835  0.6707E-13  0.1080E-01
    -12.758  0.2006E-16  0.1080E-01
    -12.680  0.0000E+00  0.1080E-01
    -12.603  0.0000E+00  0.1080E-01
    -12.526  0.0000E+00  0.1080E-01
    -12.448  0.0000E+00  0.1080E-01
    -12.371  0.0000E+00  0.1080E-01
    -12.293  0.0000E+00  0.1080E-01
    -12.216  0.0000E+00  0.1080E-01
    -12.138  0.0000E+00  0.1080E-01
    -12.061  0.0000E+00  0.1080E-01
    -11.983  0.0000E+00  0.1080E-01
    -11.906  0.0000E+00  0.1080E-01
    -11.828  0.0000E+00  0.1080E-01
    -11.751  0.0000E+00  0.1080E-01
    -11.673  0.0000E+00  0.1080E-01
    -11.596  0.0000E+00  0.1080E-01
    -11.518  0.0000E+00  0.1080E-01
    -11.441  0.0000E+00  0.1080E-01
    -11.364  0.0000E+00  0.1080E-01
    -11.286  0.0000E+00  0.1080E-01
    -11.209  0.1909E-15  0.1080E-01
    -11.131  0.4218E-12  0.1080E-01
    -11.054  0.2910E-09  0.1080E-01
    -10.976  0.6340E-07  0.1080E-01
    -10.899  0.4424E-05  0.1080E-01
    -10.821  0.1007E-03  0.1081E-01
    -10.744  0.7639E-03  0.1087E-01
    -10.666  0.1981E-02  0.1102E-01
    -10.589  0.1975E-02  0.1117E-01
    -10.511  0.1933E-02  0.1132E-01
    -10.434  0.3069E-02  0.1156E-01
    -10.356  0.2350E-02  0.1174E-01
    -10.279  0.6813E-03  0.1180E-01
    -10.202  0.2776E-03  0.1182E-01
    -10.124  0.8070E-03  0.1188E-01
    -10.047  0.1033E-02  0.1196E-01
     -9.969  0.4470E-03  0.1199E-01
     -9.892  0.6460E-04  0.1200E-01
     -9.814  0.3058E-05  0.1200E-01
     -9.737  0.4650E-07  0.1200E-01
     -9.659  0.2232E-09  0.1200E-01
     -9.582  0.3339E-12  0.1200E-01
     -9.504  0.1545E-15  0.1200E-01
     -9.427  0.0000E+00  0.1200E-01
     -9.349  0.0000E+00  0.1200E-01
     -9.272  0.0000E+00  0.1200E-01
     -9.194  0.0000E+00  0.1200E-01
     -9.117  0.0000E+00  0.1200E-01
     -9.040  0.0000E+00  0.1200E-01
     -8.962  0.0000E+00  0.1200E-01
     -8.885  0.0000E+00  0.1200E-01
     -8.807  0.0000E+00  0.1200E-01
     -8.730  0.0000E+00  0.1200E-01
     -8.652  0.0000E+00  0.1200E-01
     -8.575  0.0000E+00  0.1200E-01
     -8.497  0.0000E+00  0.1200E-01
     -8.420  0.0000E+00  0.1200E-01
     -8.342  0.0000E+00  0.1200E-01
     -8.265  0.3153E-17  0.1200E-01
     -8.187  0.1176E-13  0.1200E-01
     -8.110  0.1340E-10  0.1200E-01
     -8.032  0.4736E-08  0.1200E-01
     -7.955  0.5253E-06  0.1200E-01
     -7.878  0.1855E-04  0.1200E-01
     -7.800  0.2127E-03  0.1202E-01
     -7.723  0.8077E-03  0.1208E-01
     -7.645  0.1031E-02  0.1216E-01
     -7.568  0.4442E-03  0.1219E-01
     -7.490  0.6674E-04  0.1220E-01
     -7.413  0.8350E-04  0.1221E-01
     -7.335  0.8034E-03  0.1227E-01
     -7.258  0.2979E-02  0.1250E-01
     -7.180  0.4377E-02  0.1284E-01
     -7.103  0.3495E-02  0.1311E-01
     -7.025  0.2893E-02  0.1333E-01
     -6.948  0.2711E-02  0.1354E-01
     -6.870  0.3455E-02  0.1381E-01
     -6.793  0.6956E-02  0.1435E-01
     -6.716  0.1166E-01  0.1525E-01
     -6.638  0.9680E-02  0.1600E-01
     -6.561  0.7157E-02  0.1656E-01
     -6.483  0.1326E-01  0.1758E-01
     -6.406  0.1730E-01  0.1892E-01
     -6.328  0.1327E-01  0.1995E-01
     -6.251  0.7481E-02  0.2053E-01
     -6.173  0.2842E-02  0.2075E-01
     -6.096  0.5625E-03  0.2080E-01
     -6.018  0.4649E-04  0.2080E-01
     -5.941  0.1590E-05  0.2080E-01
     -5.863  0.1218E-04  0.2080E-01
     -5.786  0.2515E-03  0.2082E-01
     -5.708  0.1796E-02  0.2096E-01
     -5.631  0.4750E-02  0.2133E-01
     -5.553  0.5397E-02  0.2175E-01
     -5.476  0.4869E-02  0.2212E-01
     -5.399  0.1137E-01  0.2300E-01
     -5.321  0.2238E-01  0.2474E-01
     -5.244  0.1923E-01  0.2623E-01
     -5.166  0.6761E-02  0.2675E-01
     -5.089  0.2449E-02  0.2694E-01
     -5.011  0.4014E-02  0.2725E-01
     -4.934  0.3404E-02  0.2752E-01
     -4.856  0.1306E-02  0.2762E-01
     -4.779  0.2766E-02  0.2783E-01
     -4.701  0.8464E-02  0.2849E-01
     -4.624  0.1044E-01  0.2930E-01
     -4.546  0.7570E-02  0.2988E-01
     -4.469  0.7845E-02  0.3049E-01
     -4.391  0.9226E-02  0.3120E-01
     -4.314  0.8952E-02  0.3190E-01
     -4.237  0.5523E-02  0.3233E-01
     -4.159  0.3527E-02  0.3260E-01
     -4.082  0.5396E-02  0.3302E-01
     -4.004  0.6518E-02  0.3352E-01
     -3.927  0.6054E-02  0.3399E-01
     -3.849  0.5468E-02  0.3441E-01
     -3.772  0.3991E-02  0.3472E-01
     -3.694  0.2389E-02  0.3491E-01
     -3.617  0.2345E-02  0.3509E-01
     -3.539  0.2095E-02  0.3525E-01
     -3.462  0.3620E-02  0.3553E-01
     -3.384  0.6248E-02  0.3602E-01
     -3.307  0.9971E-02  0.3679E-01
     -3.229  0.1464E-01  0.3792E-01
     -3.152  0.1385E-01  0.3900E-01
     -3.075  0.1013E-01  0.3978E-01
     -2.997  0.7873E-02  0.4039E-01
     -2.920  0.7062E-02  0.4094E-01
     -2.842  0.9388E-02  0.4166E-01
     -2.765  0.1123E-01  0.4253E-01
     -2.687  0.7362E-02  0.4310E-01
     -2.610  0.3073E-02  0.4334E-01
     -2.532  0.3162E-02  0.4359E-01
     -2.455  0.7131E-02  0.4414E-01
     -2.377  0.9876E-02  0.4491E-01
     -2.300  0.7828E-02  0.4551E-01
     -2.222  0.4986E-02  0.4590E-01
     -2.145  0.5529E-02  0.4633E-01
     -2.067  0.6132E-02  0.4680E-01
     -1.990  0.5411E-02  0.4722E-01
     -1.913  0.4781E-02  0.4759E-01
     -1.835  0.2359E-02  0.4777E-01
     -1.758  0.1305E-02  0.4787E-01
     -1.680  0.3293E-02  0.4813E-01
     -1.603  0.4186E-02  0.4845E-01
     -1.525  0.2593E-02  0.4865E-01
     -1.448  0.2264E-02  0.4883E-01
     -1.370  0.1668E-02  0.4896E-01
     -1.293  0.4746E-03  0.4900E-01
     -1.215  0.4649E-04  0.4900E-01
     -1.138  0.1524E-05  0.4900E-01
     -1.060  0.1632E-07  0.4900E-01
     -0.983  0.5603E-10  0.4900E-01
     -0.905  0.6066E-13  0.4900E-01
     -0.828  0.2064E-16  0.4900E-01
     -0.751  0.0000E+00  0.4900E-01
     -0.673  0.0000E+00  0.4900E-01
     -0.596  0.0000E+00  0.4900E-01
     -0.518  0.0000E+00  0.4900E-01
     -0.441  0.0000E+00  0.4900E-01
     -0.363  0.0000E+00  0.4900E-01
     -0.286  0.0000E+00  0.4900E-01
     -0.208  0.4156E-17  0.4900E-01
     -0.131  0.1542E-13  0.4900E-01
     -0.053  0.1779E-10  0.4900E-01
      0.024  0.6574E-08  0.4900E-01
      0.102  0.8014E-06  0.4900E-01
      0.179  0.3357E-04  0.4900E-01
      0.257  0.5050E-03  0.4904E-01
      0.334  0.2828E-02  0.4926E-01
      0.411  0.6029E-02  0.4973E-01
      0.489  0.5528E-02  0.5016E-01
      0.566  0.5048E-02  0.5055E-01
      0.644  0.8894E-02  0.5124E-01
      0.721  0.1510E-01  0.5241E-01
      0.799  0.1610E-01  0.5365E-01
      0.876  0.1376E-01  0.5472E-01
      0.954  0.1182E-01  0.5563E-01
      1.031  0.5906E-02  0.5609E-01
      1.109  0.1733E-02  0.5623E-01
      1.186  0.3058E-02  0.5646E-01
      1.264  0.8292E-02  0.5711E-01
      1.341  0.1171E-01  0.5801E-01
      1.419  0.1099E-01  0.5886E-01
      1.496  0.8517E-02  0.5952E-01
      1.573  0.4682E-02  0.5989E-01
      1.651  0.1306E-02  0.5999E-01
      1.728  0.1513E-03  0.6000E-01
      1.806  0.6626E-05  0.6000E-01
      1.883  0.1026E-06  0.6000E-01
      1.961  0.5332E-09  0.6000E-01
      2.038  0.8954E-12  0.6000E-01
      2.116  0.4747E-15  0.6000E-01
      2.193  0.0000E+00  0.6000E-01
      2.271  0.0000E+00  0.6000E-01
      2.348  0.0000E+00  0.6000E-01
      2.426  0.0000E+00  0.6000E-01
      2.503  0.0000E+00  0.6000E-01
      2.581  0.0000E+00  0.6000E-01
