       N       E                     dE             d eps       ncg     rms          rms(c)
DAV:   1     0.441512836561E+04    0.44151E+04   -0.18129E+05   600   0.112E+03
DAV:   2    -0.369257709608E+00   -0.44155E+04   -0.42594E+04   972   0.267E+02
DAV:   3    -0.676303097103E+03   -0.67593E+03   -0.66756E+03   720   0.115E+02
DAV:   4    -0.709701321225E+03   -0.33398E+02   -0.33228E+02   828   0.277E+01
DAV:   5    -0.710837823986E+03   -0.11365E+01   -0.11321E+01   912   0.536E+00    0.123E+02
DAV:   6    -0.690562603830E+03    0.20275E+02   -0.57269E+02   780   0.334E+01    0.765E+01
DAV:   7    -0.711587787706E+03   -0.21025E+02   -0.31594E+02   780   0.475E+01    0.635E+01
DAV:   8    -0.716402434699E+03   -0.48146E+01   -0.22522E+02   828   0.180E+01    0.603E+01
DAV:   9    -0.703476978705E+03    0.12925E+02   -0.31148E+02   780   0.122E+01    0.425E+01
DAV:  10    -0.686386750202E+03    0.17090E+02   -0.33471E+02   792   0.122E+01    0.314E+01
DAV:  11    -0.659935163409E+03    0.26452E+02   -0.48263E+01   792   0.150E+01    0.274E+01
DAV:  12    -0.659901830112E+03    0.33333E-01   -0.89979E+00   852   0.299E+00    0.250E+01
DAV:  13    -0.659834443733E+03    0.67386E-01   -0.35451E-01   804   0.878E-01    0.229E+01
DAV:  14    -0.659411193249E+03    0.42325E+00   -0.12235E-01   864   0.667E-01    0.198E+01
DAV:  15    -0.657175046342E+03    0.22361E+01   -0.35021E+00   816   0.356E+00    0.772E+00
DAV:  16    -0.660905719347E+03   -0.37307E+01   -0.36177E+01   864   0.285E+00    0.190E+01
DAV:  17    -0.659357331840E+03    0.15484E+01   -0.23468E+00   732   0.100E+00    0.175E+01
DAV:  18    -0.657765035843E+03    0.15923E+01   -0.31650E+00   852   0.796E-01    0.194E+01
DAV:  19    -0.658120768666E+03   -0.35573E+00   -0.17570E+01   840   0.162E+00    0.150E+01
DAV:  20    -0.656724094027E+03    0.13967E+01   -0.28666E+00   828   0.233E+00    0.530E+00
DAV:  21    -0.656612225205E+03    0.11187E+00   -0.34814E-01   768   0.938E-01    0.430E+00
DAV:  22    -0.656566399335E+03    0.45826E-01   -0.21776E-01   852   0.690E-01    0.531E+00
DAV:  23    -0.656529817420E+03    0.36582E-01   -0.43467E-02   780   0.312E-01    0.404E+00
DAV:  24    -0.656512131212E+03    0.17686E-01   -0.44774E-02   828   0.267E-01    0.319E+00
DAV:  25    -0.656526859628E+03   -0.14728E-01   -0.19759E-01   804   0.239E-01    0.191E+00
DAV:  26    -0.656527938049E+03   -0.10784E-02   -0.11470E-02   792   0.155E-01    0.182E+00
DAV:  27    -0.656553606967E+03   -0.25669E-01   -0.35064E-02   876   0.270E-01    0.153E+00
DAV:  28    -0.656656245084E+03   -0.10264E+00   -0.15040E-01   828   0.238E-01    0.182E+00
DAV:  29    -0.656654101008E+03    0.21441E-02   -0.30292E-02   780   0.114E-01    0.109E+00
DAV:  30    -0.656673102220E+03   -0.19001E-01   -0.12346E-02   792   0.100E-01    0.112E+00
DAV:  31    -0.656688577023E+03   -0.15475E-01   -0.18139E-01   828   0.163E-01    0.213E+00
DAV:  32    -0.656687490448E+03    0.10866E-02   -0.30642E-03   816   0.922E-02    0.160E+00
DAV:  33    -0.656689101932E+03   -0.16115E-02   -0.83539E-04   708   0.517E-02    0.127E+00
DAV:  34    -0.656686899333E+03    0.22026E-02   -0.75769E-04   708   0.381E-02    0.865E-01
DAV:  35    -0.656671165685E+03    0.15734E-01   -0.74297E-04   660   0.571E-02    0.809E-01
DAV:  36    -0.656656520770E+03    0.14645E-01   -0.46905E-04   648   0.325E-02    0.905E-01
DAV:  37    -0.656642905019E+03    0.13616E-01   -0.31856E-04   648   0.320E-02    0.860E-01
DAV:  38    -0.656637020980E+03    0.58840E-02   -0.95284E-05   468   0.135E-02    0.901E-01
DAV:  39    -0.656629570140E+03    0.74508E-02   -0.10067E-04   516   0.159E-02    0.850E-01
DAV:  40    -0.656599912320E+03    0.29658E-01   -0.10946E-03   744   0.547E-02    0.103E+00
DAV:  41    -0.656570136478E+03    0.29776E-01   -0.15739E-03   720   0.553E-02    0.102E+00
DAV:  42    -0.656549103386E+03    0.21033E-01   -0.84720E-04   696   0.494E-02    0.925E-01
DAV:  43    -0.656487217262E+03    0.61886E-01   -0.59316E-03   732   0.942E-02    0.123E+00
DAV:  44    -0.656434564138E+03    0.52653E-01   -0.63652E-03   780   0.144E-01    0.981E-01
DAV:  45    -0.656415400984E+03    0.19163E-01   -0.33550E-03   756   0.632E-02    0.602E-01
DAV:  46    -0.656400728100E+03    0.14673E-01   -0.25826E-02   780   0.581E-02    0.232E-01
DAV:  47    -0.656400851436E+03   -0.12334E-03   -0.36017E-04   648   0.280E-02    0.227E-01
DAV:  48    -0.656400800849E+03    0.50587E-04   -0.15696E-05   420   0.783E-03
   1 F= -.67132728E+03 E0= -.67126545E+03  d E =-.671327E+03
       N       E                     dE             d eps       ncg     rms          rms(c)
DAV:   1    -0.656418451116E+03   -0.17600E-01   -0.12291E+01   600   0.528E+00    0.289E+00
DAV:   2    -0.656792859768E+03   -0.37441E+00   -0.13441E+00   756   0.192E+00    0.542E+00
DAV:   3    -0.656531998248E+03    0.26086E+00   -0.16315E+00   816   0.197E+00    0.458E+00
DAV:   4    -0.656539189176E+03   -0.71909E-02   -0.16279E+00   732   0.681E-01    0.292E+00
DAV:   5    -0.656460112935E+03    0.79076E-01   -0.41341E-02   876   0.362E-01    0.901E-01
DAV:   6    -0.656498016486E+03   -0.37904E-01   -0.57723E-01   780   0.323E-01    0.321E+00
DAV:   7    -0.656492771098E+03    0.52454E-02   -0.80746E-01   720   0.316E-01    0.335E+00
DAV:   8    -0.656467860455E+03    0.24911E-01   -0.35794E-03   720   0.125E-01    0.243E+00
DAV:   9    -0.656453024077E+03    0.14836E-01   -0.66600E-02   768   0.936E-02    0.719E-01
DAV:  10    -0.656452538753E+03    0.48532E-03   -0.25341E-03   732   0.752E-02    0.107E-01
DAV:  11    -0.656452809927E+03   -0.27117E-03   -0.67924E-04   708   0.435E-02    0.201E-01
DAV:  12    -0.656452837702E+03   -0.27775E-04   -0.83118E-05   384   0.210E-02
   2 F= -.67140198E+03 E0= -.67134105E+03  d E =-.747021E-01
       N       E                     dE             d eps       ncg     rms          rms(c)
DAV:   1    -0.656455133364E+03   -0.23234E-02   -0.90074E-02   624   0.453E-01    0.289E-01
DAV:   2    -0.656482024443E+03   -0.26891E-01   -0.25132E-01   756   0.237E-01    0.317E+00
DAV:   3    -0.656457893896E+03    0.24131E-01   -0.26525E-01   744   0.215E-01    0.789E-01
DAV:   4    -0.656456069860E+03    0.18240E-02   -0.14566E-03   612   0.740E-02    0.431E-01
DAV:   5    -0.656455446797E+03    0.62306E-03   -0.42750E-04   552   0.369E-02    0.145E-01
DAV:   6    -0.656455606031E+03   -0.15923E-03   -0.44984E-04   624   0.388E-02    0.117E-01
DAV:   7    -0.656455474132E+03    0.13190E-03   -0.25534E-04   504   0.325E-02    0.263E-01
DAV:   8    -0.656455437076E+03    0.37056E-04   -0.42344E-05   372   0.120E-02
   3 F= -.67140258E+03 E0= -.67134166E+03  d E =-.752971E-01
       N       E                     dE             d eps       ncg     rms          rms(c)
DAV:   1    -0.656439171755E+03    0.16302E-01   -0.22093E+00   624   0.199E+00    0.923E-01
DAV:   2    -0.656543028685E+03   -0.10386E+00   -0.17022E-01   804   0.696E-01    0.343E+00
DAV:   3    -0.656450432768E+03    0.92596E-01   -0.15715E-01   768   0.660E-01    0.148E+00
DAV:   4    -0.656454877237E+03   -0.44445E-02   -0.14045E-02   792   0.182E-01    0.182E+00
DAV:   5    -0.656444323801E+03    0.10553E-01   -0.42005E-03   840   0.103E-01    0.273E-01
DAV:   6    -0.656450439749E+03   -0.61159E-02   -0.22142E-02   768   0.105E-01    0.173E+00
DAV:   7    -0.656450364591E+03    0.75158E-04   -0.91976E-03   732   0.685E-02    0.165E+00
DAV:   8    -0.656448417872E+03    0.19467E-02   -0.23839E-03   636   0.414E-02    0.153E+00
DAV:   9    -0.656443874707E+03    0.45432E-02   -0.53001E-03   564   0.384E-02    0.488E-01
DAV:  10    -0.656443580294E+03    0.29441E-03   -0.38629E-04   492   0.293E-02    0.243E-01
DAV:  11    -0.656443536133E+03    0.44161E-04   -0.11843E-04   444   0.165E-02
   4 F= -.67139900E+03 E0= -.67133694E+03  d E =0.358342E-02
       N       E                     dE             d eps       ncg     rms          rms(c)
DAV:   1    -0.656455113086E+03   -0.11533E-01   -0.74164E-01   624   0.115E+00    0.475E-01
DAV:   2    -0.656489629338E+03   -0.34516E-01   -0.33452E-01   816   0.350E-01    0.339E+00
DAV:   3    -0.656462440291E+03    0.27189E-01   -0.37685E-01   756   0.281E-01    0.132E+00
DAV:   4    -0.656457896045E+03    0.45442E-02   -0.27629E-03   684   0.107E-01    0.489E-01
DAV:   5    -0.656457901196E+03   -0.51505E-05   -0.21709E-02   780   0.723E-02    0.258E-01
DAV:   6    -0.656457277523E+03    0.62367E-03   -0.26273E-02   720   0.742E-02    0.377E-01
DAV:   7    -0.656457268673E+03    0.88509E-05   -0.68819E-04   696   0.499E-02
   5 F= -.67140789E+03 E0= -.67134840E+03  d E =-.530965E-02
       N       E                     dE             d eps       ncg     rms          rms(c)
DAV:   1    -0.656450811113E+03    0.64664E-02   -0.15891E+00   624   0.181E+00    0.650E-01
DAV:   2    -0.656468053571E+03   -0.17242E-01   -0.15965E-01   756   0.456E-01    0.235E+00
DAV:   3    -0.656470817139E+03   -0.27636E-02   -0.27431E-01   780   0.275E-01    0.227E+00
DAV:   4    -0.656456232455E+03    0.14585E-01   -0.31828E-03   660   0.124E-01    0.844E-01
DAV:   5    -0.656455870426E+03    0.36203E-03   -0.27145E-03   828   0.740E-02    0.861E-01
DAV:   6    -0.656455080142E+03    0.79028E-03   -0.88498E-04   696   0.537E-02    0.702E-01
DAV:   7    -0.656454280256E+03    0.79989E-03   -0.33339E-04   564   0.350E-02    0.384E-01
DAV:   8    -0.656454017445E+03    0.26281E-03   -0.26123E-04   456   0.269E-02    0.138E-01
DAV:   9    -0.656454020618E+03   -0.31730E-05   -0.57435E-05   396   0.139E-02
   6 F= -.67141095E+03 E0= -.67134940E+03  d E =-.306148E-02
       N       E                     dE             d eps       ncg     rms          rms(c)
DAV:   1    -0.656456157514E+03   -0.21401E-02   -0.13157E-01   624   0.519E-01    0.179E-01
DAV:   2    -0.656456488007E+03   -0.33049E-03   -0.39680E-03   720   0.105E-01    0.188E-01
DAV:   3    -0.656457989872E+03   -0.15019E-02   -0.13104E-03   552   0.573E-02    0.795E-01
DAV:   4    -0.656456954012E+03    0.10359E-02   -0.17957E-03   528   0.673E-02    0.512E-01
DAV:   5    -0.656456594262E+03    0.35975E-03   -0.27596E-04   528   0.344E-02    0.151E-01
DAV:   6    -0.656456536951E+03    0.57311E-04   -0.25342E-04   492   0.300E-02
   7 F= -.67141163E+03 E0= -.67134924E+03  d E =-.374559E-02
       N       E                     dE             d eps       ncg     rms          rms(c)
DAV:   1    -0.656456466291E+03    0.12797E-03   -0.30995E-01   624   0.511E-01    0.333E-01
DAV:   2    -0.656495389190E+03   -0.38923E-01   -0.37303E-02   804   0.246E-01    0.287E+00
DAV:   3    -0.656458197515E+03    0.37192E-01   -0.34376E-02   816   0.306E-01    0.499E-01
DAV:   4    -0.656458760449E+03   -0.56293E-03   -0.18615E-03   684   0.770E-02    0.942E-01
DAV:   5    -0.656457318369E+03    0.14421E-02   -0.35642E-04   564   0.320E-02    0.606E-01
DAV:   6    -0.656456583901E+03    0.73447E-03   -0.26005E-04   492   0.203E-02    0.193E-01
DAV:   7    -0.656456614844E+03   -0.30943E-04   -0.27694E-04   504   0.202E-02
   8 F= -.67141337E+03 E0= -.67135157E+03  d E =-.173788E-02
       N       E                     dE             d eps       ncg     rms          rms(c)
DAV:   1    -0.656455914597E+03    0.66930E-03   -0.11596E-01   624   0.314E-01    0.193E-01
DAV:   2    -0.656466053627E+03   -0.10139E-01   -0.83564E-03   732   0.122E-01    0.184E+00
DAV:   3    -0.656457421539E+03    0.86321E-02   -0.84291E-03   672   0.144E-01    0.595E-01
DAV:   4    -0.656456575433E+03    0.84611E-03   -0.24005E-03   684   0.784E-02    0.357E-01
DAV:   5    -0.656456187355E+03    0.38808E-03   -0.66226E-04   576   0.364E-02    0.360E-01
DAV:   6    -0.656455982886E+03    0.20447E-03   -0.18286E-04   480   0.226E-02    0.220E-01
DAV:   7    -0.656455985986E+03   -0.31005E-05   -0.41694E-05   336   0.122E-02
   9 F= -.67141377E+03 E0= -.67135258E+03  d E =-.213532E-02
       N       E                     dE             d eps       ncg     rms          rms(c)
DAV:   1    -0.656456207665E+03   -0.22478E-03   -0.34009E-02   600   0.166E-01    0.584E-02
DAV:   2    -0.656456386298E+03   -0.17863E-03   -0.68305E-04   480   0.328E-02    0.232E-01
DAV:   3    -0.656456311422E+03    0.74876E-04   -0.18729E-04   468   0.232E-02
  10 F= -.67141456E+03 E0= -.67135225E+03  d E =-.786748E-03
       N       E                     dE             d eps       ncg     rms          rms(c)
DAV:   1    -0.656456470241E+03   -0.83943E-04   -0.30820E-01   624   0.502E-01    0.188E-01
DAV:   2    -0.656463235661E+03   -0.67654E-02   -0.42618E-02   792   0.165E-01    0.160E+00
DAV:   3    -0.656458333558E+03    0.49021E-02   -0.48938E-02   672   0.113E-01    0.697E-01
DAV:   4    -0.656457356333E+03    0.97722E-03   -0.14686E-03   696   0.612E-02    0.371E-01
DAV:   5    -0.656457431357E+03   -0.75023E-04   -0.51181E-04   612   0.354E-02
  11 F= -.67141707E+03 E0= -.67135740E+03  d E =-.329936E-02
       N       E                     dE             d eps       ncg     rms          rms(c)
DAV:   1    -0.656454158339E+03    0.31980E-02   -0.12249E+00   612   0.997E-01    0.671E-01
DAV:   2    -0.656593588247E+03   -0.13943E+00   -0.12418E+00   816   0.616E-01    0.456E+00
DAV:   3    -0.656461479038E+03    0.13211E+00   -0.42018E-01   792   0.528E-01    0.127E+00
DAV:   4    -0.656456383969E+03    0.50951E-02   -0.85683E-03   732   0.107E-01    0.294E-01
DAV:   5    -0.656455769754E+03    0.61421E-03   -0.19896E-03   732   0.636E-02    0.630E-01
DAV:   6    -0.656457088165E+03   -0.13184E-02   -0.29711E-03   684   0.505E-02    0.928E-01
DAV:   7    -0.656457147004E+03   -0.58839E-04   -0.16891E-03   648   0.399E-02    0.104E+00
DAV:   8    -0.656456012214E+03    0.11348E-02   -0.18006E-04   468   0.261E-02    0.759E-01
DAV:   9    -0.656454779979E+03    0.12322E-02   -0.35011E-04   504   0.289E-02    0.221E-01
DAV:  10    -0.656454966507E+03   -0.18653E-03   -0.95961E-05   420   0.154E-02    0.206E-01
DAV:  11    -0.656455001479E+03   -0.34972E-04   -0.10537E-05   336   0.593E-03
  12 F= -.67141746E+03 E0= -.67135644E+03  d E =-.369373E-02
       N       E                     dE             d eps       ncg     rms          rms(c)
DAV:   1    -0.656455799378E+03   -0.83287E-03   -0.85375E-02   612   0.264E-01    0.264E-01
DAV:   2    -0.656499085678E+03   -0.43286E-01   -0.39950E-01   852   0.233E-01    0.373E+00
DAV:   3    -0.656457937909E+03    0.41148E-01   -0.29114E-01   744   0.243E-01    0.384E-01
DAV:   4    -0.656456212207E+03    0.17257E-02   -0.20066E-03   588   0.722E-02    0.435E-01
DAV:   5    -0.656456021602E+03    0.19061E-03   -0.35404E-04   456   0.311E-02    0.397E-01
DAV:   6    -0.656455745183E+03    0.27642E-03   -0.12637E-04   456   0.207E-02    0.501E-02
DAV:   7    -0.656455889691E+03   -0.14451E-03   -0.23681E-04   432   0.221E-02    0.225E-01
DAV:   8    -0.656455908475E+03   -0.18785E-04   -0.69486E-05   372   0.148E-02
  13 F= -.67141762E+03 E0= -.67135672E+03  d E =-.385334E-02
       N       E                     dE             d eps       ncg     rms          rms(c)
DAV:   1    -0.656456339199E+03   -0.44951E-03   -0.19317E-02   612   0.173E-01    0.270E-01
DAV:   2    -0.656494754895E+03   -0.38416E-01   -0.35267E-01   804   0.238E-01    0.357E+00
DAV:   3    -0.656458995985E+03    0.35759E-01   -0.30893E-01   732   0.268E-01    0.677E-01
DAV:   4    -0.656456781594E+03    0.22144E-02   -0.20502E-03   588   0.734E-02    0.298E-01
DAV:   5    -0.656456340495E+03    0.44110E-03   -0.32493E-04   516   0.306E-02    0.202E-01
DAV:   6    -0.656456263950E+03    0.76545E-04   -0.48429E-05   360   0.149E-02
  14 F= -.67141817E+03 E0= -.67135584E+03  d E =-.547762E-03
       N       E                     dE             d eps       ncg     rms          rms(c)
DAV:   1    -0.656456526828E+03   -0.18633E-03   -0.17057E-01   600   0.515E-01    0.217E-01
DAV:   2    -0.656459633921E+03   -0.31071E-02   -0.77869E-03   840   0.124E-01    0.112E+00
DAV:   3    -0.656457822266E+03    0.18117E-02   -0.43556E-03   660   0.105E-01    0.683E-01
DAV:   4    -0.656457607085E+03    0.21518E-03   -0.12413E-03   552   0.653E-02    0.582E-01
DAV:   5    -0.656457060022E+03    0.54706E-03   -0.24087E-04   468   0.338E-02    0.347E-01
DAV:   6    -0.656456875796E+03    0.18423E-03   -0.11697E-04   432   0.186E-02    0.288E-01
DAV:   7    -0.656456812314E+03    0.63483E-04   -0.95587E-05   372   0.136E-02
  15 F= -.67141930E+03 E0= -.67135820E+03  d E =-.167770E-02
       N       E                     dE             d eps       ncg     rms          rms(c)
DAV:   1    -0.656456615953E+03    0.25984E-03   -0.15843E-02   612   0.158E-01    0.170E-01
DAV:   2    -0.656471430777E+03   -0.14815E-01   -0.12613E-01   720   0.149E-01    0.250E+00
DAV:   3    -0.656458139641E+03    0.13291E-01   -0.14071E-01   720   0.148E-01    0.539E-01
DAV:   4    -0.656456884387E+03    0.12553E-02   -0.10389E-03   588   0.546E-02    0.158E-01
DAV:   5    -0.656456636438E+03    0.24795E-03   -0.12092E-04   396   0.218E-02    0.576E-02
DAV:   6    -0.656456618961E+03    0.17477E-04   -0.28732E-05   348   0.114E-02
  16 F= -.67141929E+03 E0= -.67135737E+03  d E =-.166380E-02
       N       E                     dE             d eps       ncg     rms          rms(c)
DAV:   1    -0.656456995477E+03   -0.35904E-03   -0.20680E-02   564   0.161E-01    0.575E-02
DAV:   2    -0.656457172255E+03   -0.17678E-03   -0.62293E-04   540   0.358E-02    0.228E-01
DAV:   3    -0.656457069952E+03    0.10230E-03   -0.16047E-04   408   0.248E-02    0.130E-01
DAV:   4    -0.656457125350E+03   -0.55398E-04   -0.13032E-04   420   0.244E-02
  17 F= -.67142011E+03 E0= -.67135871E+03  d E =-.818865E-03
       N       E                     dE             d eps       ncg     rms          rms(c)
DAV:   1    -0.656456890709E+03    0.17924E-03   -0.18615E-01   600   0.484E-01    0.199E-01
DAV:   2    -0.656462848717E+03   -0.59580E-02   -0.25839E-02   780   0.157E-01    0.156E+00
DAV:   3    -0.656458387556E+03    0.44612E-02   -0.24390E-02   636   0.114E-01    0.637E-01
DAV:   4    -0.656457600713E+03    0.78684E-03   -0.93754E-04   660   0.558E-02    0.185E-01
DAV:   5    -0.656457439198E+03    0.16152E-03   -0.46894E-04   648   0.410E-02    0.388E-01
DAV:   6    -0.656457342290E+03    0.96907E-04   -0.20132E-04   480   0.290E-02
  18 F= -.67142126E+03 E0= -.67136058E+03  d E =-.197672E-02
       N       E                     dE             d eps       ncg     rms          rms(c)
DAV:   1    -0.656457678040E+03   -0.23884E-03   -0.15961E-02   600   0.153E-01    0.302E-01
DAV:   2    -0.656507629267E+03   -0.49951E-01   -0.44720E-01   804   0.273E-01    0.383E+00
DAV:   3    -0.656460522588E+03    0.47107E-01   -0.32942E-01   732   0.306E-01    0.680E-01
DAV:   4    -0.656457970808E+03    0.25518E-02   -0.25035E-03   636   0.753E-02    0.217E-01
DAV:   5    -0.656457651678E+03    0.31913E-03   -0.32598E-04   504   0.294E-02    0.220E-01
DAV:   6    -0.656457585727E+03    0.65951E-04   -0.40433E-05   372   0.138E-02
  19 F= -.67142184E+03 E0= -.67135929E+03  d E =-.575601E-03
       N       E                     dE             d eps       ncg     rms          rms(c)
DAV:   1    -0.656457991713E+03   -0.34004E-03   -0.14571E-01   600   0.463E-01    0.249E-01
DAV:   2    -0.656478965745E+03   -0.20974E-01   -0.23609E-02   840   0.198E-01    0.249E+00
DAV:   3    -0.656459657705E+03    0.19308E-01   -0.15932E-02   780   0.206E-01    0.528E-01
DAV:   4    -0.656458911100E+03    0.74661E-03   -0.16574E-03   756   0.765E-02    0.404E-01
DAV:   5    -0.656458340157E+03    0.57094E-03   -0.54206E-04   624   0.413E-02    0.361E-01
DAV:   6    -0.656458142151E+03    0.19801E-03   -0.15570E-04   432   0.200E-02    0.229E-01
DAV:   7    -0.656458051288E+03    0.90863E-04   -0.13328E-04   468   0.207E-02
  20 F= -.67142330E+03 E0= -.67136142E+03  d E =-.203935E-02
       N       E                     dE             d eps       ncg     rms          rms(c)
DAV:   1    -0.656455194146E+03    0.29480E-02   -0.58242E-01   600   0.922E-01    0.289E-01
DAV:   2    -0.656457367636E+03   -0.21735E-02   -0.15417E-02   876   0.158E-01    0.789E-01
DAV:   3    -0.656460032433E+03   -0.26648E-02   -0.22723E-02   708   0.116E-01    0.136E+00
DAV:   4    -0.656456963426E+03    0.30690E-02   -0.14615E-02   600   0.947E-02    0.531E-01
DAV:   5    -0.656456226007E+03    0.73742E-03   -0.86696E-04   720   0.569E-02    0.163E-01
DAV:   6    -0.656456031896E+03    0.19411E-03   -0.56889E-04   660   0.434E-02    0.106E-01
DAV:   7    -0.656455925075E+03    0.10682E-03   -0.20486E-04   468   0.295E-02    0.955E-02
DAV:   8    -0.656455894944E+03    0.30131E-04   -0.45762E-05   396   0.160E-02
  21 F= -.67142315E+03 E0= -.67136165E+03  d E =-.188647E-02
       N       E                     dE             d eps       ncg     rms          rms(c)
DAV:   1    -0.656457427781E+03   -0.15027E-02   -0.17442E-01   600   0.510E-01    0.166E-01
DAV:   2    -0.656459231401E+03   -0.18036E-02   -0.61565E-03   828   0.985E-02    0.860E-01
DAV:   3    -0.656458444871E+03    0.78653E-03   -0.31704E-03   612   0.769E-02    0.563E-01
DAV:   4    -0.656457938128E+03    0.50674E-03   -0.56120E-04   564   0.499E-02    0.255E-01
DAV:   5    -0.656457720760E+03    0.21737E-03   -0.29691E-04   540   0.358E-02    0.122E-01
DAV:   6    -0.656457650914E+03    0.69846E-04   -0.12760E-04   468   0.210E-02
  22 F= -.67142381E+03 E0= -.67136147E+03  d E =-.254525E-02
       N       E                     dE             d eps       ncg     rms          rms(c)
DAV:   1    -0.656457426624E+03    0.29414E-03   -0.54067E-02   600   0.282E-01    0.183E-01
DAV:   2    -0.656470268023E+03   -0.12841E-01   -0.11250E-02   828   0.149E-01    0.211E+00
DAV:   3    -0.656458398012E+03    0.11870E-01   -0.96342E-03   684   0.163E-01    0.515E-01
DAV:   4    -0.656457797393E+03    0.60062E-03   -0.68988E-04   492   0.498E-02    0.298E-01
DAV:   5    -0.656457509282E+03    0.28811E-03   -0.17261E-04   372   0.249E-02    0.157E-01
DAV:   6    -0.656457429406E+03    0.79876E-04   -0.67712E-05   348   0.157E-02
  23 F= -.67142461E+03 E0= -.67136264E+03  d E =-.797316E-03
       N       E                     dE             d eps       ncg     rms          rms(c)
DAV:   1    -0.656455880968E+03    0.16283E-02   -0.21536E-01   600   0.570E-01    0.269E-01
DAV:   2    -0.656476144259E+03   -0.20263E-01   -0.19033E-02   840   0.204E-01    0.246E+00
DAV:   3    -0.656457732166E+03    0.18412E-01   -0.16976E-02   792   0.216E-01    0.670E-01
DAV:   4    -0.656456993007E+03    0.73916E-03   -0.13009E-03   696   0.702E-02    0.529E-01
DAV:   5    -0.656456257554E+03    0.73545E-03   -0.46805E-04   564   0.398E-02    0.264E-01
DAV:   6    -0.656456060119E+03    0.19744E-03   -0.22693E-04   516   0.275E-02    0.124E-01
DAV:   7    -0.656456079703E+03   -0.19584E-04   -0.13881E-04   384   0.170E-02
  24 F= -.67142530E+03 E0= -.67136306E+03  d E =-.149141E-02
       N       E                     dE             d eps       ncg     rms          rms(c)
DAV:   1    -0.656455390943E+03    0.66918E-03   -0.66894E-02   612   0.317E-01    0.231E-01
DAV:   2    -0.656472452766E+03   -0.17062E-01   -0.15258E-02   888   0.183E-01    0.234E+00
DAV:   3    -0.656456900703E+03    0.15552E-01   -0.13762E-02   756   0.194E-01    0.616E-01
DAV:   4    -0.656456230797E+03    0.66991E-03   -0.97091E-04   636   0.629E-02    0.485E-01
DAV:   5    -0.656455645212E+03    0.58558E-03   -0.27046E-04   432   0.321E-02    0.261E-01
DAV:   6    -0.656455444234E+03    0.20098E-03   -0.12435E-04   444   0.191E-02    0.509E-02
DAV:   7    -0.656455503794E+03   -0.59559E-04   -0.10073E-04   372   0.181E-02
  25 F= -.67142600E+03 E0= -.67136396E+03  d E =-.704173E-03
       N       E                     dE             d eps       ncg     rms          rms(c)
DAV:   1    -0.656455192308E+03    0.25193E-03   -0.37238E-03   588   0.767E-02    0.115E-01
DAV:   2    -0.656461696756E+03   -0.65044E-02   -0.48581E-03   636   0.100E-01    0.160E+00
DAV:   3    -0.656455509827E+03    0.61869E-02   -0.41173E-03   564   0.124E-01    0.313E-01
DAV:   4    -0.656455307484E+03    0.20234E-03   -0.44124E-04   492   0.404E-02    0.158E-01
DAV:   5    -0.656455196366E+03    0.11112E-03   -0.68097E-05   360   0.168E-02    0.104E-01
DAV:   6    -0.656455181236E+03    0.15130E-04   -0.16511E-05   336   0.905E-03
  26 F= -.67142599E+03 E0= -.67136444E+03  d E =-.686337E-03
       N       E                     dE             d eps       ncg     rms          rms(c)
DAV:   1    -0.656455242913E+03   -0.46547E-04   -0.24309E-04   468   0.205E-02    0.165E-02
DAV:   2    -0.656455351466E+03   -0.10855E-03   -0.11261E-04   384   0.154E-02    0.209E-01
DAV:   3    -0.656455260741E+03    0.90726E-04   -0.72629E-05   396   0.168E-02
  27 F= -.67142599E+03 E0= -.67136437E+03  d E =-.693531E-03
       N       E                     dE             d eps       ncg     rms          rms(c)
DAV:   1    -0.656454992880E+03    0.35859E-03   -0.17120E-02   600   0.178E-01    0.942E-02
DAV:   2    -0.656457494636E+03   -0.25018E-02   -0.20267E-03   780   0.762E-02    0.102E+00
DAV:   3    -0.656455220510E+03    0.22741E-02   -0.18135E-03   552   0.747E-02    0.288E-01
DAV:   4    -0.656455195069E+03    0.25442E-04   -0.29781E-04   480   0.383E-02
  28 F= -.67142641E+03 E0= -.67136498E+03  d E =-.417400E-03
       N       E                     dE             d eps       ncg     rms          rms(c)
DAV:   1    -0.656454755879E+03    0.46463E-03   -0.56081E-03   564   0.104E-01    0.666E-02
DAV:   2    -0.656456210074E+03   -0.14542E-02   -0.16256E-03   516   0.577E-02    0.824E-01
DAV:   3    -0.656454875183E+03    0.13349E-02   -0.11842E-03   444   0.510E-02    0.170E-01
DAV:   4    -0.656454795491E+03    0.79692E-04   -0.11349E-04   420   0.203E-02
  29 F= -.67142629E+03 E0= -.67136413E+03  d E =-.297619E-03
       N       E                     dE             d eps       ncg     rms          rms(c)
DAV:   1    -0.656454536661E+03    0.33852E-03   -0.11829E-02   588   0.146E-01    0.751E-02
DAV:   2    -0.656456273909E+03   -0.17372E-02   -0.14723E-03   720   0.569E-02    0.872E-01
DAV:   3    -0.656454656191E+03    0.16177E-02   -0.12163E-03   516   0.618E-02    0.213E-01
DAV:   4    -0.656454628426E+03    0.27764E-04   -0.16052E-04   456   0.278E-02
  30 F= -.67142646E+03 E0= -.67136516E+03  d E =-.172715E-03
       N       E                     dE             d eps       ncg     rms          rms(c)
DAV:   1    -0.656454474137E+03    0.18205E-03   -0.11798E-03   588   0.490E-02    0.103E-01
DAV:   2    -0.656459901562E+03   -0.54274E-02   -0.25619E-02   672   0.905E-02    0.157E+00
DAV:   3    -0.656455206685E+03    0.46949E-02   -0.26433E-02   564   0.952E-02    0.377E-01
DAV:   4    -0.656454541047E+03    0.66564E-03   -0.42055E-04   480   0.373E-02    0.540E-02
DAV:   5    -0.656454469765E+03    0.71282E-04   -0.48013E-05   384   0.147E-02
  31 F= -.67142641E+03 E0= -.67136465E+03  d E =-.119925E-03
       N       E                     dE             d eps       ncg     rms          rms(c)
DAV:   1    -0.656454395033E+03    0.14601E-03   -0.16889E-02   600   0.170E-01    0.813E-02
DAV:   2    -0.656454795074E+03   -0.40004E-03   -0.70532E-04   528   0.444E-02    0.413E-01
DAV:   3    -0.656454706822E+03    0.88252E-04   -0.69610E-04   480   0.422E-02
  32 F= -.67142684E+03 E0= -.67136638E+03  d E =-.427073E-03
       N       E                     dE             d eps       ncg     rms          rms(c)
DAV:   1    -0.656454354310E+03    0.44076E-03   -0.10667E-02   624   0.138E-01    0.817E-02
DAV:   2    -0.656455978814E+03   -0.16245E-02   -0.11482E-02   708   0.733E-02    0.670E-01
DAV:   3    -0.656455124766E+03    0.85405E-03   -0.32013E-03   576   0.677E-02    0.562E-01
DAV:   4    -0.656454390793E+03    0.73397E-03   -0.35846E-04   540   0.398E-02    0.152E-01
DAV:   5    -0.656454370085E+03    0.20708E-04   -0.45399E-05   372   0.164E-02
  33 F= -.67142665E+03 E0= -.67136573E+03  d E =-.241692E-03
       N       E                     dE             d eps       ncg     rms          rms(c)
DAV:   1    -0.656454446618E+03   -0.55825E-04   -0.14009E-02   612   0.148E-01    0.234E-01
DAV:   2    -0.656481390460E+03   -0.26944E-01   -0.23716E-01   756   0.201E-01    0.318E+00
DAV:   3    -0.656457039954E+03    0.24351E-01   -0.24016E-01   684   0.206E-01    0.732E-01
DAV:   4    -0.656454764180E+03    0.22758E-02   -0.17117E-03   540   0.673E-02    0.122E-01
DAV:   5    -0.656454411539E+03    0.35264E-03   -0.22669E-04   468   0.276E-02    0.566E-02
DAV:   6    -0.656454386776E+03    0.24763E-04   -0.46866E-05   372   0.159E-02
  34 F= -.67142668E+03 E0= -.67136471E+03  d E =-.299609E-04
       N       E                     dE             d eps       ncg     rms          rms(c)
DAV:   1    -0.656454380567E+03    0.30972E-04   -0.89352E-04   588   0.390E-02    0.349E-02
DAV:   2    -0.656454653797E+03   -0.27323E-03   -0.23237E-04   420   0.241E-02    0.339E-01
DAV:   3    -0.656454398829E+03    0.25497E-03   -0.17485E-04   432   0.247E-02    0.854E-02
DAV:   4    -0.656454401555E+03   -0.27267E-05   -0.36100E-05   360   0.140E-02
  35 F= -.67142670E+03 E0= -.67136530E+03  d E =-.481078E-04
       N       E                     dE             d eps       ncg     rms          rms(c)
DAV:   1    -0.656454373580E+03    0.25248E-04   -0.35174E-03   588   0.747E-02    0.638E-02
DAV:   2    -0.656455810884E+03   -0.14373E-02   -0.17755E-03   480   0.500E-02    0.822E-01
DAV:   3    -0.656454576632E+03    0.12343E-02   -0.18117E-03   456   0.529E-02    0.248E-01
DAV:   4    -0.656454448680E+03    0.12795E-03   -0.12301E-04   420   0.228E-02    0.111E-01
DAV:   5    -0.656454378453E+03    0.70228E-04   -0.30181E-05   372   0.127E-02
  36 F= -.67142668E+03 E0= -.67136500E+03  d E =-.318273E-04
       N       E                     dE             d eps       ncg     rms          rms(c)
DAV:   1    -0.656454412507E+03    0.36173E-04   -0.10308E-02   624   0.130E-01    0.400E-02
DAV:   2    -0.656454438197E+03   -0.25690E-04   -0.28237E-04   516   0.278E-02
  37 F= -.67142680E+03 E0= -.67136523E+03  d E =-.112630E-03
       N       E                     dE             d eps       ncg     rms          rms(c)
DAV:   1    -0.656454490439E+03   -0.77932E-04   -0.10775E-02   624   0.134E-01    0.157E-01
DAV:   2    -0.656468899107E+03   -0.14409E-01   -0.11275E-02   792   0.153E-01    0.222E+00
DAV:   3    -0.656455156107E+03    0.13743E-01   -0.81365E-03   660   0.150E-01    0.198E-01
DAV:   4    -0.656454716869E+03    0.43924E-03   -0.72209E-04   540   0.472E-02    0.344E-01
DAV:   5    -0.656454562728E+03    0.15414E-03   -0.87856E-05   396   0.195E-02    0.214E-01
DAV:   6    -0.656454496855E+03    0.65873E-04   -0.34726E-05   348   0.144E-02
  38 F= -.67142691E+03 E0= -.67136595E+03  d E =-.225512E-03
       N       E                     dE             d eps       ncg     rms          rms(c)
DAV:   1    -0.656454209665E+03    0.35306E-03   -0.42092E-02   624   0.265E-01    0.926E-02
DAV:   2    -0.656454880062E+03   -0.67040E-03   -0.19509E-03   804   0.764E-02    0.510E-01
DAV:   3    -0.656454695309E+03    0.18475E-03   -0.10698E-03   492   0.502E-02    0.441E-01
DAV:   4    -0.656454372651E+03    0.32266E-03   -0.10826E-04   432   0.243E-02    0.122E-01
DAV:   5    -0.656454343990E+03    0.28661E-04   -0.41049E-05   360   0.107E-02
  39 F= -.67142687E+03 E0= -.67136585E+03  d E =-.182109E-03
       N       E                     dE             d eps       ncg     rms          rms(c)
DAV:   1    -0.656454419231E+03   -0.46580E-04   -0.76628E-03   612   0.113E-01    0.173E-01
DAV:   2    -0.656471070784E+03   -0.16652E-01   -0.14462E-01   816   0.158E-01    0.264E+00
DAV:   3    -0.656456111778E+03    0.14959E-01   -0.15435E-01   708   0.160E-01    0.550E-01
DAV:   4    -0.656454650381E+03    0.14614E-02   -0.10565E-03   552   0.578E-02    0.137E-01
DAV:   5    -0.656454458847E+03    0.19153E-03   -0.21028E-04   384   0.270E-02    0.120E-01
DAV:   6    -0.656454404760E+03    0.54087E-04   -0.36672E-05   360   0.160E-02
  40 F= -.67142688E+03 E0= -.67136490E+03  d E =-.197663E-03
       N       E                     dE             d eps       ncg     rms          rms(c)
DAV:   1    -0.656454422631E+03    0.36216E-04   -0.36326E-03   588   0.785E-02    0.860E-02
DAV:   2    -0.656458204585E+03   -0.37820E-02   -0.30988E-03   492   0.804E-02    0.126E+00
DAV:   3    -0.656454595979E+03    0.36086E-02   -0.24352E-03   504   0.845E-02    0.281E-01
DAV:   4    -0.656454476248E+03    0.11973E-03   -0.25470E-04   432   0.275E-02    0.572E-02
DAV:   5    -0.656454426769E+03    0.49480E-04   -0.27721E-05   372   0.109E-02
  41 F= -.67142687E+03 E0= -.67136513E+03  d E =-.187491E-03
       N       E                     dE             d eps       ncg     rms          rms(c)
DAV:   1    -0.656454390325E+03    0.85923E-04   -0.55551E-03   600   0.950E-02    0.612E-02
DAV:   2    -0.656455103065E+03   -0.71274E-03   -0.69361E-04   576   0.420E-02    0.552E-01
DAV:   3    -0.656454558348E+03    0.54472E-03   -0.65205E-04   480   0.462E-02    0.238E-01
DAV:   4    -0.656454491798E+03    0.66550E-04   -0.14131E-04   456   0.268E-02
  42 F= -.67142706E+03 E0= -.67136577E+03  d E =-.183682E-03
