 vasp.5.4.1 05Feb16 (build Apr 21 2017 13:36:42) gamma-only                     
  
 executed on           IFC91_ompi date 2020.09.15  08:13:44
 running on   36 total cores
 distrk:  each k-point on   36 cores,    1 groups
 distr:  one band on NCORES_PER_BAND=   3 cores,   12 groups


--------------------------------------------------------------------------------------------------------


 INCAR:
 POTCAR:    PAW_PBE C 08Apr2002                   
 POTCAR:    PAW_PBE Co 02Aug2007                  
 POTCAR:    PAW_PBE H 15Jun2001                   
 POTCAR:    PAW_PBE Mo 08Apr2002                  
 POTCAR:    PAW_PBE S 06Sep2000                   
 POTCAR:    PAW_PBE C 08Apr2002                   
   VRHFIN =C: s2p2                                                              
   LEXCH  = PE                                                                  
   EATOM  =   147.1560 eV,   10.8157 Ry                                         
                                                                                
   TITEL  = PAW_PBE C 08Apr2002                                                 
   LULTRA =        F    use ultrasoft PP ?                                      
   IUNSCR =        1    unscreen: 0-lin 1-nonlin 2-no                           
   RPACOR =    1.200    partial core radius                                     
   POMASS =   12.011; ZVAL   =    4.000    mass and valenz                      
   RCORE  =    1.500    outmost cutoff radius                                   
   RWIGS  =    1.630; RWIGS  =    0.863    wigner-seitz radius (au A)           
   ENMAX  =  400.000; ENMIN  =  300.000 eV                                      
   ICORE  =        2    local potential                                         
   LCOR   =        T    correct aug charges                                     
   LPAW   =        T    paw PP                                                  
   EAUG   =  644.873                                                            
   DEXC   =    0.000                                                            
   RMAX   =    1.529    core radius for proj-oper                               
   RAUG   =    1.300    factor for augmentation sphere                          
   RDEP   =    1.501    radius for radial grids                                 
   RDEPT  =    1.300    core radius for aug-charge                              
                                                                                
   Atomic configuration                                                         
    4 entries                                                                   
     n  l   j            E        occ.                                          
     1  0  0.50      -273.3789   2.0000                                         
     2  0  0.50       -13.7508   2.0000                                         
     2  1  0.50        -5.2854   2.0000                                         
     3  2  1.50        -5.4423   0.0000                                         
   Description                                                                  
     l       E           TYP  RCUT    TYP  RCUT                                 
     0    -13.7508458     23  1.200                                             
     0     -8.2022199     23  1.200                                             
     1     -5.2854383     23  1.500                                             
     1     34.0145650     23  1.500                                             
     2     -5.4423304      7  1.500                                             
  local pseudopotential read in
  partial core-charges read in
  partial kinetic energy density read in
  atomic valenz-charges read in
  non local Contribution for L=           0  read in
    real space projection operators read in
  non local Contribution for L=           0  read in
    real space projection operators read in
  non local Contribution for L=           1  read in
    real space projection operators read in
  non local Contribution for L=           1  read in
    real space projection operators read in
    PAW grid and wavefunctions read in
 
   number of l-projection  operators is LMAX  =           4
   number of lm-projection operators is LMMAX =           8
 
 POTCAR:    PAW_PBE Co 02Aug2007                  
   VRHFIN =Co: d8 s1                                                            
   LEXCH  = PE                                                                  
   EATOM  =   813.3670 eV,   59.7808 Ry                                         
                                                                                
   TITEL  = PAW_PBE Co 02Aug2007                                                
   LULTRA =        F    use ultrasoft PP ?                                      
   IUNSCR =        1    unscreen: 0-lin 1-nonlin 2-no                           
   RPACOR =    2.000    partial core radius                                     
   POMASS =   58.933; ZVAL   =    9.000    mass and valenz                      
   RCORE  =    2.300    outmost cutoff radius                                   
   RWIGS  =    2.460; RWIGS  =    1.302    wigner-seitz radius (au A)           
   ENMAX  =  267.968; ENMIN  =  200.976 eV                                      
   RCLOC  =    1.203    cutoff for local pot                                    
   LCOR   =        T    correct aug charges                                     
   LPAW   =        T    paw PP                                                  
   EAUG   =  477.818                                                            
   DEXC   =    0.000                                                            
   RMAX   =    2.360    core radius for proj-oper                               
   RAUG   =    1.300    factor for augmentation sphere                          
   RDEP   =    2.393    radius for radial grids                                 
   RDEPT  =    1.864    core radius for aug-charge                              
                                                                                
   Atomic configuration                                                         
    9 entries                                                                   
     n  l   j            E        occ.                                          
     1  0  0.50     -7587.6674   2.0000                                         
     2  0  0.50      -893.6084   2.0000                                         
     2  1  1.50      -764.5805   6.0000                                         
     3  0  0.50       -97.5973   2.0000                                         
     3  1  1.50       -60.9648   6.0000                                         
     3  2  2.50        -4.2382   8.0000                                         
     4  0  0.50        -4.3746   1.0000                                         
     4  1  1.50        -4.0817   0.0000                                         
     4  3  2.50        -1.3606   0.0000                                         
   Description                                                                  
     l       E           TYP  RCUT    TYP  RCUT                                 
     2     -4.2382362     23  2.300                                             
     2     -5.5988188     23  2.300                                             
     0     -4.3745797     23  2.300                                             
     0      5.7660125     23  2.300                                             
     1     -2.7211652     23  2.300                                             
     1     16.9860234     23  2.300                                             
  local pseudopotential read in
  partial core-charges read in
  partial kinetic energy density read in
  atomic valenz-charges read in
  non local Contribution for L=           2  read in
    real space projection operators read in
  non local Contribution for L=           2  read in
    real space projection operators read in
  non local Contribution for L=           0  read in
    real space projection operators read in
  non local Contribution for L=           0  read in
    real space projection operators read in
  non local Contribution for L=           1  read in
    real space projection operators read in
  non local Contribution for L=           1  read in
    real space projection operators read in
    PAW grid and wavefunctions read in
 
   number of l-projection  operators is LMAX  =           6
   number of lm-projection operators is LMMAX =          18
 
 POTCAR:    PAW_PBE H 15Jun2001                   
   VRHFIN =H: ultrasoft test                                                    
   LEXCH  = PE                                                                  
   EATOM  =    12.4884 eV,    0.9179 Ry                                         
                                                                                
   TITEL  = PAW_PBE H 15Jun2001                                                 
   LULTRA =        F    use ultrasoft PP ?                                      
   IUNSCR =        0    unscreen: 0-lin 1-nonlin 2-no                           
   RPACOR =    0.000    partial core radius                                     
   POMASS =    1.000; ZVAL   =    1.000    mass and valenz                      
   RCORE  =    1.100    outmost cutoff radius                                   
   RWIGS  =    0.700; RWIGS  =    0.370    wigner-seitz radius (au A)           
   ENMAX  =  250.000; ENMIN  =  200.000 eV                                      
   RCLOC  =    0.701    cutoff for local pot                                    
   LCOR   =        T    correct aug charges                                     
   LPAW   =        T    paw PP                                                  
   EAUG   =  400.000                                                            
   RMAX   =    1.123    core radius for proj-oper                               
   RAUG   =    1.200    factor for augmentation sphere                          
   RDEP   =    1.112    radius for radial grids                                 
   RDEPT  =    0.926    core radius for aug-charge                              
                                                                                
   Atomic configuration                                                         
    2 entries                                                                   
     n  l   j            E        occ.                                          
     1  0  0.50        -6.4927   1.0000                                         
     2  1  0.50        -3.4015   0.0000                                         
   Description                                                                  
     l       E           TYP  RCUT    TYP  RCUT                                 
     0     -6.4927494     23  1.100                                             
     0      6.8029130     23  1.100                                             
     1     -4.0817478     23  1.100                                             
  local pseudopotential read in
  atomic valenz-charges read in
  non local Contribution for L=           0  read in
    real space projection operators read in
  non local Contribution for L=           0  read in
    real space projection operators read in
  non local Contribution for L=           1  read in
    real space projection operators read in
    PAW grid and wavefunctions read in
 
   number of l-projection  operators is LMAX  =           3
   number of lm-projection operators is LMMAX =           5
 
 POTCAR:    PAW_PBE Mo 08Apr2002                  
   VRHFIN =Mo: 4p5s4d                                                           
   LEXCH  = PE                                                                  
   EATOM  =   217.5176 eV,   15.9871 Ry                                         
                                                                                
   TITEL  = PAW_PBE Mo 08Apr2002                                                
   LULTRA =        F    use ultrasoft PP ?                                      
   IUNSCR =        1    unscreen: 0-lin 1-nonlin 2-no                           
   RPACOR =    2.200    partial core radius                                     
   POMASS =   95.940; ZVAL   =    6.000    mass and valenz                      
   RCORE  =    2.750    outmost cutoff radius                                   
   RWIGS  =    2.750; RWIGS  =    1.455    wigner-seitz radius (au A)           
   ENMAX  =  224.584; ENMIN  =  168.438 eV                                      
   RCLOC  =    2.111    cutoff for local pot                                    
   LCOR   =        T    correct aug charges                                     
   LPAW   =        T    paw PP                                                  
   EAUG   =  345.278                                                            
   DEXC   =    0.000                                                            
   RMAX   =    2.821    core radius for proj-oper                               
   RAUG   =    1.300    factor for augmentation sphere                          
   RDEP   =    2.815    radius for radial grids                                 
   RDEPT  =    2.211    core radius for aug-charge                              
                                                                                
   Atomic configuration                                                         
   12 entries                                                                   
     n  l   j            E        occ.                                          
     1  0  0.50    -19819.0341   2.0000                                         
     2  0  0.50     -2799.0127   2.0000                                         
     2  1  1.50     -2502.0276   6.0000                                         
     3  0  0.50      -476.4448   2.0000                                         
     3  1  1.50      -379.1496   6.0000                                         
     3  2  2.50      -220.9367  10.0000                                         
     4  0  0.50       -64.3378   2.0000                                         
     4  1  1.50       -38.4773   6.0000                                         
     4  2  2.50        -3.7535   5.0000                                         
     5  0  0.50        -4.0862   1.0000                                         
     5  1  0.50        -2.7701   0.0000                                         
     4  3  2.50        -1.3606   0.0000                                         
   Description                                                                  
     l       E           TYP  RCUT    TYP  RCUT                                 
     2     -3.7534765     23  2.500                                             
     2     -5.1140591     23  2.500                                             
     0     -4.0861560     23  2.600                                             
     0     13.6058260     23  2.600                                             
     1      5.4423304     23  2.750                                             
     1     27.2116520     23  2.750                                             
  local pseudopotential read in
  partial core-charges read in
  partial kinetic energy density read in
  atomic valenz-charges read in
  non local Contribution for L=           2  read in
    real space projection operators read in
  non local Contribution for L=           2  read in
    real space projection operators read in
  non local Contribution for L=           0  read in
    real space projection operators read in
  non local Contribution for L=           0  read in
    real space projection operators read in
  non local Contribution for L=           1  read in
    real space projection operators read in
  non local Contribution for L=           1  read in
    real space projection operators read in
    PAW grid and wavefunctions read in
 
   number of l-projection  operators is LMAX  =           6
   number of lm-projection operators is LMMAX =          18
 
 POTCAR:    PAW_PBE S 06Sep2000                   
   VRHFIN =S : s2p4                                                             
   LEXCH  = PE                                                                  
   EATOM  =   276.8230 eV,   20.3459 Ry                                         
                                                                                
   TITEL  = PAW_PBE S 06Sep2000                                                 
   LULTRA =        F    use ultrasoft PP ?                                      
   IUNSCR =        1    unscreen: 0-lin 1-nonlin 2-no                           
   RPACOR =    1.500    partial core radius                                     
   POMASS =   32.066; ZVAL   =    6.000    mass and valenz                      
   RCORE  =    1.900    outmost cutoff radius                                   
   RWIGS  =    2.200; RWIGS  =    1.164    wigner-seitz radius (au A)           
   ENMAX  =  258.689; ENMIN  =  194.016 eV                                      
   ICORE  =        2    local potential                                         
   LCOR   =        T    correct aug charges                                     
   LPAW   =        T    paw PP                                                  
   EAUG   =  335.092                                                            
   DEXC   =    0.000                                                            
   RMAX   =    1.942    core radius for proj-oper                               
   RAUG   =    1.300    factor for augmentation sphere                          
   RDEP   =    1.954    radius for radial grids                                 
   RDEPT  =    1.744    core radius for aug-charge                              
                                                                                
   Atomic configuration                                                         
    6 entries                                                                   
     n  l   j            E        occ.                                          
     1  0  0.50     -2405.8406   2.0000                                         
     2  0  0.50      -211.7007   2.0000                                         
     2  1  1.50      -156.4958   6.0000                                         
     3  0  0.50       -17.2562   2.0000                                         
     3  1  0.50        -7.0085   4.0000                                         
     3  2  1.50        -6.8029   0.0000                                         
   Description                                                                  
     l       E           TYP  RCUT    TYP  RCUT                                 
     0    -17.2561641     23  1.900                                             
     0    -15.8743224     23  1.900                                             
     1     -7.0085400     23  1.900                                             
     1     -2.7779785     23  1.900                                             
     2     -6.8029130     23  1.900                                             
  local pseudopotential read in
  partial core-charges read in
  partial kinetic energy density read in
  atomic valenz-charges read in
  non local Contribution for L=           0  read in
    real space projection operators read in
  non local Contribution for L=           0  read in
    real space projection operators read in
  non local Contribution for L=           1  read in
    real space projection operators read in
  non local Contribution for L=           1  read in
    real space projection operators read in
    PAW grid and wavefunctions read in
 
   number of l-projection  operators is LMAX  =           4
   number of lm-projection operators is LMMAX =           8
 
 Optimization of the real space projectors (new method)

 maximal supplied QI-value         = 25.13
 optimisation between [QCUT,QGAM] = [ 10.05, 20.36] = [ 28.30,116.06] Ry 
 Optimized for a Real-space Cutoff    1.51 Angstroem

   l    n(q)    QCUT    max X(q) W(low)/X(q) W(high)/X(q)  e(spline) 
   0      9    10.053   115.676    0.19E-03    0.21E-03    0.38E-06
   0      9    10.053    87.132    0.19E-03    0.21E-03    0.38E-06
   1      9    10.053     4.429    0.87E-04    0.11E-03    0.39E-06
   1      9    10.053     2.733    0.59E-04    0.62E-04    0.43E-06
 Optimization of the real space projectors (new method)

 maximal supplied QI-value         = 16.25
 optimisation between [QCUT,QGAM] = [ 10.24, 20.48] = [ 29.35,117.42] Ry 
 Optimized for a Real-space Cutoff    1.51 Angstroem

   l    n(q)    QCUT    max X(q) W(low)/X(q) W(high)/X(q)  e(spline) 
   2      8    10.239    65.824    0.20E-03    0.32E-03    0.24E-06
   2      8    10.239    61.429    0.20E-03    0.32E-03    0.24E-06
   0      9    10.239    56.174    0.11E-03    0.60E-04    0.77E-07
   0      9    10.239    31.263    0.96E-04    0.56E-04    0.69E-07
   1      9    10.239    19.828    0.36E-04    0.15E-03    0.11E-06
   1      9    10.239    15.139    0.28E-04    0.12E-03    0.10E-06
 Optimization of the real space projectors (new method)

 maximal supplied QI-value         = 34.20
 optimisation between [QCUT,QGAM] = [  9.92, 20.18] = [ 27.55,114.04] Ry 
 Optimized for a Real-space Cutoff    1.34 Angstroem

   l    n(q)    QCUT    max X(q) W(low)/X(q) W(high)/X(q)  e(spline) 
   0      8     9.919    19.460    0.16E-03    0.20E-03    0.36E-06
   0      8     9.919    12.209    0.16E-03    0.20E-03    0.35E-06
   1      8     9.919     4.655    0.19E-03    0.46E-03    0.40E-06
 Optimization of the real space projectors (new method)

 maximal supplied QI-value         = 13.61
 optimisation between [QCUT,QGAM] = [ 10.20, 20.41] = [ 29.16,116.64] Ry 
 Optimized for a Real-space Cutoff    1.65 Angstroem

   l    n(q)    QCUT    max X(q) W(low)/X(q) W(high)/X(q)  e(spline) 
   2      9    10.205    80.908    0.21E-03    0.30E-03    0.60E-06
   2      9    10.205    79.000    0.21E-03    0.30E-03    0.60E-06
   0     10    10.205    52.066    0.39E-04    0.38E-04    0.19E-06
   0     10    10.205    24.514    0.33E-04    0.32E-04    0.16E-06
   1     10    10.205    16.033    0.64E-04    0.17E-03    0.19E-06
   1     10    10.205    11.179    0.49E-04    0.13E-03    0.15E-06
 Optimization of the real space projectors (new method)

 maximal supplied QI-value         = 19.84
 optimisation between [QCUT,QGAM] = [ 10.12, 20.44] = [ 28.68,116.96] Ry 
 Optimized for a Real-space Cutoff    1.42 Angstroem

   l    n(q)    QCUT    max X(q) W(low)/X(q) W(high)/X(q)  e(spline) 
   0      9    10.119   187.594    0.52E-04    0.93E-04    0.64E-07
   0      9    10.119   164.243    0.51E-04    0.92E-04    0.63E-07
   1      8    10.119    67.533    0.16E-03    0.17E-03    0.23E-06
   1      8    10.119    50.729    0.16E-03    0.16E-03    0.23E-06
  PAW_PBE C 08Apr2002                   :
 energy of atom  1       EATOM= -147.1560
 kinetic energy error for atom=    0.0288 (will be added to EATOM!!)
  PAW_PBE Co 02Aug2007                  :
 energy of atom  2       EATOM= -813.3670
 kinetic energy error for atom=    0.0093 (will be added to EATOM!!)
  PAW_PBE H 15Jun2001                   :
 energy of atom  3       EATOM=  -12.4884
 kinetic energy error for atom=    0.0098 (will be added to EATOM!!)
  PAW_PBE Mo 08Apr2002                  :
 energy of atom  4       EATOM= -217.5176
 kinetic energy error for atom=    0.0025 (will be added to EATOM!!)
  PAW_PBE S 06Sep2000                   :
 energy of atom  5       EATOM= -276.8230
 kinetic energy error for atom=    0.0046 (will be added to EATOM!!)
 
 
 POSCAR:  C Co  H Mo  S                          
  positions in cartesian coordinates
  No initial velocities read in
 exchange correlation table for  LEXCH =        8
   RHO(1)=    0.500       N(1)  =     2000
   RHO(2)=  100.500       N(2)  =     4000

 VTST: version 3.1, (03/28/14)

 CHAIN: initializing optimizer
 
 OPT: Using VASP Conjugate-Gradient optimizer
 CHAIN: Read ICHAIN            0
 
 POSCAR:  C Co  H Mo  S                          
  positions in cartesian coordinates
  No initial velocities read in
 


--------------------------------------------------------------------------------------------------------


 ion  position               nearest neighbor table
   1  0.193  0.320  0.439-  18 1.09   2 1.43   3 1.43  11 2.09
   2  0.026  0.248  0.428-  17 1.09   1 1.43   5 1.43  11 2.09
   3  0.206  0.301  0.479-  19 1.09   1 1.43   4 1.43  11 2.09
   4  0.049  0.216  0.493-  20 1.09   5 1.43   3 1.43  11 2.09
   5  0.937  0.184  0.462-  12 1.09   4 1.43   2 1.43  11 2.08
   6  0.018  0.507  0.449-  16 1.09  10 1.43   8 1.43  11 2.09
   7  0.935  0.427  0.510-  15 1.09   8 1.43   9 1.43  11 2.09
   8  0.881  0.426  0.471-  13 1.09   7 1.43   6 1.43  11 2.08
   9  0.105  0.509  0.511-  14 1.09   7 1.43  10 1.43  11 2.09
  10  0.157  0.558  0.473-  21 1.09   6 1.43   9 1.43  11 2.09
  11  0.052  0.370  0.471-   8 2.08   5 2.08   2 2.09   7 2.09   4 2.09   9 2.09   3 2.09   6 2.09
                            10 2.09   1 2.09
  12  0.808  0.124  0.463-   5 1.09
  13  0.758  0.371  0.461-   8 1.09
  14  0.183  0.528  0.536-   9 1.09
  15  0.860  0.373  0.533-   7 1.09
  16  0.017  0.525  0.418-   6 1.09
  17  0.976  0.245  0.400-   2 1.09
  18  0.290  0.381  0.420-   1 1.09
  19  0.317  0.344  0.496-   3 1.09
  20  0.018  0.184  0.522-   4 1.09
  21  0.280  0.622  0.464-  10 1.09
  22  0.556  0.083  0.250-  46 2.42  67 2.42  48 2.42  66 2.42  76 2.42  78 2.42  23 3.19  27 3.19
                            37 3.19  43 3.19  29 3.19  38 3.19
  23  0.556  0.333  0.250-  52 2.42  76 2.42  65 2.42  78 2.42  80 2.42  82 2.42  22 3.19  25 3.19
                            29 3.19  42 3.19  32 3.19  43 3.19
  24  0.444  0.417  0.750-  90 2.42  87 2.42  84 2.42  89 2.42  81 2.42  83 2.42  26 3.19  39 3.19
                            31 3.19  41 3.19  33 3.19  44 3.19
  25  0.556  0.583  0.250-  59 2.42  80 2.42  61 2.42  82 2.42  86 2.42  88 2.42  23 3.19  27 3.19
                            32 3.19  40 3.19  34 3.19  42 3.19
  26  0.444  0.667  0.750-  69 2.42  92 2.42  68 2.42  55 2.42  87 2.42  89 2.42  24 3.19  28 3.19
                            33 3.19  45 3.19  35 3.19  41 3.19
  27  0.556  0.833  0.250-  63 2.42  86 2.42  75 2.42  88 2.42  67 2.42  66 2.42  22 3.19  25 3.19
                            34 3.19  38 3.19  37 3.19  40 3.19
  28  0.444  0.917  0.750-  71 2.42  77 2.42  73 2.42  79 2.42  92 2.42  55 2.42  26 3.19  39 3.19
                            35 3.19  36 3.19  30 3.19  45 3.19
  29  0.889  0.333  0.250-  91 2.42  46 2.42  85 2.42  48 2.42  52 2.42  65 2.42  32 3.19  37 3.19
                            23 3.19  42 3.19  22 3.19  40 3.19
  30  0.778  0.167  0.750-  77 2.42  53 2.42  79 2.42  56 2.42  47 2.42  49 2.42  31 3.19  35 3.19
                            39 3.19  44 3.19  28 3.19  41 3.19
  31  0.778  0.417  0.750-  81 2.42  60 2.42  83 2.42  62 2.42  53 2.42  56 2.42  30 3.19  33 3.19
                            24 3.19  41 3.19  39 3.19  45 3.19
  32  0.889  0.583  0.250-  74 2.42  52 2.42  54 2.42  65 2.42  59 2.42  61 2.42  29 3.19  34 3.19
                            25 3.19  40 3.19  23 3.19  38 3.19
  33  0.778  0.667  0.750-  87 2.42  64 2.42  89 2.42  93 2.42  60 2.42  62 2.42  31 3.19  35 3.19
                            26 3.19  45 3.19  24 3.19  36 3.19
  34  0.889  0.833  0.250-  70 2.42  59 2.42  72 2.42  61 2.42  63 2.42  75 2.42  32 3.19  37 3.19
                            27 3.19  38 3.19  25 3.19  43 3.19
  35  0.778  0.917  0.750-  92 2.42  47 2.42  55 2.42  49 2.42  64 2.42  93 2.42  30 3.19  33 3.19
                            28 3.19  36 3.19  26 3.19  44 3.19
  36  0.111  0.917  0.750-  64 2.42  57 2.42  93 2.42  50 2.42  71 2.42  73 2.42  44 3.19  45 3.19
                            28 3.19  35 3.19  33 3.19  39 3.19
  37  0.889  0.083  0.250-  58 2.42  63 2.42  51 2.42  75 2.42  46 2.42  48 2.42  29 3.19  34 3.19
                            22 3.19  43 3.19  27 3.19  42 3.19
  38  0.222  0.833  0.250-  67 2.42  74 2.42  66 2.42  54 2.42  70 2.42  72 2.42  40 3.19  43 3.19
                            27 3.19  34 3.19  32 3.19  22 3.19
  39  0.444  0.167  0.750-  57 2.42  81 2.42  50 2.42  83 2.42  77 2.42  79 2.42  24 3.19  28 3.19
                            30 3.19  44 3.19  31 3.19  36 3.19
  40  0.222  0.583  0.250-  86 2.42  91 2.42  88 2.42  85 2.42  74 2.42  54 2.42  38 3.19  42 3.19
                            25 3.19  32 3.19  29 3.19  27 3.19
  41  0.111  0.417  0.750-  53 2.42  69 2.42  56 2.42  68 2.42  90 2.42  84 2.42  44 3.19  45 3.19
                            24 3.19  31 3.19  30 3.19  26 3.19
  42  0.222  0.333  0.250-  80 2.42  58 2.42  82 2.42  51 2.42  91 2.42  85 2.42  40 3.19  43 3.19
                            23 3.19  29 3.19  25 3.19  37 3.19
  43  0.222  0.083  0.250-  76 2.42  70 2.42  78 2.42  72 2.42  58 2.42  51 2.42  38 3.19  42 3.19
                            22 3.19  37 3.19  34 3.19  23 3.19
  44  0.111  0.167  0.750-  47 2.42  90 2.42  49 2.42  84 2.42  57 2.42  50 2.42  36 3.19  41 3.19
                            39 3.19  30 3.19  35 3.19  24 3.19
  45  0.111  0.667  0.750-  60 2.42  71 2.42  62 2.42  73 2.42  69 2.42  68 2.42  36 3.19  41 3.19
                            26 3.19  33 3.19  31 3.19  28 3.19
  46  0.778  0.167  0.295-  22 2.42  29 2.42  37 2.42
  47  0.889  0.083  0.795-  44 2.42  35 2.42  30 2.42
  48  0.778  0.167  0.205-  22 2.42  29 2.42  37 2.42
  49  0.889  0.083  0.705-  44 2.42  35 2.42  30 2.42
  50  0.222  0.083  0.705-  39 2.42  36 2.42  44 2.42
  51  0.111  0.167  0.205-  37 2.42  42 2.42  43 2.42
  52  0.778  0.417  0.295-  23 2.42  32 2.42  29 2.42
  53  0.889  0.333  0.795-  41 2.42  30 2.42  31 2.42
  54  0.111  0.667  0.205-  32 2.42  38 2.42  40 2.42
  55  0.556  0.833  0.705-  35 2.42  26 2.42  28 2.42
  56  0.889  0.333  0.705-  41 2.42  30 2.42  31 2.42
  57  0.222  0.083  0.795-  39 2.42  36 2.42  44 2.42
  58  0.111  0.167  0.295-  37 2.42  42 2.42  43 2.42
  59  0.778  0.667  0.295-  25 2.42  34 2.42  32 2.42
  60  0.889  0.583  0.795-  45 2.42  31 2.42  33 2.42
  61  0.778  0.667  0.205-  25 2.42  34 2.42  32 2.42
  62  0.889  0.583  0.705-  45 2.42  31 2.42  33 2.42
  63  0.778  0.917  0.295-  27 2.42  37 2.42  34 2.42
  64  0.889  0.833  0.795-  36 2.42  33 2.42  35 2.42
  65  0.778  0.417  0.205-  23 2.42  32 2.42  29 2.42
  66  0.444  0.917  0.205-  38 2.42  22 2.42  27 2.42
  67  0.444  0.917  0.295-  38 2.42  22 2.42  27 2.42
  68  0.222  0.583  0.705-  26 2.42  41 2.42  45 2.42
  69  0.222  0.583  0.795-  26 2.42  41 2.42  45 2.42
  70  0.111  0.917  0.295-  34 2.42  43 2.42  38 2.42
  71  0.222  0.833  0.795-  28 2.42  45 2.42  36 2.42
  72  0.111  0.917  0.205-  34 2.42  43 2.42  38 2.42
  73  0.222  0.833  0.705-  28 2.42  45 2.42  36 2.42
  74  0.111  0.667  0.295-  32 2.42  38 2.42  40 2.42
  75  0.778  0.917  0.205-  27 2.42  37 2.42  34 2.42
  76  0.444  0.167  0.295-  43 2.42  23 2.42  22 2.42
  77  0.556  0.083  0.795-  30 2.42  28 2.42  39 2.42
  78  0.444  0.167  0.205-  43 2.42  23 2.42  22 2.42
  79  0.556  0.083  0.705-  30 2.42  28 2.42  39 2.42
  80  0.444  0.417  0.295-  42 2.42  25 2.42  23 2.42
  81  0.556  0.333  0.795-  31 2.42  39 2.42  24 2.42
  82  0.444  0.417  0.205-  42 2.42  25 2.42  23 2.42
  83  0.556  0.333  0.705-  31 2.42  39 2.42  24 2.42
  84  0.222  0.333  0.705-  24 2.42  44 2.42  41 2.42
  85  0.111  0.417  0.205-  29 2.42  40 2.42  42 2.42
  86  0.444  0.667  0.295-  40 2.42  27 2.42  25 2.42
  87  0.556  0.583  0.795-  33 2.42  24 2.42  26 2.42
  88  0.444  0.667  0.205-  40 2.42  27 2.42  25 2.42
  89  0.556  0.583  0.705-  33 2.42  24 2.42  26 2.42
  90  0.222  0.333  0.795-  24 2.42  44 2.42  41 2.42
  91  0.111  0.417  0.295-  29 2.42  40 2.42  42 2.42
  92  0.556  0.833  0.795-  35 2.42  26 2.42  28 2.42
  93  0.889  0.833  0.705-  36 2.42  33 2.42  35 2.42
 
  LATTYP: Found a simple monoclinic cell.
 ALAT       =    16.8815660915
 B/A-ratio  =     2.0661745669
 C/A-ratio  =     1.4759983605
 COS(beta)  =    -0.9678678488
  
  Lattice vectors:
  
 A1 = ( -12.7612648832, -11.0515787236,   0.0000000000)
 A2 = (   0.0000000000,   0.0000000000, -34.8802625070)
 A3 = (  22.3322113382,  11.0515787236,   0.0000000000)


Analysis of symmetry for initial positions (statically):
=====================================================================
 Subroutine PRICEL returns:
 Original cell was already a primitive cell.
 

 Routine SETGRP: Setting up the symmetry group for a 
 simple monoclinic supercell.


 Subroutine GETGRP returns: Found  1 space group operations
 (whereof  1 operations were pure point group operations)
 out of a pool of  4 trial point group operations.


The static configuration has the point symmetry C_1 .


Analysis of symmetry for dynamics (positions and initial velocities):
=====================================================================
 Subroutine PRICEL returns:
 Original cell was already a primitive cell.
 

 Routine SETGRP: Setting up the symmetry group for a 
 simple monoclinic supercell.


 Subroutine GETGRP returns: Found  1 space group operations
 (whereof  1 operations were pure point group operations)
 out of a pool of  4 trial point group operations.


The dynamic configuration has the point symmetry C_1 .


 Subroutine INISYM returns: Found  1 space group operations
 (whereof  1 operations are pure point group operations),
 and found     1 'primitive' translations

 
 
 KPOINTS: Gamma-point only                        
  k-points in reciprocal lattice
Space group operators:
 irot       det(A)        alpha          n_x          n_y          n_z        tau_x        tau_y        tau_z
    1     1.000000     0.000000     1.000000     0.000000     0.000000     0.000000     0.000000     0.000000


--------------------------------------------------------------------------------------------------------




 Dimension of arrays:
   k-points           NKPTS =      1   k-points in BZ     NKDIM =      1   number of bands    NBANDS=    300
   number of dos      NEDOS =    301   number of ions     NIONS =     93
   non local maximal  LDIM  =      6   non local SUM 2l+1 LMDIM =     18
   total plane-waves  NPLWV = ******
   max r-space proj   IRMAX =   6611   max aug-charges    IRDMAX=  22650
   dimension x,y,z NGX =    64 NGY =   84 NGZ =  240
   dimension x,y,z NGXF=   128 NGYF=  168 NGZF=  480
   support grid    NGXF=   128 NGYF=  168 NGZF=  480
   ions per type =              10   1  10  24  48
 NGX,Y,Z   is equivalent  to a cutoff of  11.12, 10.94, 11.44 a.u.
 NGXF,Y,Z  is equivalent  to a cutoff of  22.23, 21.89, 22.88 a.u.


 I would recommend the setting:
   dimension x,y,z NGX =    62 NGY =   83 NGZ =  228
 SYSTEM =  basalPlane                              
 POSCAR =   C Co  H Mo  S                          

 Startparameter for this run:
   NWRITE =      2    write-flag & timer
   PREC   = accura    normal or accurate (medium, high low for compatibility)
   ISTART =      0    job   : 0-new  1-cont  2-samecut
   ICHARG =      2    charge: 1-file 2-atom 10-const
   ISPIN  =      1    spin polarized calculation?
   LNONCOLLINEAR =      F non collinear calculations
   LSORBIT =      F    spin-orbit coupling
   INIWAV =      1    electr: 0-lowe 1-rand  2-diag
   LASPH  =      F    aspherical Exc in radial PAW
   METAGGA=      F    non-selfconsistent MetaGGA calc.

 Electronic Relaxation 1
   ENCUT  =  400.0 eV  29.40 Ry    5.42 a.u.  15.61 20.81 56.88*2*pi/ulx,y,z
   ENINI  =  400.0     initial cutoff
   ENAUG  =  645.0 eV  augmentation charge cutoff
   NELM   =    200;   NELMIN=  2; NELMDL= -5     # of ELM steps 
   EDIFF  = 0.1E-03   stopping-criterion for ELM
   LREAL  =      T    real-space projection
   NLSPLINE    = F    spline interpolate recip. space projectors
   LCOMPAT=      F    compatible to vasp.4.4
   GGA_COMPAT  = T    GGA compatible to vasp.4.4-vasp.4.6
   LMAXPAW     = -100 max onsite density
   LMAXMIX     =    2 max onsite mixed and CHGCAR
   VOSKOWN=      0    Vosko Wilk Nusair interpolation
   ROPT   =   -0.00025  -0.00025  -0.00025  -0.00025
   ROPT   =   -0.00025
 Ionic relaxation
   EDIFFG = -.2E-01   stopping-criterion for IOM
   NSW    =  10000    number of steps for IOM
   NBLOCK =      1;   KBLOCK =  10000    inner block; outer block 
   IBRION =      2    ionic relax: 0-MD 1-quasi-New 2-CG
   NFREE  =      1    steps in history (QN), initial steepest desc. (CG)
   ISIF   =      2    stress and relaxation
   IWAVPR =     11    prediction:  0-non 1-charg 2-wave 3-comb
   ISYM   =      2    0-nonsym 1-usesym 2-fastsym
   LCORR  =      T    Harris-Foulkes like correction to forces

   POTIM  = 0.5000    time-step for ionic-motion
   TEIN   =    0.0    initial temperature
   TEBEG  =    0.0;   TEEND  =   0.0 temperature during run
   SMASS  =  -3.00    Nose mass-parameter (am)
   estimated Nose-frequenzy (Omega)   =  0.10E-29 period in steps =****** mass=  -0.209E-26a.u.
   SCALEE = 1.0000    scale energy and forces
   NPACO  =    256;   APACO  = 16.0  distance and # of slots for P.C.
   PSTRESS=    0.0 pullay stress

  Mass of Ions in am
   POMASS =  12.01 58.93  1.00 95.94 32.07
  Ionic Valenz
   ZVAL   =   4.00  9.00  1.00  6.00  6.00
  Atomic Wigner-Seitz radii
   RWIGS  =  -1.00 -1.00 -1.00 -1.00 -1.00
  virtual crystal weights 
   VCA    =   1.00  1.00  1.00  1.00  1.00
   NELECT =     491.0000    total number of electrons
   NUPDOWN=      -1.0000    fix difference up-down

 DOS related values:
   EMIN   =  10.00;   EMAX   =-10.00  energy-range for DOS
   EFERMI =   0.00
   ISMEAR =     0;   SIGMA  =   0.10  broadening in eV -4-tet -1-fermi 0-gaus

 Electronic relaxation 2 (details)
   IALGO  =     38    algorithm
   LDIAG  =      T    sub-space diagonalisation (order eigenvalues)
   LSUBROT=      F    optimize rotation matrix (better conditioning)
   TURBO    =      0    0=normal 1=particle mesh
   IRESTART =      0    0=no restart 2=restart with 2 vectors
   NREBOOT  =      0    no. of reboots
   NMIN     =      0    reboot dimension
   EREF     =   0.00    reference energy to select bands
   IMIX   =      4    mixing-type and parameters
     AMIX     =   0.40;   BMIX     =  1.00
     AMIX_MAG =   1.60;   BMIX_MAG =  1.00
     AMIN     =   0.10
     WC   =   100.;   INIMIX=   1;  MIXPRE=   1;  MAXMIX= -45

 Intra band minimization:
   WEIMIN = 0.0010     energy-eigenvalue tresh-hold
   EBREAK =  0.83E-07  absolut break condition
   DEPER  =   0.30     relativ break condition  

   TIME   =   0.40     timestep for ELM

  volume/ion in A,a.u.               =      39.67       267.71
  Fermi-wavevector in a.u.,A,eV,Ry     =   0.835826  1.579481  9.505091  0.698604
  Thomas-Fermi vector in A             =   1.949448
 
 Write flags
   LWAVE  =      F    write WAVECAR
   LCHARG =      F    write CHGCAR
   LVTOT  =      F    write LOCPOT, total local potential
   LVHAR  =      F    write LOCPOT, Hartree potential only
   LELF   =      F    write electronic localiz. function (ELF)
   LORBIT =      0    0 simple, 1 ext, 2 COOP (PROOUT)


 Dipole corrections
   LMONO  =      F    monopole corrections only (constant potential shift)
   LDIPOL =      F    correct potential (dipole corrections)
   IDIPOL =      0    1-x, 2-y, 3-z, 4-all directions 
   EPSILON=  1.0000000 bulk dielectric constant

 Exchange correlation treatment:
   GGA     =    --    GGA type
   LEXCH   =     8    internal setting for exchange type
   VOSKOWN=      0    Vosko Wilk Nusair interpolation
   LHFCALC =     F    Hartree Fock is set to
   LHFONE  =     F    Hartree Fock one center treatment
   AEXX    =    0.0000 exact exchange contribution

 Linear response parameters
   LEPSILON=     F    determine dielectric tensor
   LRPA    =     F    only Hartree local field effects (RPA)
   LNABLA  =     F    use nabla operator in PAW spheres
   LVEL    =     F    velocity operator in full k-point grid
   LINTERFAST=   F  fast interpolation
   KINTER  =     0    interpolate to denser k-point grid
   CSHIFT  =0.1000    complex shift for real part using Kramers Kronig
   OMEGAMAX=  -1.0    maximum frequency
   DEG_THRESHOLD= 0.2000000E-02 threshold for treating states as degnerate
   RTIME   =    0.100 relaxation time in fs

 Orbital magnetization related:
   ORBITALMAG=     F  switch on orbital magnetization
   LCHIMAG   =     F  perturbation theory with respect to B field
   DQ        =  0.001000  dq finite difference perturbation B field



--------------------------------------------------------------------------------------------------------


 conjugate gradient relaxation of ions
 charge density and potential will be updated during run
 non-spin polarized calculation
 Variant of blocked Davidson
 Davidson routine will perform the subspace rotation
 perform sub-space diagonalisation
    after iterative eigenvector-optimisation
 modified Broyden-mixing scheme, WC =      100.0
 initial mixing is a Kerker type mixing with AMIX =  0.4000 and BMIX =      1.0000
 Hartree-type preconditioning will be used
 using additional bands           54
 real space projection scheme for non local part
 use partial core corrections
 calculate Harris-corrections to forces 
   (improved forces if not selfconsistent)
 use gradient corrections 
 use of overlap-Matrix (Vanderbilt PP)
 Gauss-broadening in eV      SIGMA  =   0.10


--------------------------------------------------------------------------------------------------------


  energy-cutoff  :      400.00
  volume of cell :     3689.43
      direct lattice vectors                 reciprocal lattice vectors
     9.570946455  0.000000000  0.000000000     0.104482875  0.060323179  0.000000000
    -6.380628027 11.051578724  0.000000000     0.000000000  0.090484810  0.000000000
     0.000000000  0.000000000 34.880262507     0.000000000  0.000000000  0.028669509

  length of vectors
     9.570946455 12.761261940 34.880262507     0.120646413  0.090484810  0.028669509


 
 k-points in units of 2pi/SCALE and weight: Gamma-point only                        
   0.00000000  0.00000000  0.00000000       1.000
 
 k-points in reciprocal lattice and weights: Gamma-point only                        
   0.00000000  0.00000000  0.00000000       1.000
 
 position of ions in fractional coordinates (direct lattice) 
   0.19253926  0.32031076  0.43898613
   0.02635678  0.24846796  0.42838203
   0.20622261  0.30067328  0.47889506
   0.04851257  0.21634262  0.49292129
   0.93736144  0.18423781  0.46172490
   0.01788473  0.50731929  0.44872464
   0.93487053  0.42715121  0.50958044
   0.88084164  0.42612051  0.47123239
   0.10544626  0.50870556  0.51074367
   0.15665944  0.55831474  0.47312896
   0.05151808  0.37015577  0.47145547
   0.80763140  0.12372045  0.46336294
   0.75788501  0.37149785  0.46081391
   0.18286587  0.52815846  0.53566971
   0.86004503  0.37315768  0.53335936
   0.01732482  0.52514743  0.41825705
   0.97605827  0.24521934  0.40015959
   0.29043849  0.38108595  0.42019902
   0.31666427  0.34376215  0.49570983
   0.01768069  0.18434659  0.52228344
   0.27979234  0.62172746  0.46443535
   0.55555566  0.08333325  0.25000928
   0.55555566  0.33333325  0.25000928
   0.44444432  0.41666674  0.74999076
   0.55555566  0.58333325  0.25000928
   0.44444432  0.66666674  0.74999076
   0.55555566  0.83333325  0.25000928
   0.44444432  0.91666674  0.74999076
   0.88888899  0.33333325  0.25000928
   0.77777765  0.16666674  0.74999076
   0.77777765  0.41666674  0.74999076
   0.88888899  0.58333325  0.25000928
   0.77777765  0.66666674  0.74999076
   0.88888899  0.83333325  0.25000928
   0.77777765  0.91666674  0.74999076
   0.11111099  0.91666674  0.74999076
   0.88888899  0.08333325  0.25000928
   0.22222233  0.83333325  0.25000928
   0.44444432  0.16666674  0.74999076
   0.22222233  0.58333325  0.25000928
   0.11111099  0.41666674  0.74999076
   0.22222233  0.33333325  0.25000928
   0.22222233  0.08333325  0.25000928
   0.11111099  0.16666674  0.74999076
   0.11111099  0.66666674  0.74999076
   0.77777765  0.16666674  0.29487388
   0.88888899  0.08333325  0.79485533
   0.77777765  0.16666674  0.20514467
   0.88888899  0.08333325  0.70512613
   0.22222233  0.08333325  0.70512613
   0.11111099  0.16666674  0.20514467
   0.77777765  0.41666674  0.29487388
   0.88888899  0.33333325  0.79485533
   0.11111099  0.66666674  0.20514467
   0.55555566  0.83333325  0.70512613
   0.88888899  0.33333325  0.70512613
   0.22222233  0.08333325  0.79485533
   0.11111099  0.16666674  0.29487388
   0.77777765  0.66666674  0.29487388
   0.88888899  0.58333325  0.79485533
   0.77777765  0.66666674  0.20514467
   0.88888899  0.58333325  0.70512613
   0.77777765  0.91666674  0.29487388
   0.88888899  0.83333325  0.79485533
   0.77777765  0.41666674  0.20514467
   0.44444432  0.91666674  0.20514467
   0.44444432  0.91666674  0.29487388
   0.22222233  0.58333325  0.70512613
   0.22222233  0.58333325  0.79485533
   0.11111099  0.91666674  0.29487388
   0.22222233  0.83333325  0.79485533
   0.11111099  0.91666674  0.20514467
   0.22222233  0.83333325  0.70512613
   0.11111099  0.66666674  0.29487388
   0.77777765  0.91666674  0.20514467
   0.44444432  0.16666674  0.29487388
   0.55555566  0.08333325  0.79485533
   0.44444432  0.16666674  0.20514467
   0.55555566  0.08333325  0.70512613
   0.44444432  0.41666674  0.29487388
   0.55555566  0.33333325  0.79485533
   0.44444432  0.41666674  0.20514467
   0.55555566  0.33333325  0.70512613
   0.22222233  0.33333325  0.70512613
   0.11111099  0.41666674  0.20514467
   0.44444432  0.66666674  0.29487388
   0.55555566  0.58333325  0.79485533
   0.44444432  0.66666674  0.20514467
   0.55555566  0.58333325  0.70512613
   0.22222233  0.33333325  0.79485533
   0.11111099  0.41666674  0.29487388
   0.55555566  0.83333325  0.79485533
   0.88888899  0.83333325  0.70512613
 
 position of ions in cartesian coordinates  (Angst):
  -0.20100087  3.53993961 15.31195149
  -1.33312234  2.74596324 14.94207766
   0.05526117  3.32291443 16.70398550
  -0.91609054  2.39092746 17.19322386
   7.79588325  2.03611868 16.10508557
  -3.06584189  5.60667911 15.65163336
   6.22210279  4.72069518 17.77429948
   5.71157174  4.70930433 16.43670960
  -2.23664044  5.62199950 17.81487332
  -2.06301953  6.17025931 16.50286233
  -1.86874944  4.09080559 16.44449071
   6.94038266  1.36730634 16.16222086
   4.88328729  4.10563772 16.07331008
  -1.61978328  5.83698485 18.68429998
   5.85046464  4.12398142 18.60371454
  -3.18495549  5.80370818 14.58891574
   7.77714802  2.71006087 13.95767139
   0.34820356  4.21160140 14.65665216
   0.83735835  3.79911446 17.29048899
  -1.00702612  2.03732086 18.21738338
  -1.28913409  6.87106995 16.19962696
   4.78547502  0.92096394  8.72038942
   3.19031801  3.68385862  8.72038942
   1.59515729  4.60482531 26.15987450
   1.59516100  6.44675330  8.72038942
   0.00000028  7.36771999 26.15987450
   0.00000400  9.20964798  8.72038942
  -1.59515673 10.13061467 26.15987450
   6.38063349  3.68385862  8.72038942
   6.38062978  1.84193063 26.15987450
   4.78547277  4.60482531 26.15987450
   4.78547649  6.44675330  8.72038942
   3.19031576  7.36771999 26.15987450
   3.19031948  9.20964798  8.72038942
   1.59515876 10.13061467 26.15987450
  -4.78547221 10.13061467 26.15987450
   7.97579050  0.92096394  8.72038942
  -3.19031149  9.20964798  8.72038942
   3.19031429  1.84193063 26.15987450
  -1.59515448  6.44675330  8.72038942
  -1.59515820  4.60482531 26.15987450
   0.00000252  3.68385862  8.72038942
   1.59515953  0.92096394  8.72038942
  -0.00000119  1.84193063 26.15987450
  -3.19031521  7.36771999 26.15987450
   6.38062978  1.84193063 10.28527839
   7.97579050  0.92096394 27.72476251
   6.38062978  1.84193063  7.15550000
   7.97579050  0.92096394 24.59498459
   1.59515953  0.92096394 24.59498459
  -0.00000119  1.84193063  7.15550000
   4.78547277  4.60482531 10.28527839
   6.38063349  3.68385862 27.72476251
  -3.19031521  7.36771999  7.15550000
   0.00000400  9.20964798 24.59498459
   6.38063349  3.68385862 24.59498459
   1.59515953  0.92096394 27.72476251
  -0.00000119  1.84193063 10.28527839
   3.19031576  7.36771999 10.28527839
   4.78547649  6.44675330 27.72476251
   3.19031576  7.36771999  7.15550000
   4.78547649  6.44675330 24.59498459
   1.59515876 10.13061467 10.28527839
   3.19031948  9.20964798 27.72476251
   4.78547277  4.60482531  7.15550000
  -1.59515673 10.13061467  7.15550000
  -1.59515673 10.13061467 10.28527839
  -1.59515448  6.44675330 24.59498459
  -1.59515448  6.44675330 27.72476251
  -4.78547221 10.13061467 10.28527839
  -3.19031149  9.20964798 27.72476251
  -4.78547221 10.13061467  7.15550000
  -3.19031149  9.20964798 24.59498459
  -3.19031521  7.36771999 10.28527839
   1.59515876 10.13061467  7.15550000
   3.19031429  1.84193063 10.28527839
   4.78547502  0.92096394 27.72476251
   3.19031429  1.84193063  7.15550000
   4.78547502  0.92096394 24.59498459
   1.59515729  4.60482531 10.28527839
   3.19031801  3.68385862 27.72476251
   1.59515729  4.60482531  7.15550000
   3.19031801  3.68385862 24.59498459
   0.00000252  3.68385862 24.59498459
  -1.59515820  4.60482531  7.15550000
   0.00000028  7.36771999 10.28527839
   1.59516100  6.44675330 27.72476251
   0.00000028  7.36771999  7.15550000
   1.59516100  6.44675330 24.59498459
   0.00000252  3.68385862 27.72476251
  -1.59515820  4.60482531 10.28527839
   0.00000400  9.20964798 27.72476251
   3.19031948  9.20964798 24.59498459
 


--------------------------------------------------------------------------------------------------------


 use parallel FFT for wavefunctions z direction half grid
 k-point  1 :   0.0000 0.0000 0.0000  plane waves:   33544

 maximum and minimum number of plane-waves per node :     11182    11180

 maximum number of plane-waves:     33544
 maximum index in each direction: 
   IXMAX=   15   IYMAX=   20   IZMAX=   56
   IXMIN=  -15   IYMIN=  -20   IZMIN=    0

 NGX is ok and might be reduce to  62
 NGY is ok and might be reduce to  82
 NGZ is ok and might be reduce to 226

 real space projection operators:
  total allocation   :      38859.41 KBytes
  max/ min on nodes  :      13386.51      12730.20


 parallel 3D FFT for wavefunctions:
    minimum data exchange during FFTs selected (reduces bandwidth)
 parallel 3D FFT for charge:
    minimum data exchange during FFTs selected (reduces bandwidth)


 total amount of memory used by VASP on root node   114672. kBytes
========================================================================

   base      :      30000. kBytes
   nonlr-proj:      16449. kBytes
   fftplans  :      19781. kBytes
   grid      :      43661. kBytes
   one-center:        241. kBytes
   wavefun   :       4540. kBytes
 
     INWAV:  cpu time    0.0000: real time    0.0002
 Broyden mixing: mesh for mixing (old mesh)
   NGX = 31   NGY = 41   NGZ =113
  (NGX  =128   NGY  =168   NGZ  =480)
  gives a total of 143623 points

 initial charge density was supplied:
 charge density of overlapping atoms calculated
 number of electron     491.0000000 magnetization 
 keeping initial charge density in first step


--------------------------------------------------------------------------------------------------------


 Maximum index for non-local projection operator         2301
 Maximum index for augmentation-charges         1165 (set IRDMAX)


--------------------------------------------------------------------------------------------------------


 First call to EWALD:  gamma=   0.115
 Maximum number of real-space cells 5x 4x 1
 Maximum number of reciprocal cells 2x 2x 6

 FEWALD executed in parallel
    FEWALD:  cpu time    0.0041: real time    0.0053


----------------------------------------- Iteration    1(   1)  ---------------------------------------


    POTLOK:  cpu time    0.3788: real time    0.3806
    SETDIJ:  cpu time    0.0108: real time    0.0121
     EDDAV:  cpu time    5.2421: real time    5.2563
       DOS:  cpu time    0.0010: real time    0.0010
    --------------------------------------------
      LOOP:  cpu time    5.6383: real time    5.6611

 eigenvalue-minimisations  :   600
 total energy-change (2. order) : 0.4415128E+04  (-0.1812931E+05)
 number of electron     491.0000000 magnetization 
 augmentation part      491.0000000 magnetization 

 Free energy of the ion-electron system (eV)
  ---------------------------------------------------
  alpha Z        PSCENC =       562.94535741
  Ewald energy   TEWEN  =     37844.07784467
  -Hartree energ DENC   =    -57260.43595069
  -exchange      EXHF   =         0.00000000
  -V(xc)+E(xc)   XCENC  =      -701.07772069
  PAW double counting   =     18640.80374730   -16838.49265242
  entropy T*S    EENTRO =        -0.17587596
  eigenvalues    EBANDS =      1250.42063366
  atomic energy  EATOM  =     20917.06298232
  Solvation  Ediel_sol  =         0.00000000
  ---------------------------------------------------
  free energy    TOTEN  =      4415.12836561 eV

  energy without entropy =     4415.30424157  energy(sigma->0) =     4415.21630359


--------------------------------------------------------------------------------------------------------




----------------------------------------- Iteration    1(   2)  ---------------------------------------


     EDDAV:  cpu time    7.6791: real time    7.7165
       DOS:  cpu time    0.0007: real time    0.0007
    --------------------------------------------
      LOOP:  cpu time    7.6805: real time    7.7198

 eigenvalue-minimisations  :   972
 total energy-change (2. order) :-0.4415498E+04  (-0.4259375E+04)
 number of electron     491.0000000 magnetization 
 augmentation part      491.0000000 magnetization 

 Free energy of the ion-electron system (eV)
  ---------------------------------------------------
  alpha Z        PSCENC =       562.94535741
  Ewald energy   TEWEN  =     37844.07784467
  -Hartree energ DENC   =    -57260.43595069
  -exchange      EXHF   =         0.00000000
  -V(xc)+E(xc)   XCENC  =      -701.07772069
  PAW double counting   =     18640.80374730   -16838.49265242
  entropy T*S    EENTRO =        -0.06725169
  eigenvalues    EBANDS =     -3165.18561392
  atomic energy  EATOM  =     20917.06298232
  Solvation  Ediel_sol  =         0.00000000
  ---------------------------------------------------
  free energy    TOTEN  =        -0.36925771 eV

  energy without entropy =       -0.30200602  energy(sigma->0) =       -0.33563186


--------------------------------------------------------------------------------------------------------




----------------------------------------- Iteration    1(   3)  ---------------------------------------


     EDDAV:  cpu time    6.0732: real time    6.0901
       DOS:  cpu time    0.0007: real time    0.0007
    --------------------------------------------
      LOOP:  cpu time    6.0753: real time    6.0944

 eigenvalue-minimisations  :   720
 total energy-change (2. order) :-0.6759338E+03  (-0.6675621E+03)
 number of electron     491.0000000 magnetization 
 augmentation part      491.0000000 magnetization 

 Free energy of the ion-electron system (eV)
  ---------------------------------------------------
  alpha Z        PSCENC =       562.94535741
  Ewald energy   TEWEN  =     37844.07784467
  -Hartree energ DENC   =    -57260.43595069
  -exchange      EXHF   =         0.00000000
  -V(xc)+E(xc)   XCENC  =      -701.07772069
  PAW double counting   =     18640.80374730   -16838.49265242
  entropy T*S    EENTRO =        -0.08973554
  eigenvalues    EBANDS =     -3841.09696947
  atomic energy  EATOM  =     20917.06298232
  Solvation  Ediel_sol  =         0.00000000
  ---------------------------------------------------
  free energy    TOTEN  =      -676.30309710 eV

  energy without entropy =     -676.21336156  energy(sigma->0) =     -676.25822933


--------------------------------------------------------------------------------------------------------




----------------------------------------- Iteration    1(   4)  ---------------------------------------


     EDDAV:  cpu time    6.6741: real time    6.6906
       DOS:  cpu time    0.0008: real time    0.0008
    --------------------------------------------
      LOOP:  cpu time    6.6755: real time    6.6941

 eigenvalue-minimisations  :   828
 total energy-change (2. order) :-0.3339822E+02  (-0.3322765E+02)
 number of electron     491.0000000 magnetization 
 augmentation part      491.0000000 magnetization 

 Free energy of the ion-electron system (eV)
  ---------------------------------------------------
  alpha Z        PSCENC =       562.94535741
  Ewald energy   TEWEN  =     37844.07784467
  -Hartree energ DENC   =    -57260.43595069
  -exchange      EXHF   =         0.00000000
  -V(xc)+E(xc)   XCENC  =      -701.07772069
  PAW double counting   =     18640.80374730   -16838.49265242
  entropy T*S    EENTRO =        -0.08974546
  eigenvalues    EBANDS =     -3874.49518367
  atomic energy  EATOM  =     20917.06298232
  Solvation  Ediel_sol  =         0.00000000
  ---------------------------------------------------
  free energy    TOTEN  =      -709.70132123 eV

  energy without entropy =     -709.61157576  energy(sigma->0) =     -709.65644849


--------------------------------------------------------------------------------------------------------




----------------------------------------- Iteration    1(   5)  ---------------------------------------


     EDDAV:  cpu time    7.2328: real time    7.2526
       DOS:  cpu time    0.0008: real time    0.0008
    CHARGE:  cpu time    0.5711: real time    0.5725
    MIXING:  cpu time    0.0116: real time    0.0118
    --------------------------------------------
      LOOP:  cpu time    7.8170: real time    7.8423

 eigenvalue-minimisations  :   912
 total energy-change (2. order) :-0.1136503E+01  (-0.1132135E+01)
 number of electron     491.0000086 magnetization 
 augmentation part      -17.4482422 magnetization 

 Broyden mixing:
  rms(total) = 0.12251E+02    rms(broyden)= 0.12251E+02
  rms(prec ) = 0.12318E+02
  weight for this iteration     100.00

 Free energy of the ion-electron system (eV)
  ---------------------------------------------------
  alpha Z        PSCENC =       562.94535741
  Ewald energy   TEWEN  =     37844.07784467
  -Hartree energ DENC   =    -57260.43595069
  -exchange      EXHF   =         0.00000000
  -V(xc)+E(xc)   XCENC  =      -701.07772069
  PAW double counting   =     18640.80374730   -16838.49265242
  entropy T*S    EENTRO =        -0.09163774
  eigenvalues    EBANDS =     -3875.62979415
  atomic energy  EATOM  =     20917.06298232
  Solvation  Ediel_sol  =         0.00000000
  ---------------------------------------------------
  free energy    TOTEN  =      -710.83782399 eV

  energy without entropy =     -710.74618624  energy(sigma->0) =     -710.79200511


--------------------------------------------------------------------------------------------------------




----------------------------------------- Iteration    1(   6)  ---------------------------------------


    POTLOK:  cpu time    0.3622: real time    0.3656
    SETDIJ:  cpu time    0.0103: real time    0.0103
     EDDAV:  cpu time    6.3373: real time    6.3921
       DOS:  cpu time    0.0008: real time    0.0008
    CHARGE:  cpu time    0.5445: real time    0.5515
    MIXING:  cpu time    0.0119: real time    0.0120
    --------------------------------------------
      LOOP:  cpu time    7.2677: real time    7.3827

 eigenvalue-minimisations  :   780
 total energy-change (2. order) : 0.2027522E+02  (-0.5726916E+02)
 number of electron     491.0000077 magnetization 
 augmentation part       -0.0782471 magnetization 

 Broyden mixing:
  rms(total) = 0.76533E+01    rms(broyden)= 0.76531E+01
  rms(prec ) = 0.77403E+01
  weight for this iteration     100.00

 eigenvalues of (default mixing * dielectric matrix)
  average eigenvalue GAMMA=   0.8610
  0.8610

 Free energy of the ion-electron system (eV)
  ---------------------------------------------------
  alpha Z        PSCENC =       562.94535741
  Ewald energy   TEWEN  =     37844.07784467
  -Hartree energ DENC   =    -57271.13491217
  -exchange      EXHF   =         0.00000000
  -V(xc)+E(xc)   XCENC  =      -676.82224256
  PAW double counting   =     26757.50523052   -24962.45475073
  entropy T*S    EENTRO =        -0.18188176
  eigenvalues    EBANDS =     -3861.56023153
  atomic energy  EATOM  =     20917.06298232
  Solvation  Ediel_sol  =         0.00000000
  ---------------------------------------------------
  free energy    TOTEN  =      -690.56260383 eV

  energy without entropy =     -690.38072207  energy(sigma->0) =     -690.47166295


--------------------------------------------------------------------------------------------------------




----------------------------------------- Iteration    1(   7)  ---------------------------------------


    POTLOK:  cpu time    0.3614: real time    0.3651
    SETDIJ:  cpu time    0.0102: real time    0.0102
     EDDAV:  cpu time    6.3589: real time    6.3808
       DOS:  cpu time    0.0008: real time    0.0008
    CHARGE:  cpu time    0.5953: real time    0.5971
    MIXING:  cpu time    0.0121: real time    0.0121
    --------------------------------------------
      LOOP:  cpu time    7.3397: real time    7.3694

 eigenvalue-minimisations  :   780
 total energy-change (2. order) :-0.2102518E+02  (-0.3159440E+02)
 number of electron     491.0000080 magnetization 
 augmentation part      -11.3188356 magnetization 

 Broyden mixing:
  rms(total) = 0.63492E+01    rms(broyden)= 0.63490E+01
  rms(prec ) = 0.67228E+01
  weight for this iteration     100.00

 eigenvalues of (default mixing * dielectric matrix)
  average eigenvalue GAMMA=   0.9801
  1.5276  0.4327

 Free energy of the ion-electron system (eV)
  ---------------------------------------------------
  alpha Z        PSCENC =       562.94535741
  Ewald energy   TEWEN  =     37844.07784467
  -Hartree energ DENC   =    -57516.31281535
  -exchange      EXHF   =         0.00000000
  -V(xc)+E(xc)   XCENC  =      -676.61516857
  PAW double counting   =     32912.87828385   -31157.07823246
  entropy T*S    EENTRO =        -0.27113456
  eigenvalues    EBANDS =     -3598.27490502
  atomic energy  EATOM  =     20917.06298232
  Solvation  Ediel_sol  =         0.00000000
  ---------------------------------------------------
  free energy    TOTEN  =      -711.58778771 eV

  energy without entropy =     -711.31665315  energy(sigma->0) =     -711.45222043


--------------------------------------------------------------------------------------------------------




----------------------------------------- Iteration    1(   8)  ---------------------------------------


    POTLOK:  cpu time    0.3625: real time    0.3655
    SETDIJ:  cpu time    0.0099: real time    0.0099
     EDDAV:  cpu time    6.6769: real time    6.7235
       DOS:  cpu time    0.0009: real time    0.0011
    CHARGE:  cpu time    0.5811: real time    0.5835
    MIXING:  cpu time    0.0121: real time    0.0121
    --------------------------------------------
      LOOP:  cpu time    7.6443: real time    7.6984

 eigenvalue-minimisations  :   828
 total energy-change (2. order) :-0.4814647E+01  (-0.2252163E+02)
 number of electron     491.0000077 magnetization 
 augmentation part       -7.8397574 magnetization 

 Broyden mixing:
  rms(total) = 0.60342E+01    rms(broyden)= 0.60341E+01
  rms(prec ) = 0.64819E+01
  weight for this iteration     100.00

 eigenvalues of (default mixing * dielectric matrix)
  average eigenvalue GAMMA=   0.9975
  2.0970  0.6162  0.2793

 Free energy of the ion-electron system (eV)
  ---------------------------------------------------
  alpha Z        PSCENC =       562.94535741
  Ewald energy   TEWEN  =     37844.07784467
  -Hartree energ DENC   =    -57510.31138902
  -exchange      EXHF   =         0.00000000
  -V(xc)+E(xc)   XCENC  =      -677.29302166
  PAW double counting   =     38534.12982356   -36757.67843184
  entropy T*S    EENTRO =        -0.31330249
  eigenvalues    EBANDS =     -3629.02229766
  atomic energy  EATOM  =     20917.06298232
  Solvation  Ediel_sol  =         0.00000000
  ---------------------------------------------------
  free energy    TOTEN  =      -716.40243470 eV

  energy without entropy =     -716.08913221  energy(sigma->0) =     -716.24578346


--------------------------------------------------------------------------------------------------------




----------------------------------------- Iteration    1(   9)  ---------------------------------------


    POTLOK:  cpu time    0.3650: real time    0.3678
    SETDIJ:  cpu time    0.0102: real time    0.0103
     EDDAV:  cpu time    6.3056: real time    6.3607
       DOS:  cpu time    0.0010: real time    0.0010
    CHARGE:  cpu time    0.5650: real time    0.5712
    MIXING:  cpu time    0.0123: real time    0.0124
    --------------------------------------------
      LOOP:  cpu time    7.2600: real time    7.3291

 eigenvalue-minimisations  :   780
 total energy-change (2. order) : 0.1292546E+02  (-0.3114791E+02)
 number of electron     491.0000076 magnetization 
 augmentation part       -5.6690439 magnetization 

 Broyden mixing:
  rms(total) = 0.42534E+01    rms(broyden)= 0.42533E+01
  rms(prec ) = 0.53282E+01
  weight for this iteration     100.00

 eigenvalues of (default mixing * dielectric matrix)
  average eigenvalue GAMMA=   0.8950
  2.2761  0.6317  0.3362  0.3362

 Free energy of the ion-electron system (eV)
  ---------------------------------------------------
  alpha Z        PSCENC =       562.94535741
  Ewald energy   TEWEN  =     37844.07784467
  -Hartree energ DENC   =    -57568.10296739
  -exchange      EXHF   =         0.00000000
  -V(xc)+E(xc)   XCENC  =      -670.28805328
  PAW double counting   =     42581.02129034   -40818.04341796
  entropy T*S    EENTRO =        -0.50442843
  eigenvalues    EBANDS =     -3551.64558640
  atomic energy  EATOM  =     20917.06298232
  Solvation  Ediel_sol  =         0.00000000
  ---------------------------------------------------
  free energy    TOTEN  =      -703.47697870 eV

  energy without entropy =     -702.97255028  energy(sigma->0) =     -703.22476449


--------------------------------------------------------------------------------------------------------




----------------------------------------- Iteration    1(  10)  ---------------------------------------


    POTLOK:  cpu time    0.3632: real time    0.3651
    SETDIJ:  cpu time    0.0100: real time    0.0101
     EDDAV:  cpu time    6.4066: real time    6.4580
       DOS:  cpu time    0.0009: real time    0.0009
    CHARGE:  cpu time    0.5884: real time    0.6060
    MIXING:  cpu time    0.0132: real time    0.0133
    --------------------------------------------
      LOOP:  cpu time    7.3833: real time    7.4565

 eigenvalue-minimisations  :   792
 total energy-change (2. order) : 0.1709023E+02  (-0.3347129E+02)
 number of electron     491.0000076 magnetization 
 augmentation part       -4.7828188 magnetization 

 Broyden mixing:
  rms(total) = 0.31425E+01    rms(broyden)= 0.31424E+01
  rms(prec ) = 0.41704E+01
  weight for this iteration     100.00

 eigenvalues of (default mixing * dielectric matrix)
  average eigenvalue GAMMA=   0.7887
  2.2583  0.5481  0.5481  0.4195  0.1695

 Free energy of the ion-electron system (eV)
  ---------------------------------------------------
  alpha Z        PSCENC =       562.94535741
  Ewald energy   TEWEN  =     37844.07784467
  -Hartree energ DENC   =    -57573.26721641
  -exchange      EXHF   =         0.00000000
  -V(xc)+E(xc)   XCENC  =      -667.76566544
  PAW double counting   =     43994.68839132   -42238.95747042
  entropy T*S    EENTRO =        -0.49208952
  eigenvalues    EBANDS =     -3524.67888414
  atomic energy  EATOM  =     20917.06298232
  Solvation  Ediel_sol  =         0.00000000
  ---------------------------------------------------
  free energy    TOTEN  =      -686.38675020 eV

  energy without entropy =     -685.89466068  energy(sigma->0) =     -686.14070544


--------------------------------------------------------------------------------------------------------




----------------------------------------- Iteration    1(  11)  ---------------------------------------


    POTLOK:  cpu time    0.3639: real time    0.3741
    SETDIJ:  cpu time    0.0102: real time    0.0103
     EDDAV:  cpu time    6.5411: real time    6.6040
       DOS:  cpu time    0.0007: real time    0.0007
    CHARGE:  cpu time    0.5499: real time    0.5515
    MIXING:  cpu time    0.0129: real time    0.0129
    --------------------------------------------
      LOOP:  cpu time    7.4797: real time    7.5563

 eigenvalue-minimisations  :   792
 total energy-change (2. order) : 0.2645159E+02  (-0.4826253E+01)
 number of electron     491.0000079 magnetization 
 augmentation part       -5.9946512 magnetization 

 Broyden mixing:
  rms(total) = 0.27371E+01    rms(broyden)= 0.27369E+01
  rms(prec ) = 0.27817E+01
  weight for this iteration     100.00

 eigenvalues of (default mixing * dielectric matrix)
  average eigenvalue GAMMA=   0.6727
  2.1551  0.5731  0.4265  0.4265  0.2865  0.1682

 Free energy of the ion-electron system (eV)
  ---------------------------------------------------
  alpha Z        PSCENC =       562.94535741
  Ewald energy   TEWEN  =     37844.07784467
  -Hartree energ DENC   =    -57615.32354588
  -exchange      EXHF   =         0.00000000
  -V(xc)+E(xc)   XCENC  =      -667.29383532
  PAW double counting   =     44216.26840678   -42466.42805979
  entropy T*S    EENTRO =        -0.08947249
  eigenvalues    EBANDS =     -3451.15484112
  atomic energy  EATOM  =     20917.06298232
  Solvation  Ediel_sol  =         0.00000000
  ---------------------------------------------------
  free energy    TOTEN  =      -659.93516341 eV

  energy without entropy =     -659.84569092  energy(sigma->0) =     -659.89042716


--------------------------------------------------------------------------------------------------------




----------------------------------------- Iteration    1(  12)  ---------------------------------------


    POTLOK:  cpu time    0.3643: real time    0.3654
    SETDIJ:  cpu time    0.0100: real time    0.0101
     EDDAV:  cpu time    6.8225: real time    6.8442
       DOS:  cpu time    0.0008: real time    0.0008
    CHARGE:  cpu time    0.5484: real time    0.5507
    MIXING:  cpu time    0.0131: real time    0.0131
    --------------------------------------------
      LOOP:  cpu time    7.7601: real time    7.7873

 eigenvalue-minimisations  :   852
 total energy-change (2. order) : 0.3333330E-01  (-0.8997921E+00)
 number of electron     491.0000080 magnetization 
 augmentation part       -6.3862418 magnetization 

 Broyden mixing:
  rms(total) = 0.24964E+01    rms(broyden)= 0.24964E+01
  rms(prec ) = 0.25309E+01
  weight for this iteration     100.00

 eigenvalues of (default mixing * dielectric matrix)
  average eigenvalue GAMMA=   0.6588
  2.1208  0.4694  0.4694  0.5007  0.5007  0.3822  0.1682

 Free energy of the ion-electron system (eV)
  ---------------------------------------------------
  alpha Z        PSCENC =       562.94535741
  Ewald energy   TEWEN  =     37844.07784467
  -Hartree energ DENC   =    -57612.51831191
  -exchange      EXHF   =         0.00000000
  -V(xc)+E(xc)   XCENC  =      -667.66761724
  PAW double counting   =     43777.30954959   -42026.66503138
  entropy T*S    EENTRO =        -0.08976632
  eigenvalues    EBANDS =     -3454.35683726
  atomic energy  EATOM  =     20917.06298232
  Solvation  Ediel_sol  =         0.00000000
  ---------------------------------------------------
  free energy    TOTEN  =      -659.90183011 eV

  energy without entropy =     -659.81206379  energy(sigma->0) =     -659.85694695


--------------------------------------------------------------------------------------------------------




----------------------------------------- Iteration    1(  13)  ---------------------------------------


    POTLOK:  cpu time    0.3657: real time    0.3666
    SETDIJ:  cpu time    0.0099: real time    0.0099
     EDDAV:  cpu time    6.5194: real time    6.5428
       DOS:  cpu time    0.0008: real time    0.0008
    CHARGE:  cpu time    0.5490: real time    0.5503
    MIXING:  cpu time    0.0132: real time    0.0132
    --------------------------------------------
      LOOP:  cpu time    7.4590: real time    7.4885

 eigenvalue-minimisations  :   804
 total energy-change (2. order) : 0.6738638E-01  (-0.3545111E-01)
 number of electron     491.0000080 magnetization 
 augmentation part       -6.3498574 magnetization 

 Broyden mixing:
  rms(total) = 0.22860E+01    rms(broyden)= 0.22860E+01
  rms(prec ) = 0.23235E+01
  weight for this iteration     100.00

 eigenvalues of (default mixing * dielectric matrix)
  average eigenvalue GAMMA=   0.7021
  2.0973  0.7418  0.7418  0.5516  0.4937  0.4937  0.3279  0.1690

 Free energy of the ion-electron system (eV)
  ---------------------------------------------------
  alpha Z        PSCENC =       562.94535741
  Ewald energy   TEWEN  =     37844.07784467
  -Hartree energ DENC   =    -57613.78194282
  -exchange      EXHF   =         0.00000000
  -V(xc)+E(xc)   XCENC  =      -667.69083442
  PAW double counting   =     43432.17163683   -41680.15903019
  entropy T*S    EENTRO =        -0.09019159
  eigenvalues    EBANDS =     -3454.37026594
  atomic energy  EATOM  =     20917.06298232
  Solvation  Ediel_sol  =         0.00000000
  ---------------------------------------------------
  free energy    TOTEN  =      -659.83444373 eV

  energy without entropy =     -659.74425214  energy(sigma->0) =     -659.78934794


--------------------------------------------------------------------------------------------------------




----------------------------------------- Iteration    1(  14)  ---------------------------------------


    POTLOK:  cpu time    0.3634: real time    0.3650
    SETDIJ:  cpu time    0.0102: real time    0.0102
     EDDAV:  cpu time    6.8953: real time    6.9176
       DOS:  cpu time    0.0008: real time    0.0008
    CHARGE:  cpu time    0.5493: real time    0.5509
    MIXING:  cpu time    0.0136: real time    0.0136
    --------------------------------------------
      LOOP:  cpu time    7.8336: real time    7.8613

 eigenvalue-minimisations  :   864
 total energy-change (2. order) : 0.4232505E+00  (-0.1223472E-01)
 number of electron     491.0000080 magnetization 
 augmentation part       -6.3534329 magnetization 

 Broyden mixing:
  rms(total) = 0.19800E+01    rms(broyden)= 0.19800E+01
  rms(prec ) = 0.20230E+01
  weight for this iteration     100.00

 eigenvalues of (default mixing * dielectric matrix)
  average eigenvalue GAMMA=   0.8327
  2.0114  1.3822  1.3822  0.5832  0.5832  0.5433  0.4936  0.3466  0.1687

 Free energy of the ion-electron system (eV)
  ---------------------------------------------------
  alpha Z        PSCENC =       562.94535741
  Ewald energy   TEWEN  =     37844.07784467
  -Hartree energ DENC   =    -57620.20884712
  -exchange      EXHF   =         0.00000000
  -V(xc)+E(xc)   XCENC  =      -667.62951379
  PAW double counting   =     43144.48639858   -41391.50149332
  entropy T*S    EENTRO =        -0.12316477
  eigenvalues    EBANDS =     -3448.52075725
  atomic energy  EATOM  =     20917.06298232
  Solvation  Ediel_sol  =         0.00000000
  ---------------------------------------------------
  free energy    TOTEN  =      -659.41119325 eV

  energy without entropy =     -659.28802848  energy(sigma->0) =     -659.34961087


--------------------------------------------------------------------------------------------------------




----------------------------------------- Iteration    1(  15)  ---------------------------------------


    POTLOK:  cpu time    0.3649: real time    0.3666
    SETDIJ:  cpu time    0.0101: real time    0.0101
     EDDAV:  cpu time    6.5798: real time    6.6065
       DOS:  cpu time    0.0008: real time    0.0008
    CHARGE:  cpu time    0.5703: real time    0.5722
    MIXING:  cpu time    0.0133: real time    0.0140
    --------------------------------------------
      LOOP:  cpu time    7.5401: real time    7.5735

 eigenvalue-minimisations  :   816
 total energy-change (2. order) : 0.2236147E+01  (-0.3502146E+00)
 number of electron     491.0000079 magnetization 
 augmentation part       -6.7128529 magnetization 

 Broyden mixing:
  rms(total) = 0.77199E+00    rms(broyden)= 0.77179E+00
  rms(prec ) = 0.79090E+00
  weight for this iteration     100.00

 eigenvalues of (default mixing * dielectric matrix)
  average eigenvalue GAMMA=   0.8797
  1.9807  1.6476  1.6476  0.6622  0.6622  0.6006  0.6006  0.4814  0.3460  0.1687

 Free energy of the ion-electron system (eV)
  ---------------------------------------------------
  alpha Z        PSCENC =       562.94535741
  Ewald energy   TEWEN  =     37844.07784467
  -Hartree energ DENC   =    -57661.16261415
  -exchange      EXHF   =         0.00000000
  -V(xc)+E(xc)   XCENC  =      -666.76594672
  PAW double counting   =     41937.96335631   -40180.43734973
  entropy T*S    EENTRO =        -0.11518851
  eigenvalues    EBANDS =     -3410.74348795
  atomic energy  EATOM  =     20917.06298232
  Solvation  Ediel_sol  =         0.00000000
  ---------------------------------------------------
  free energy    TOTEN  =      -657.17504634 eV

  energy without entropy =     -657.05985784  energy(sigma->0) =     -657.11745209


--------------------------------------------------------------------------------------------------------




----------------------------------------- Iteration    1(  16)  ---------------------------------------


    POTLOK:  cpu time    0.3651: real time    0.3660
    SETDIJ:  cpu time    0.0101: real time    0.0101
     EDDAV:  cpu time    6.9054: real time    6.9300
       DOS:  cpu time    0.0008: real time    0.0008
    CHARGE:  cpu time    0.5726: real time    0.5742
    MIXING:  cpu time    0.0140: real time    0.0141
    --------------------------------------------
      LOOP:  cpu time    7.8689: real time    7.8983

 eigenvalue-minimisations  :   864
 total energy-change (2. order) :-0.3730673E+01  (-0.3617651E+01)
 number of electron     491.0000077 magnetization 
 augmentation part       -6.7322306 magnetization 

 Broyden mixing:
  rms(total) = 0.19011E+01    rms(broyden)= 0.19008E+01
  rms(prec ) = 0.26554E+01
  weight for this iteration     100.00

 eigenvalues of (default mixing * dielectric matrix)
  average eigenvalue GAMMA=   0.8039
  1.9771  1.6637  1.6637  0.6310  0.6310  0.5707  0.5707  0.4969  0.3472  0.1688
  0.1222

 Free energy of the ion-electron system (eV)
  ---------------------------------------------------
  alpha Z        PSCENC =       562.94535741
  Ewald energy   TEWEN  =     37844.07784467
  -Hartree energ DENC   =    -57711.22714002
  -exchange      EXHF   =         0.00000000
  -V(xc)+E(xc)   XCENC  =      -665.44615536
  PAW double counting   =     41296.73864695   -39533.56426383
  entropy T*S    EENTRO =        -0.37580394
  eigenvalues    EBANDS =     -3371.11718756
  atomic energy  EATOM  =     20917.06298232
  Solvation  Ediel_sol  =         0.00000000
  ---------------------------------------------------
  free energy    TOTEN  =      -660.90571935 eV

  energy without entropy =     -660.52991541  energy(sigma->0) =     -660.71781738


--------------------------------------------------------------------------------------------------------




----------------------------------------- Iteration    1(  17)  ---------------------------------------


[...]
   -.171E+00 -.240E+00 0.164E+03   0.158E+00 0.190E+00 -.164E+03   0.127E-01 0.500E-01 0.560E-01   -.438E-03 0.298E-03 -.273E-01
   0.186E+00 -.294E+00 -.133E+03   -.169E+00 0.349E+00 0.133E+03   -.133E-01 -.548E-01 -.392E-01   -.399E-03 -.226E-03 0.204E-01
   0.356E+01 0.139E+01 0.178E+03   -.358E+01 -.145E+01 -.178E+03   0.183E-01 0.567E-01 0.724E-01   -.950E-03 -.391E-03 -.294E-01
   0.433E+00 0.179E+01 -.135E+03   -.417E+00 -.173E+01 0.135E+03   -.126E-01 -.537E-01 -.429E-01   -.424E-03 -.342E-03 0.207E-01
   0.892E+00 -.826E+00 -.136E+03   -.877E+00 0.886E+00 0.136E+03   -.119E-01 -.592E-01 -.427E-01   -.418E-03 -.294E-03 0.209E-01
   0.266E+01 -.569E+01 0.169E+03   -.268E+01 0.565E+01 -.169E+03   0.172E-01 0.473E-01 0.623E-01   -.102E-02 0.137E-02 -.281E-01
   0.120E+00 -.228E+01 -.133E+03   -.103E+00 0.234E+01 0.133E+03   -.138E-01 -.593E-01 -.401E-01   -.420E-03 -.139E-03 0.205E-01
   -.558E+00 0.816E+00 0.163E+03   0.546E+00 -.869E+00 -.163E+03   0.111E-01 0.526E-01 0.529E-01   -.318E-03 0.237E-04 -.273E-01
   -.291E+00 0.288E+00 -.133E+03   0.309E+00 -.234E+00 0.133E+03   -.144E-01 -.544E-01 -.398E-01   -.363E-03 -.239E-03 0.204E-01
   -.323E-01 -.179E+00 -.132E+03   0.499E-01 0.235E+00 0.132E+03   -.143E-01 -.551E-01 -.384E-01   -.339E-03 -.141E-03 0.204E-01
   -.400E-01 0.845E+01 0.172E+03   0.302E-01 -.851E+01 -.172E+03   0.878E-02 0.650E-01 0.619E-01   -.446E-03 -.150E-02 -.285E-01
   0.896E+00 -.167E+01 0.163E+03   -.912E+00 0.162E+01 -.163E+03   0.159E-01 0.477E-01 0.558E-01   -.646E-03 0.519E-03 -.273E-01
   0.189E+00 0.138E+01 -.134E+03   -.172E+00 -.132E+01 0.134E+03   -.137E-01 -.548E-01 -.408E-01   -.394E-03 -.368E-03 0.206E-01
   -.280E+00 -.725E+01 0.173E+03   0.268E+00 0.721E+01 -.173E+03   0.119E-01 0.414E-01 0.677E-01   -.252E-03 0.149E-02 -.287E-01
   -.358E+00 -.879E+00 -.138E+03   0.376E+00 0.938E+00 0.138E+03   -.148E-01 -.576E-01 -.445E-01   -.309E-03 -.214E-03 0.210E-01
   -.360E+01 0.104E+01 0.178E+03   0.359E+01 -.110E+01 -.178E+03   0.683E-02 0.621E-01 0.685E-01   0.207E-03 -.237E-03 -.293E-01
   -.223E+01 0.659E+01 0.167E+03   0.222E+01 -.666E+01 -.167E+03   0.964E-02 0.654E-01 0.579E-01   0.345E-04 -.130E-02 -.279E-01
   -.758E+00 0.169E+01 -.135E+03   0.777E+00 -.164E+01 0.135E+03   -.154E-01 -.538E-01 -.419E-01   -.240E-03 -.339E-03 0.207E-01
   0.410E+00 -.281E+01 -.135E+03   -.394E+00 0.287E+01 0.135E+03   -.128E-01 -.594E-01 -.403E-01   -.322E-03 -.969E-04 0.207E-01
   0.952E+01 0.165E+02 -.303E+03   -.960E+01 -.168E+02 0.307E+03   0.750E-01 0.303E+00 -.421E+01   -.369E-03 -.270E-02 0.486E-01
   0.179E-01 0.147E+01 -.618E+03   0.540E-01 -.117E+01 0.622E+03   -.741E-01 -.299E+00 -.446E+01   0.106E-02 -.507E-04 -.911E-01
   0.864E+00 0.210E+01 0.655E+03   -.941E+00 -.239E+01 -.659E+03   0.773E-01 0.296E+00 0.446E+01   0.507E-03 -.684E-03 -.108E+00
   -.418E+00 0.630E+01 0.349E+03   0.490E+00 -.600E+01 -.353E+03   -.745E-01 -.301E+00 0.432E+01   0.112E-02 -.665E-03 0.132E+00
   -.971E+00 0.488E+01 0.352E+03   0.104E+01 -.458E+01 -.356E+03   -.742E-01 -.301E+00 0.433E+01   0.111E-02 -.407E-03 0.132E+00
   -.114E+01 0.213E+01 0.655E+03   0.106E+01 -.242E+01 -.659E+03   0.791E-01 0.295E+00 0.445E+01   0.101E-02 -.635E-03 -.107E+00
   0.106E+02 -.530E+01 -.305E+03   -.107E+02 0.500E+01 0.309E+03   0.776E-01 0.300E+00 -.423E+01   -.877E-03 0.989E-03 0.491E-01
   0.306E+00 0.855E+00 -.619E+03   -.234E+00 -.556E+00 0.623E+03   -.743E-01 -.299E+00 -.446E+01   0.106E-02 -.131E-03 -.911E-01
   0.526E+00 -.337E+01 0.652E+03   -.603E+00 0.307E+01 -.657E+03   0.769E-01 0.301E+00 0.446E+01   0.564E-03 0.116E-02 -.107E+00
   -.513E+00 -.883E+00 0.353E+03   0.585E+00 0.118E+01 -.358E+03   -.738E-01 -.301E+00 0.433E+01   0.937E-03 0.790E-04 0.132E+00
   0.200E+01 0.257E+01 0.342E+03   -.193E+01 -.226E+01 -.346E+03   -.746E-01 -.302E+00 0.431E+01   0.837E-03 -.330E-03 0.133E+00
   -.937E-02 0.132E+01 -.617E+03   0.811E-01 -.103E+01 0.622E+03   -.738E-01 -.299E+00 -.446E+01   0.956E-03 0.255E-04 -.911E-01
   -.967E+01 0.167E+02 -.302E+03   0.959E+01 -.171E+02 0.306E+03   0.802E-01 0.302E+00 -.425E+01   0.193E-02 -.254E-02 0.486E-01
   0.783E+00 -.115E+02 -.326E+03   -.862E+00 0.112E+02 0.330E+03   0.785E-01 0.298E+00 -.429E+01   0.639E-03 0.209E-02 0.515E-01
   0.361E+00 -.268E+00 -.618E+03   -.289E+00 0.566E+00 0.623E+03   -.745E-01 -.298E+00 -.445E+01   0.106E-02 -.158E-03 -.910E-01
   -.117E+00 -.263E+01 0.651E+03   0.391E-01 0.234E+01 -.656E+03   0.771E-01 0.298E+00 0.446E+01   0.720E-03 0.807E-03 -.107E+00
   0.249E+01 -.430E+01 0.348E+03   -.242E+01 0.460E+01 -.352E+03   -.747E-01 -.302E+00 0.433E+01   0.843E-03 0.339E-03 0.133E+00
   -.127E+01 0.964E+01 -.326E+03   0.119E+01 -.994E+01 0.331E+03   0.765E-01 0.302E+00 -.430E+01   0.971E-03 -.143E-02 0.514E-01
   0.650E-01 0.355E+00 -.617E+03   0.712E-02 -.559E-01 0.621E+03   -.741E-01 -.299E+00 -.445E+01   0.102E-02 -.705E-04 -.910E-01
   0.104E+01 -.151E+01 0.655E+03   -.112E+01 0.121E+01 -.659E+03   0.764E-01 0.296E+00 0.446E+01   0.381E-03 0.319E-03 -.108E+00
   0.323E+00 0.999E-01 0.650E+03   -.400E+00 -.399E+00 -.655E+03   0.762E-01 0.300E+00 0.446E+01   0.603E-03 -.837E-04 -.107E+00
   0.275E+01 0.216E+01 -.329E+03   -.283E+01 -.246E+01 0.334E+03   0.764E-01 0.302E+00 -.430E+01   0.328E-03 -.494E-03 0.517E-01
   -.714E+00 -.499E+01 0.345E+03   0.785E+00 0.530E+01 -.349E+03   -.740E-01 -.302E+00 0.432E+01   0.106E-02 0.548E-03 0.133E+00
   0.245E-01 -.324E+00 -.618E+03   0.473E-01 0.623E+00 0.623E+03   -.739E-01 -.298E+00 -.446E+01   0.942E-03 -.108E-03 -.910E-01
   -.183E+01 0.429E+01 -.331E+03   0.175E+01 -.459E+01 0.335E+03   0.785E-01 0.303E+00 -.431E+01   0.102E-02 -.665E-03 0.520E-01
   0.216E+00 0.161E+00 -.617E+03   -.144E+00 0.138E+00 0.622E+03   -.741E-01 -.299E+00 -.446E+01   0.984E-03 -.309E-04 -.910E-01
   -.334E+00 0.390E+00 0.650E+03   0.255E+00 -.689E+00 -.655E+03   0.779E-01 0.299E+00 0.445E+01   0.993E-03 -.109E-04 -.107E+00
   0.908E+00 -.208E+01 0.353E+03   -.836E+00 0.238E+01 -.358E+03   -.741E-01 -.302E+00 0.434E+01   0.951E-03 0.283E-03 0.132E+00
   0.456E+01 -.181E+02 -.316E+03   -.464E+01 0.178E+02 0.320E+03   0.791E-01 0.301E+00 -.425E+01   -.963E-04 0.311E-02 0.506E-01
   -.325E+00 0.953E+00 0.651E+03   0.247E+00 -.125E+01 -.655E+03   0.779E-01 0.298E+00 0.445E+01   0.725E-03 -.213E-03 -.107E+00
   -.179E+00 0.113E+02 -.319E+03   0.102E+00 -.116E+02 0.324E+03   0.771E-01 0.303E+00 -.428E+01   0.750E-03 -.196E-02 0.504E-01
   0.301E+00 0.132E+01 -.617E+03   -.229E+00 -.102E+01 0.622E+03   -.743E-01 -.299E+00 -.446E+01   0.908E-03 0.160E-04 -.911E-01
   -.687E-01 0.166E+01 0.653E+03   -.952E-02 -.195E+01 -.657E+03   0.774E-01 0.294E+00 0.446E+01   0.763E-03 -.618E-03 -.107E+00
   0.170E+01 0.500E+01 0.351E+03   -.163E+01 -.470E+01 -.355E+03   -.739E-01 -.300E+00 0.433E+01   0.727E-03 -.469E-03 0.132E+00
   -.992E+01 -.688E+01 -.307E+03   0.985E+01 0.658E+01 0.311E+03   0.780E-01 0.300E+00 -.423E+01   0.209E-02 0.970E-03 0.490E-01
   0.206E+00 0.813E+00 -.618E+03   -.133E+00 -.516E+00 0.623E+03   -.743E-01 -.298E+00 -.446E+01   0.903E-03 -.906E-04 -.911E-01
   -.119E+01 -.155E+01 0.655E+03   0.111E+01 0.126E+01 -.659E+03   0.784E-01 0.295E+00 0.446E+01   0.103E-02 0.302E-03 -.108E+00
   0.980E+00 0.200E+01 0.347E+03   -.907E+00 -.170E+01 -.351E+03   -.743E-01 -.301E+00 0.432E+01   0.820E-03 -.234E-03 0.133E+00
   -.267E+01 0.222E+01 0.343E+03   0.275E+01 -.191E+01 -.348E+03   -.739E-01 -.302E+00 0.431E+01   0.130E-02 -.217E-03 0.133E+00
   -.198E+00 -.177E+01 0.657E+03   0.120E+00 0.147E+01 -.661E+03   0.779E-01 0.298E+00 0.446E+01   0.867E-03 0.446E-03 -.108E+00
   -.568E+01 -.161E+02 -.319E+03   0.560E+01 0.158E+02 0.323E+03   0.755E-01 0.299E+00 -.427E+01   0.173E-02 0.269E-02 0.506E-01
   -.759E-01 -.202E+00 -.618E+03   0.148E+00 0.500E+00 0.622E+03   -.741E-01 -.298E+00 -.446E+01   0.906E-03 -.102E-03 -.910E-01
   -.746E+00 -.311E+01 0.652E+03   0.668E+00 0.281E+01 -.657E+03   0.774E-01 0.300E+00 0.446E+01   0.101E-02 0.841E-03 -.107E+00
   -.147E+01 -.373E+01 0.349E+03   0.154E+01 0.403E+01 -.354E+03   -.738E-01 -.301E+00 0.433E+01   0.104E-02 0.331E-03 0.132E+00
   -.203E+00 0.845E+00 -.619E+03   0.274E+00 -.547E+00 0.623E+03   -.738E-01 -.298E+00 -.446E+01   0.958E-03 -.990E-04 -.911E-01
   -.102E+01 -.950E+01 -.286E+03   0.942E+00 0.919E+01 0.290E+03   0.788E-01 0.306E+00 -.418E+01   0.101E-02 0.130E-02 0.469E-01
   0.302E-01 0.296E+00 -.617E+03   0.418E-01 0.240E-02 0.622E+03   -.742E-01 -.299E+00 -.446E+01   0.904E-03 -.499E-04 -.910E-01
   -.836E-01 -.263E+00 0.354E+03   0.156E+00 0.564E+00 -.359E+03   -.744E-01 -.302E+00 0.434E+01   0.105E-02 0.308E-04 0.132E+00
 -----------------------------------------------------------------------------------------------
   -.211E+00 0.621E-01 -.289E+01   -.228E-12 -.126E-12 -.233E-11   0.177E+00 -.611E-01 0.221E+01   0.322E-01 0.526E-02 0.674E+00
 
 
 POSITION                                       TOTAL-FORCE (eV/Angst)
 -----------------------------------------------------------------------------------
     -0.22161      3.57065     15.31416         0.018382      0.003343     -0.000587
     -1.35410      2.77353     14.93910        -0.001694     -0.016346     -0.004455
      0.03610      3.34889     16.70292         0.011746      0.008740      0.001366
     -0.94441      2.42250     17.19090         0.006058     -0.012846     -0.010180
      7.77925      2.05408     16.09541        -0.004501     -0.005806     -0.009806
     -3.04260      5.57102     15.63560        -0.013883      0.006153      0.001916
      6.24580      4.69444     17.75965        -0.018932     -0.000319     -0.002596
      5.72429      4.68792     16.42736        -0.009263     -0.006426     -0.002437
     -2.21254      5.59997     17.79801         0.009907      0.015140     -0.003774
     -2.04256      6.14591     16.48784         0.008634      0.008760     -0.003447
     -1.87114      4.08900     16.43742        -0.002190     -0.001047     -0.004441
      6.92150      1.38840     16.14788         0.005664     -0.002799     -0.010396
      4.90167      4.07706     16.06356        -0.000156      0.005284      0.001408
     -1.59098      5.80602     18.66605         0.002691      0.000408     -0.007722
      5.88205      4.09889     18.59355         0.003672     -0.000576     -0.001178
     -3.15543      5.75610     14.57016        -0.002938     -0.002629     -0.016740
      7.75930      2.74291     13.95292        -0.000219      0.004784     -0.010716
      0.32025      4.24805     14.65868         0.001483      0.004729     -0.002808
      0.80622      3.83385     17.29830        -0.006692     -0.004934     -0.006477
     -1.03976      2.07809     18.21777        -0.002385     -0.002470      0.003160
     -1.26301      6.83781     16.17907        -0.004330     -0.003126     -0.007319
      4.78559      0.92648      8.72815        -0.000685      0.001586      0.005998
      3.19051      3.68926      8.72842        -0.000480      0.001446      0.006433
      1.59488      4.59936     26.15778         0.002799     -0.001149     -0.002379
      1.59540      6.45239      8.72693        -0.000818      0.001535      0.007317
     -0.00026      7.36224     26.15791         0.002737     -0.001197     -0.002394
      0.00023      9.21542      8.72643        -0.000398      0.001522      0.006268
     -1.59550     10.12503     26.15814         0.002746     -0.001053     -0.002295
      6.38100      3.68937      8.72830        -0.001265      0.000563      0.006051
      6.38054      1.83608     26.15802         0.002551     -0.001180     -0.002917
      4.78537      4.59911     26.15786         0.002652     -0.001188     -0.002673
      4.78587      6.45234      8.72666        -0.001764      0.000495      0.005988
      3.19028      7.36198     26.15795         0.002494     -0.001111     -0.002732
      3.19078      9.21529      8.72568        -0.001237      0.001118      0.005589
      1.59513     10.12477     26.15812         0.002371     -0.001199     -0.002671
     -4.78576     10.12484     26.15828         0.002831     -0.000655     -0.002166
      7.97637      0.92639      8.72722        -0.001418      0.000759      0.005649
     -3.19024      9.21549      8.72652        -0.000712      0.001093      0.005830
      3.18998      1.83638     26.15802         0.002685     -0.001238     -0.002430
     -1.59505      6.45264      8.72760        -0.000149      0.001194      0.006421
     -1.59544      4.59913     26.15793         0.002871     -0.000570     -0.002513
      0.00016      3.68933      8.72837        -0.000623      0.001110      0.005925
      1.59520      0.92668      8.72750        -0.000023      0.001475      0.006321
     -0.00027      1.83616     26.15813         0.002983     -0.000832     -0.002186
     -3.19063      7.36203     26.15809         0.002947     -0.000623     -0.002184
      6.38047      1.83833     10.28166        -0.000463     -0.000633     -0.002845
      7.97661      0.92378     27.71251        -0.000995      0.000670     -0.000358
      6.37951      1.83909      7.17384         0.000273     -0.000761      0.007481
      7.97670      0.92379     24.60436        -0.000995      0.000716     -0.000337
      1.59594      0.92392     24.60450        -0.001085      0.000375     -0.000426
     -0.00089      1.83942      7.17335         0.000012     -0.000400      0.007453
      4.78467      4.60215     10.28112         0.000146     -0.000222     -0.002668
      6.38146      3.68673     27.71229        -0.000960      0.000583     -0.000344
     -3.19091      7.36459      7.17258         0.000149     -0.000645      0.007543
      0.00074      9.21293     24.60436        -0.000884      0.000665     -0.000308
      6.38150      3.68676     24.60417        -0.001042      0.000569     -0.000256
      1.59600      0.92401     27.71258        -0.000976      0.000551     -0.000766
     -0.00126      1.83835     10.28144         0.000338     -0.000867     -0.002565
      3.18954      7.36508     10.27933         0.000226     -0.000712     -0.002147
      4.78630      6.44953     27.71241        -0.001021      0.000717     -0.000361
      3.18939      7.36413      7.17197         0.000135     -0.000745      0.007851
      4.78640      6.44983     24.60422        -0.001062      0.000630     -0.000324
      1.59464     10.12688     10.27949        -0.000132     -0.000563     -0.002350
      3.19113      9.21236     27.71260        -0.000894      0.000708     -0.000374
      4.78458      4.60096      7.17359         0.000265     -0.000472      0.007950
     -1.59612     10.12826      7.17257        -0.000254     -0.000374      0.007604
     -1.59611     10.12685     10.28011        -0.000132     -0.000464     -0.002273
     -1.59438      6.44998     24.60427        -0.001058      0.000315     -0.000414
     -1.59427      6.44973     27.71234        -0.000931      0.000608     -0.000620
     -4.78671     10.12707     10.27954        -0.000101     -0.000604     -0.001984
     -3.18945      9.21257     27.71264        -0.001129      0.000611     -0.000738
     -4.78607     10.12831      7.17199        -0.000219     -0.000420      0.007774
     -3.18955      9.21280     24.60450        -0.001165      0.000284     -0.000415
     -3.19159      7.36496     10.28034        -0.000062     -0.000484     -0.002527
      1.59407     10.12798      7.17194         0.000235     -0.000568      0.007625
      3.18910      1.83822     10.28106        -0.000188     -0.000522     -0.001970
      4.78622      0.92411     27.71245        -0.001132      0.000476     -0.000448
      3.18959      1.83908      7.17366        -0.000104     -0.000754      0.007581
      4.78617      0.92405     24.60437        -0.000961      0.000627     -0.000189
      1.59407      4.60205     10.28133         0.000128     -0.000372     -0.002062
      3.19104      3.68708     27.71225        -0.001033      0.000535     -0.000456
      1.59423      4.60112      7.17377        -0.000429     -0.000649      0.007298
      3.19108      3.68702     24.60420        -0.000919      0.000597     -0.000177
      0.00079      3.68689     24.60428        -0.001069      0.000354     -0.000474
     -1.59611      4.60163      7.17411         0.000404     -0.000630      0.007433
     -0.00068      7.36512     10.28010        -0.000012     -0.000622     -0.002275
      1.59593      6.44985     27.71228        -0.001047      0.000620     -0.000510
     -0.00117      7.36442      7.17263        -0.000071     -0.000892      0.007911
      1.59594      6.45011     24.60418        -0.000882      0.000623     -0.000237
      0.00087      3.68696     27.71231        -0.001065      0.000700     -0.000697
     -1.59612      4.60178     10.28214         0.000125     -0.000195     -0.002857
      0.00078      9.21268     27.71248        -0.001150      0.000575     -0.000440
      3.19126      9.21267     24.60439        -0.000966      0.000541     -0.000330
 -----------------------------------------------------------------------------------
    total drift:                               -0.002060      0.006212      0.000777


--------------------------------------------------------------------------------------------------------



  FREE ENERGIE OF THE ION-ELECTRON SYSTEM (eV)
  ---------------------------------------------------
  free  energy   TOTEN  =      -671.42705569 eV

  energy  without entropy=     -671.30447971  energy(sigma->0) =     -671.36576770
 
 d Force = 0.8753073E-04[ 0.443E-04, 0.131E-03]  d Energy = 0.1836816E-03-0.962E-04
 d Force =-0.2782435E+01[-0.278E+01,-0.278E+01]  d Ewald  =-0.2782434E+01-0.110E-05


--------------------------------------------------------------------------------------------------------


    POTLOK:  cpu time    0.3787: real time    0.3806


--------------------------------------------------------------------------------------------------------


 stress matrix after NEB project (eV)
     11.72445      0.90210      0.07355
      0.90210     -8.34829     -0.08272
      0.07355     -0.08272     -4.17299
  FORCES: max atom, RMS     0.019112    0.007325
  FORCE total and by dimension    0.070636    0.018932
  Stress total and by dimension   15.040694   11.724446
 Conjugate gradient step on ions:
 trial-energy change:   -0.000184  1 .order   -0.000088   -0.000131   -0.000044
  (g-gl).g = 0.197E-03      g.g   = 0.365E-03  gl.gl    = 0.558E-03
 g(Force)  = 0.365E-03   g(Stress)= 0.000E+00 ortho     = 0.135E-04
 gamma     =   0.35292
 trial     =   0.35388
 opt step  =   0.53522  (harmonic =   0.53522) maximal distance =0.00054233
 next E    =  -671.426971   (d E  =  -0.00010)


--------------------------------------------------------------------------------------------------------


  
 reached required accuracy - stopping structural energy minimisation
     LOOP+:  cpu time   31.0113: real time   31.2217
    4ORBIT:  cpu time    0.0000: real time    0.0000

 total amount of memory used by VASP on root node   114672. kBytes
========================================================================

   base      :      30000. kBytes
   nonlr-proj:      16449. kBytes
   fftplans  :      19781. kBytes
   grid      :      43661. kBytes
   one-center:        241. kBytes
   wavefun   :       4540. kBytes
 
  
  
 General timing and accounting informations for this job:
 ========================================================
  
                  Total CPU time used (sec):     2225.697
                            User time (sec):     2159.775
                          System time (sec):       65.922
                         Elapsed time (sec):     2278.134
  
                   Maximum memory used (kb):      165412.
                   Average memory used (kb):           0.
  
                          Minor page faults:      8519889
                          Major page faults:            0
                 Voluntary context switches:         9375
