<?xml version="1.0" encoding="ISO-8859-1"?>
<modeling>
 <generator>
  <i name="program" type="string">vasp </i>
  <i name="version" type="string">5.4.1  </i>
  <i name="subversion" type="string">05Feb16 (build Apr 21 2017 13:36:42) gamma-only                       parallel </i>
  <i name="platform" type="string">IFC91_ompi </i>
  <i name="date" type="string">2020 09 15 </i>
  <i name="time" type="string">08:13:44 </i>
 </generator>
 <incar>
  <i type="string" name="SYSTEM"> basalPlane</i>
  <i type="int" name="ISTART">     0</i>
  <i type="string" name="PREC">accurate  !=accurate, max(enmax) no wra</i>
  <i type="string" name="ALGO"> Normal    !=Normal, blocked Davidson it</i>
  <i type="int" name="NSIM">     4</i>
  <i type="int" name="ISPIN">     1</i>
  <i type="int" name="ICHARG">     2</i>
  <i type="int" name="INIWAV">     1</i>
  <i type="int" name="NELM">   200</i>
  <i type="int" name="NELMDL">    -5</i>
  <i type="int" name="NELMIN">     2</i>
  <i type="int" name="IBRION">     2</i>
  <i name="EDIFF">      0.00010000</i>
  <i name="EDIFFG">     -0.02000000</i>
  <i type="int" name="NSW"> 10000</i>
  <i type="int" name="ISIF">     2</i>
  <i type="int" name="ISYM">     2</i>
  <i name="ENCUT">    400.00000000</i>
  <i name="ENAUG">    645.00000000</i>
  <i type="string" name="LREAL"> Auto     !=Auto projection operators ev</i>
  <i type="logical" name="LPLANE"> T  </i>
  <i type="int" name="ISMEAR">     0</i>
  <i name="SIGMA">      0.10000000</i>
  <i type="int" name="NWRITE">     2</i>
  <i type="logical" name="LWAVE"> F  </i>
  <i type="logical" name="LCHARG"> F  </i>
  <i type="logical" name="LORBIT"> F  </i>
  <i type="logical" name="LELF"> F  </i>
  <i type="logical" name="LSCALU"> F  </i>
  <v type="int" name="KPOINT_BSE">    -1     0     0     0</v>
  <i type="int" name="NELM">   200</i>
 </incar>
 <kpoints>
  <varray name="kpointlist" >
   <v>       0.00000000       0.00000000       0.00000000 </v>
  </varray>
  <varray name="weights" >
   <v>       1.00000000 </v>
  </varray>
 </kpoints>
 <parameters>
  <separator name="general" >
   <i type="string" name="SYSTEM">basalPlane</i>
   <i type="logical" name="LCOMPAT"> F  </i>
  </separator>
  <separator name="electronic" >
   <i type="string" name="PREC">accura</i>
   <i name="ENMAX">    400.00000000</i>
   <i name="ENAUG">    645.00000000</i>
   <i name="EDIFF">      0.00010000</i>
   <i type="int" name="IALGO">    38</i>
   <i type="int" name="IWAVPR">    11</i>
   <i type="int" name="NBANDS">   300</i>
   <i name="NELECT">    491.00000000</i>
   <i type="int" name="TURBO">     0</i>
   <i type="int" name="IRESTART">     0</i>
   <i type="int" name="NREBOOT">     0</i>
   <i type="int" name="NMIN">     0</i>
   <i name="EREF">      0.00000000</i>
   <separator name="electronic smearing" >
    <i type="int" name="ISMEAR">     0</i>
    <i name="SIGMA">      0.10000000</i>
    <i name="KSPACING">      0.50000000</i>
    <i type="logical" name="KGAMMA"> T  </i>
   </separator>
   <separator name="electronic projectors" >
    <i type="logical" name="LREAL"> T  </i>
    <v name="ROPT">     -0.00025000     -0.00025000     -0.00025000     -0.00025000     -0.00025000</v>
    <i type="int" name="LMAXPAW">  -100</i>
    <i type="int" name="LMAXMIX">     2</i>
    <i type="logical" name="NLSPLINE"> F  </i>
   </separator>
   <separator name="electronic startup" >
    <i type="int" name="ISTART">     0</i>
    <i type="int" name="ICHARG">     2</i>
    <i type="int" name="INIWAV">     1</i>
   </separator>
   <separator name="electronic spin" >
    <i type="int" name="ISPIN">     1</i>
    <i type="logical" name="LNONCOLLINEAR"> F  </i>
    <v name="MAGMOM">      1.00000000      1.00000000      1.00000000      1.00000000      1.00000000      1.00000000      1.00000000      1.00000000      1.00000000      1.00000000      1.00000000      1.00000000      1.00000000      1.00000000      1.00000000      1.00000000      1.00000000      1.00000000      1.00000000      1.00000000
      1.00000000      1.00000000      1.00000000      1.00000000      1.00000000      1.00000000      1.00000000      1.00000000      1.00000000      1.00000000      1.00000000      1.00000000      1.00000000      1.00000000      1.00000000      1.00000000      1.00000000      1.00000000      1.00000000      1.00000000
      1.00000000      1.00000000      1.00000000      1.00000000      1.00000000      1.00000000      1.00000000      1.00000000      1.00000000      1.00000000      1.00000000      1.00000000      1.00000000      1.00000000      1.00000000      1.00000000      1.00000000      1.00000000      1.00000000      1.00000000
      1.00000000      1.00000000      1.00000000      1.00000000      1.00000000      1.00000000      1.00000000      1.00000000      1.00000000      1.00000000      1.00000000      1.00000000      1.00000000      1.00000000      1.00000000      1.00000000      1.00000000      1.00000000      1.00000000      1.00000000
      1.00000000      1.00000000      1.00000000      1.00000000      1.00000000      1.00000000      1.00000000      1.00000000      1.00000000      1.00000000      1.00000000      1.00000000      1.00000000</v>
    <i name="NUPDOWN">     -1.00000000</i>
    <i type="logical" name="LSORBIT"> F  </i>
    <v name="SAXIS">      0.00000000      0.00000000      1.00000000</v>
    <i type="logical" name="LSPIRAL"> F  </i>
    <v name="QSPIRAL">      0.00000000      0.00000000      0.00000000</v>
    <i type="logical" name="LZEROZ"> F  </i>
   </separator>
   <separator name="electronic exchange-correlation" >
    <i type="logical" name="LASPH"> F  </i>
    <i type="logical" name="LMETAGGA"> F  </i>
   </separator>
   <separator name="electronic convergence" >
    <i type="int" name="NELM">   200</i>
    <i type="int" name="NELMDL">    -5</i>
    <i type="int" name="NELMIN">     2</i>
    <i name="ENINI">    400.00000000</i>
    <separator name="electronic convergence detail" >
     <i type="logical" name="LDIAG"> T  </i>
     <i type="logical" name="LSUBROT"> F  </i>
     <i name="WEIMIN">      0.00100000</i>
     <i name="EBREAK">      0.00000008</i>
     <i name="DEPER">      0.30000000</i>
     <i type="int" name="NRMM">     4</i>
     <i name="TIME">      0.40000000</i>
    </separator>
   </separator>
   <separator name="electronic mixer" >
    <i name="AMIX">      0.40000000</i>
    <i name="BMIX">      1.00000000</i>
    <i name="AMIN">      0.10000000</i>
    <i name="AMIX_MAG">      1.60000000</i>
    <i name="BMIX_MAG">      1.00000000</i>
    <separator name="electronic mixer details" >
     <i type="int" name="IMIX">     4</i>
     <i type="logical" name="MIXFIRST"> F  </i>
     <i type="int" name="MAXMIX">   -45</i>
     <i name="WC">    100.00000000</i>
     <i type="int" name="INIMIX">     1</i>
     <i type="int" name="MIXPRE">     1</i>
     <i type="int" name="MREMOVE">     5</i>
    </separator>
   </separator>
   <separator name="electronic dipolcorrection" >
    <i type="logical" name="LDIPOL"> F  </i>
    <i type="logical" name="LMONO"> F  </i>
    <i type="int" name="IDIPOL">     0</i>
    <i name="EPSILON">      1.00000000</i>
    <v name="DIPOL">   -100.00000000   -100.00000000   -100.00000000</v>
    <i name="EFIELD">      0.00000000</i>
   </separator>
  </separator>
  <separator name="grids" >
   <i type="int" name="NGX">    64</i>
   <i type="int" name="NGY">    84</i>
   <i type="int" name="NGZ">   240</i>
   <i type="int" name="NGXF">   128</i>
   <i type="int" name="NGYF">   168</i>
   <i type="int" name="NGZF">   480</i>
   <i type="logical" name="ADDGRID"> F  </i>
  </separator>
  <separator name="ionic" >
   <i type="int" name="NSW"> 10000</i>
   <i type="int" name="IBRION">     2</i>
   <i type="int" name="ISIF">     2</i>
   <i name="PSTRESS">      0.00000000</i>
   <i name="EDIFFG">     -0.02000000</i>
   <i type="int" name="NFREE">     1</i>
   <i name="POTIM">      0.50000000</i>
   <i name="SMASS">     -3.00000000</i>
   <i name="SCALEE">      1.00000000</i>
  </separator>
  <separator name="ionic md" >
   <i name="TEBEG">      0.00010000</i>
   <i name="TEEND">      0.00010000</i>
   <i type="int" name="NBLOCK">     1</i>
   <i type="int" name="KBLOCK"> 10000</i>
   <i type="int" name="NPACO">   256</i>
   <i name="APACO">     16.00000000</i>
  </separator>
  <separator name="symmetry" >
   <i type="int" name="ISYM">     2</i>
   <i name="SYMPREC">      0.00001000</i>
  </separator>
  <separator name="dos" >
   <i type="logical" name="LORBIT"> F  </i>
   <v name="RWIGS">     -1.00000000     -1.00000000     -1.00000000     -1.00000000     -1.00000000</v>
   <i type="int" name="NEDOS">   301</i>
   <i name="EMIN">     10.00000000</i>
   <i name="EMAX">    -10.00000000</i>
   <i name="EFERMI">      0.00000000</i>
  </separator>
  <separator name="writing" >
   <i type="int" name="NWRITE">     2</i>
   <i type="logical" name="LWAVE"> F  </i>
   <i type="logical" name="LCHARG"> F  </i>
   <i type="logical" name="LPARD"> F  </i>
   <i type="logical" name="LVTOT"> F  </i>
   <i type="logical" name="LVHAR"> F  </i>
   <i type="logical" name="LELF"> F  </i>
   <i type="logical" name="LOPTICS"> F  </i>
   <v name="STM">      0.00000000      0.00000000      0.00000000      0.00000000      0.00000000      0.00000000      0.00000000</v>
  </separator>
  <separator name="performance" >
   <i type="int" name="NPAR">    12</i>
   <i type="int" name="NSIM">     4</i>
   <i type="int" name="NBLK">    -1</i>
   <i type="logical" name="LPLANE"> T  </i>
   <i type="logical" name="LSCALAPACK"> T  </i>
   <i type="logical" name="LSCAAWARE"> F  </i>
   <i type="logical" name="LSCALU"> F  </i>
   <i type="logical" name="LASYNC"> F  </i>
   <i type="logical" name="LORBITALREAL"> F  </i>
  </separator>
  <separator name="miscellaneous" >
   <i type="int" name="IDIOT">     3</i>
   <i type="logical" name="LMUSIC"> F  </i>
   <v name="POMASS">     12.01100000     58.93300000      1.00000000     95.94000000     32.06600000</v>
   <v name="DARWINR">      0.00000000      0.00000000      0.00000000      0.00000000      0.00000000</v>
   <v name="DARWINV">      1.00000000      1.00000000      1.00000000      1.00000000      1.00000000</v>
   <i type="logical" name="LCORR"> T  </i>
  </separator>
  <i type="logical" name="GGA_COMPAT"> T  </i>
  <i type="logical" name="LBERRY"> F  </i>
  <i type="int" name="ICORELEVEL">     0</i>
  <i type="logical" name="LDAU"> F  </i>
  <i type="int" name="I_CONSTRAINED_M">     0</i>
  <separator name="electronic exchange-correlation" >
   <i type="string" name="GGA">--</i>
   <i type="int" name="VOSKOWN">     0</i>
   <i type="logical" name="LHFCALC"> F  </i>
   <i type="string" name="PRECFOCK"></i>
   <i type="logical" name="LSYMGRAD"> F  </i>
   <i type="logical" name="LHFONE"> F  </i>
   <i type="logical" name="LRHFCALC"> F  </i>
   <i type="logical" name="LTHOMAS"> F  </i>
   <i type="logical" name="LMODELHF"> F  </i>
   <i name="ENCUT4O">     -1.00000000</i>
   <i type="int" name="EXXOEP">     0</i>
   <i type="int" name="FOURORBIT">     0</i>
   <i name="AEXX">      0.00000000</i>
   <i name="HFALPHA">      0.00000000</i>
   <i name="MCALPHA">      0.00000000</i>
   <i name="ALDAX">      1.00000000</i>
   <i name="AGGAX">      1.00000000</i>
   <i name="ALDAC">      1.00000000</i>
   <i name="AGGAC">      1.00000000</i>
   <i type="int" name="NKREDX">     1</i>
   <i type="int" name="NKREDY">     1</i>
   <i type="int" name="NKREDZ">     1</i>
   <i type="logical" name="SHIFTRED"> F  </i>
   <i type="logical" name="ODDONLY"> F  </i>
   <i type="logical" name="EVENONLY"> F  </i>
   <i type="int" name="LMAXFOCK">     0</i>
   <i type="int" name="NMAXFOCKAE">     0</i>
   <i type="logical" name="LFOCKAEDFT"> F  </i>
   <i name="HFSCREEN">      0.00000000</i>
   <i name="HFSCREENC">      0.00000000</i>
   <i type="int" name="NBANDSGWLOW">     0</i>
  </separator>
  <separator name="vdW DFT" >
   <i type="logical" name="LUSE_VDW"> F  </i>
   <i name="Zab_VDW">     -0.84910000</i>
   <i name="PARAM1">      0.12340000</i>
   <i name="PARAM2">      1.00000000</i>
   <i name="PARAM3">      0.00000000</i>
  </separator>
  <separator name="model GW" >
   <i type="int" name="MODEL_GW">     0</i>
   <i name="MODEL_EPS0">     23.80275655</i>
   <i name="MODEL_ALPHA">      1.00000000</i>
  </separator>
  <separator name="linear response parameters" >
   <i type="logical" name="LEPSILON"> F  </i>
   <i type="logical" name="LRPA"> F  </i>
   <i type="logical" name="LNABLA"> F  </i>
   <i type="logical" name="LVEL"> F  </i>
   <i type="int" name="KINTER">     0</i>
   <i name="CSHIFT">      0.10000000</i>
   <i name="OMEGAMAX">     -1.00000000</i>
   <i name="DEG_THRESHOLD">      0.00200000</i>
  </separator>
  <separator name="orbital magnetization" >
   <i type="logical" name="NUCIND"> F  </i>
   <v name="MAGPOS">      0.00000000      0.00000000      0.00000000</v>
   <i type="logical" name="LNICSALL"> T  </i>
   <i type="logical" name="ORBITALMAG"> F  </i>
   <i type="logical" name="LMAGBLOCH"> F  </i>
   <i type="logical" name="LCHIMAG"> F  </i>
   <i type="logical" name="LGAUGE"> T  </i>
   <i type="int" name="MAGATOM">     0</i>
   <v name="MAGDIPOL">      0.00000000      0.00000000      0.00000000</v>
   <v name="AVECCONST">      0.00000000      0.00000000      0.00000000</v>
  </separator>
  <separator name="response functions" >
   <i type="logical" name="LADDER"> F  </i>
   <i type="logical" name="LFXC"> F  </i>
   <i type="logical" name="LHARTREE"> T  </i>
   <i type="int" name="IBSE">     0</i>
   <v type="int" name="KPOINT">    -1     0     0     0</v>
   <i type="logical" name="LTCTE"> F  </i>
   <i type="logical" name="LTETE"> F  </i>
   <i type="logical" name="LTRIPLET"> F  </i>
   <i type="logical" name="LFXCEPS"> F  </i>
   <i type="logical" name="LFXHEG"> F  </i>
   <i type="int" name="NATURALO">     0</i>
   <i type="logical" name="L2ORDER"> F  </i>
   <i type="logical" name="LUSEW"> F  </i>
   <i name="ENCUTGW">     -2.00000000</i>
   <i name="ENCUTGWSOFT">     -2.00000000</i>
   <i name="ENCUTLF">     -1.00000000</i>
   <i type="int" name="LMAXMP2">    -1</i>
   <i name="SCISSOR">      0.00000000</i>
   <i type="int" name="NOMEGA">     0</i>
   <i type="int" name="NOMEGAR">     0</i>
   <i type="int" name="NBANDSGW">    -1</i>
   <i type="int" name="NBANDSO">    -1</i>
   <i type="int" name="NBANDSV">    -1</i>
   <i type="int" name="NELM">   200</i>
   <i type="int" name="NELMHF">     1</i>
   <i type="int" name="DIM">     3</i>
   <i type="int" name="ANTIRES">     0</i>
   <i name="OMEGAMAX">    -30.00000000</i>
   <i name="OMEGAMIN">    -30.00000000</i>
   <i name="OMEGATL">   -200.00000000</i>
   <i type="int" name="OMEGAGRID">     0</i>
   <i name="CSHIFT">     -0.10000000</i>
   <i type="logical" name="SELFENERGY"> F  </i>
   <i type="logical" name="LSPECTRAL"> F  </i>
   <i type="logical" name="LSPECTRALGW"> F  </i>
   <i type="logical" name="LSINGLES"> F  </i>
   <i type="logical" name="LFERMIGW"> F  </i>
   <i type="logical" name="ODDONLYGW"> F  </i>
   <i type="logical" name="EVENONLYGW"> F  </i>
   <i type="int" name="NKREDLFX">     1</i>
   <i type="int" name="NKREDLFY">     1</i>
   <i type="int" name="NKREDLFZ">     1</i>
   <i type="int" name="MAXMEM">  1800</i>
   <i type="int" name="TELESCOPE">     0</i>
   <i type="int" name="TAUPAR">     1</i>
   <i type="int" name="OMEGAPAR">    -1</i>
   <i name="LAMBDA">      1.00000000</i>
  </separator>
  <separator name="External order field" >
   <i name="OFIELD_KAPPA">      0.00000000</i>
   <v name="OFIELD_K">      0.00000000      0.00000000      0.00000000</v>
   <i name="OFIELD_Q6_NEAR">      0.00000000</i>
   <i name="OFIELD_Q6_FAR">      0.00000000</i>
   <i name="OFIELD_A">      0.00000000</i>
  </separator>
 </parameters>
 <atominfo>
  <atoms>      93 </atoms>
  <types>       5 </types>
  <array name="atoms" >
   <dimension dim="1">ion</dimension>
   <field type="string">element</field>
   <field type="int">atomtype</field>
   <set>
    <rc><c>C </c><c>   1</c></rc>
    <rc><c>C </c><c>   1</c></rc>
    <rc><c>C </c><c>   1</c></rc>
    <rc><c>C </c><c>   1</c></rc>
    <rc><c>C </c><c>   1</c></rc>
    <rc><c>C </c><c>   1</c></rc>
    <rc><c>C </c><c>   1</c></rc>
    <rc><c>C </c><c>   1</c></rc>
    <rc><c>C </c><c>   1</c></rc>
    <rc><c>C </c><c>   1</c></rc>
    <rc><c>Co</c><c>   2</c></rc>
    <rc><c>H </c><c>   3</c></rc>
    <rc><c>H </c><c>   3</c></rc>
    <rc><c>H </c><c>   3</c></rc>
    <rc><c>H </c><c>   3</c></rc>
    <rc><c>H </c><c>   3</c></rc>
    <rc><c>H </c><c>   3</c></rc>
    <rc><c>H </c><c>   3</c></rc>
    <rc><c>H </c><c>   3</c></rc>
    <rc><c>H </c><c>   3</c></rc>
    <rc><c>H </c><c>   3</c></rc>
    <rc><c>Mo</c><c>   4</c></rc>
    <rc><c>Mo</c><c>   4</c></rc>
    <rc><c>Mo</c><c>   4</c></rc>
    <rc><c>Mo</c><c>   4</c></rc>
    <rc><c>Mo</c><c>   4</c></rc>
    <rc><c>Mo</c><c>   4</c></rc>
    <rc><c>Mo</c><c>   4</c></rc>
    <rc><c>Mo</c><c>   4</c></rc>
    <rc><c>Mo</c><c>   4</c></rc>
    <rc><c>Mo</c><c>   4</c></rc>
    <rc><c>Mo</c><c>   4</c></rc>
    <rc><c>Mo</c><c>   4</c></rc>
    <rc><c>Mo</c><c>   4</c></rc>
    <rc><c>Mo</c><c>   4</c></rc>
    <rc><c>Mo</c><c>   4</c></rc>
    <rc><c>Mo</c><c>   4</c></rc>
    <rc><c>Mo</c><c>   4</c></rc>
    <rc><c>Mo</c><c>   4</c></rc>
    <rc><c>Mo</c><c>   4</c></rc>
    <rc><c>Mo</c><c>   4</c></rc>
    <rc><c>Mo</c><c>   4</c></rc>
    <rc><c>Mo</c><c>   4</c></rc>
    <rc><c>Mo</c><c>   4</c></rc>
    <rc><c>Mo</c><c>   4</c></rc>
    <rc><c>S </c><c>   5</c></rc>
    <rc><c>S </c><c>   5</c></rc>
    <rc><c>S </c><c>   5</c></rc>
    <rc><c>S </c><c>   5</c></rc>
    <rc><c>S </c><c>   5</c></rc>
    <rc><c>S </c><c>   5</c></rc>
    <rc><c>S </c><c>   5</c></rc>
    <rc><c>S </c><c>   5</c></rc>
    <rc><c>S </c><c>   5</c></rc>
    <rc><c>S </c><c>   5</c></rc>
    <rc><c>S </c><c>   5</c></rc>
    <rc><c>S </c><c>   5</c></rc>
    <rc><c>S </c><c>   5</c></rc>
    <rc><c>S </c><c>   5</c></rc>
    <rc><c>S </c><c>   5</c></rc>
    <rc><c>S </c><c>   5</c></rc>
    <rc><c>S </c><c>   5</c></rc>
    <rc><c>S </c><c>   5</c></rc>
    <rc><c>S </c><c>   5</c></rc>
    <rc><c>S </c><c>   5</c></rc>
    <rc><c>S </c><c>   5</c></rc>
    <rc><c>S </c><c>   5</c></rc>
    <rc><c>S </c><c>   5</c></rc>
    <rc><c>S </c><c>   5</c></rc>
    <rc><c>S </c><c>   5</c></rc>
    <rc><c>S </c><c>   5</c></rc>
    <rc><c>S </c><c>   5</c></rc>
    <rc><c>S </c><c>   5</c></rc>
    <rc><c>S </c><c>   5</c></rc>
    <rc><c>S </c><c>   5</c></rc>
    <rc><c>S </c><c>   5</c></rc>
    <rc><c>S </c><c>   5</c></rc>
    <rc><c>S </c><c>   5</c></rc>
    <rc><c>S </c><c>   5</c></rc>
    <rc><c>S </c><c>   5</c></rc>
    <rc><c>S </c><c>   5</c></rc>
    <rc><c>S </c><c>   5</c></rc>
    <rc><c>S </c><c>   5</c></rc>
    <rc><c>S </c><c>   5</c></rc>
    <rc><c>S </c><c>   5</c></rc>
    <rc><c>S </c><c>   5</c></rc>
    <rc><c>S </c><c>   5</c></rc>
    <rc><c>S </c><c>   5</c></rc>
    <rc><c>S </c><c>   5</c></rc>
    <rc><c>S </c><c>   5</c></rc>
    <rc><c>S </c><c>   5</c></rc>
    <rc><c>S </c><c>   5</c></rc>
    <rc><c>S </c><c>   5</c></rc>
   </set>
  </array>
  <array name="atomtypes" >
   <dimension dim="1">type</dimension>
   <field type="int">atomspertype</field>
   <field type="string">element</field>
   <field>mass</field>
   <field>valence</field>
   <field type="string">pseudopotential</field>
   <set>
    <rc><c>  10</c><c>C </c><c>     12.01100000</c><c>      4.00000000</c><c>  PAW_PBE C 08Apr2002                   </c></rc>
    <rc><c>   1</c><c>Co</c><c>     58.93300000</c><c>      9.00000000</c><c>  PAW_PBE Co 02Aug2007                  </c></rc>
    <rc><c>  10</c><c>H </c><c>      1.00000000</c><c>      1.00000000</c><c>  PAW_PBE H 15Jun2001                   </c></rc>
    <rc><c>  24</c><c>Mo</c><c>     95.94000000</c><c>      6.00000000</c><c>  PAW_PBE Mo 08Apr2002                  </c></rc>
    <rc><c>  48</c><c>S </c><c>     32.06600000</c><c>      6.00000000</c><c>  PAW_PBE S 06Sep2000                   </c></rc>
   </set>
  </array>
 </atominfo>
 <structure name="initialpos" >
  <crystal>
   <varray name="basis" >
    <v>       9.57094646       0.00000000       0.00000000 </v>
    <v>      -6.38062803      11.05157872       0.00000000 </v>
    <v>       0.00000000       0.00000000      34.88026251 </v>
   </varray>
   <i name="volume">   3689.42726549 </i>
   <varray name="rec_basis" >
    <v>       0.10448287       0.06032318       0.00000000 </v>
    <v>       0.00000000       0.09048481       0.00000000 </v>
    <v>       0.00000000       0.00000000       0.02866951 </v>
   </varray>
  </crystal>
  <varray name="positions" >
   <v>       0.19253926       0.32031076       0.43898613 </v>
   <v>       0.02635678       0.24846796       0.42838203 </v>
   <v>       0.20622261       0.30067328       0.47889506 </v>
   <v>       0.04851257       0.21634262       0.49292129 </v>
   <v>       0.93736144       0.18423781       0.46172490 </v>
   <v>       0.01788473       0.50731929       0.44872464 </v>
   <v>       0.93487053       0.42715121       0.50958044 </v>
   <v>       0.88084164       0.42612051       0.47123239 </v>
   <v>       0.10544626       0.50870556       0.51074367 </v>
   <v>       0.15665944       0.55831474       0.47312896 </v>
   <v>       0.05151808       0.37015577       0.47145547 </v>
   <v>       0.80763140       0.12372045       0.46336294 </v>
   <v>       0.75788501       0.37149785       0.46081391 </v>
   <v>       0.18286587       0.52815846       0.53566971 </v>
   <v>       0.86004503       0.37315768       0.53335936 </v>
   <v>       0.01732482       0.52514743       0.41825705 </v>
   <v>       0.97605827       0.24521934       0.40015959 </v>
   <v>       0.29043849       0.38108595       0.42019902 </v>
   <v>       0.31666427       0.34376215       0.49570983 </v>
   <v>       0.01768069       0.18434659       0.52228344 </v>
   <v>       0.27979234       0.62172746       0.46443535 </v>
   <v>       0.55555566       0.08333325       0.25000928 </v>
   <v>       0.55555566       0.33333325       0.25000928 </v>
   <v>       0.44444432       0.41666674       0.74999076 </v>
   <v>       0.55555566       0.58333325       0.25000928 </v>
   <v>       0.44444432       0.66666674       0.74999076 </v>
   <v>       0.55555566       0.83333325       0.25000928 </v>
   <v>       0.44444432       0.91666674       0.74999076 </v>
   <v>       0.88888899       0.33333325       0.25000928 </v>
   <v>       0.77777765       0.16666674       0.74999076 </v>
   <v>       0.77777765       0.41666674       0.74999076 </v>
   <v>       0.88888899       0.58333325       0.25000928 </v>
   <v>       0.77777765       0.66666674       0.74999076 </v>
   <v>       0.88888899       0.83333325       0.25000928 </v>
   <v>       0.77777765       0.91666674       0.74999076 </v>
   <v>       0.11111099       0.91666674       0.74999076 </v>
   <v>       0.88888899       0.08333325       0.25000928 </v>
   <v>       0.22222233       0.83333325       0.25000928 </v>
   <v>       0.44444432       0.16666674       0.74999076 </v>
   <v>       0.22222233       0.58333325       0.25000928 </v>
   <v>       0.11111099       0.41666674       0.74999076 </v>
   <v>       0.22222233       0.33333325       0.25000928 </v>
   <v>       0.22222233       0.08333325       0.25000928 </v>
   <v>       0.11111099       0.16666674       0.74999076 </v>
   <v>       0.11111099       0.66666674       0.74999076 </v>
   <v>       0.77777765       0.16666674       0.29487388 </v>
   <v>       0.88888899       0.08333325       0.79485533 </v>
   <v>       0.77777765       0.16666674       0.20514467 </v>
   <v>       0.88888899       0.08333325       0.70512613 </v>
   <v>       0.22222233       0.08333325       0.70512613 </v>
   <v>       0.11111099       0.16666674       0.20514467 </v>
   <v>       0.77777765       0.41666674       0.29487388 </v>
   <v>       0.88888899       0.33333325       0.79485533 </v>
   <v>       0.11111099       0.66666674       0.20514467 </v>
   <v>       0.55555566       0.83333325       0.70512613 </v>
   <v>       0.88888899       0.33333325       0.70512613 </v>
   <v>       0.22222233       0.08333325       0.79485533 </v>
   <v>       0.11111099       0.16666674       0.29487388 </v>
   <v>       0.77777765       0.66666674       0.29487388 </v>
   <v>       0.88888899       0.58333325       0.79485533 </v>
   <v>       0.77777765       0.66666674       0.20514467 </v>
   <v>       0.88888899       0.58333325       0.70512613 </v>
   <v>       0.77777765       0.91666674       0.29487388 </v>
   <v>       0.88888899       0.83333325       0.79485533 </v>
   <v>       0.77777765       0.41666674       0.20514467 </v>
   <v>       0.44444432       0.91666674       0.20514467 </v>
   <v>       0.44444432       0.91666674       0.29487388 </v>
   <v>       0.22222233       0.58333325       0.70512613 </v>
   <v>       0.22222233       0.58333325       0.79485533 </v>
   <v>       0.11111099       0.91666674       0.29487388 </v>
   <v>       0.22222233       0.83333325       0.79485533 </v>
   <v>       0.11111099       0.91666674       0.20514467 </v>
   <v>       0.22222233       0.83333325       0.70512613 </v>
   <v>       0.11111099       0.66666674       0.29487388 </v>
   <v>       0.77777765       0.91666674       0.20514467 </v>
   <v>       0.44444432       0.16666674       0.29487388 </v>
   <v>       0.55555566       0.08333325       0.79485533 </v>
   <v>       0.44444432       0.16666674       0.20514467 </v>
   <v>       0.55555566       0.08333325       0.70512613 </v>
   <v>       0.44444432       0.41666674       0.29487388 </v>
   <v>       0.55555566       0.33333325       0.79485533 </v>
   <v>       0.44444432       0.41666674       0.20514467 </v>
   <v>       0.55555566       0.33333325       0.70512613 </v>
   <v>       0.22222233       0.33333325       0.70512613 </v>
   <v>       0.11111099       0.41666674       0.20514467 </v>
   <v>       0.44444432       0.66666674       0.29487388 </v>
   <v>       0.55555566       0.58333325       0.79485533 </v>
   <v>       0.44444432       0.66666674       0.20514467 </v>
   <v>       0.55555566       0.58333325       0.70512613 </v>
   <v>       0.22222233       0.33333325       0.79485533 </v>
   <v>       0.11111099       0.41666674       0.29487388 </v>
   <v>       0.55555566       0.83333325       0.79485533 </v>
   <v>       0.88888899       0.83333325       0.70512613 </v>
  </varray>
 </structure>
 <calculation>
  <scstep>
   <time name="dav">    5.24    5.26</time>
   <time name="total">    5.64    5.66</time>
   <energy>
    <i name="alphaZ">    562.94535741 </i>
    <i name="ewald">  37844.07784467 </i>
    <i name="hartreedc"> -57260.43595069 </i>
    <i name="XCdc">   -701.07772069 </i>
    <i name="pawpsdc">  18640.80374730 </i>
    <i name="pawaedc"> -16838.49265242 </i>
    <i name="eentropy">     -0.17587596 </i>
    <i name="bandstr">   1250.42063366 </i>
    <i name="atom">  20917.06298232 </i>
    <i name="e_fr_energy">   4415.12836561 </i>
    <i name="e_wo_entrp">   4415.30424157 </i>
    <i name="e_0_energy">   4415.21630359 </i>
   </energy>
  </scstep>
  <scstep>
   <time name="dav">    7.68    7.72</time>
   <time name="total">    7.68    7.72</time>
   <energy>
    <i name="e_fr_energy">     -0.36925771 </i>
    <i name="e_wo_entrp">     -0.30200602 </i>
    <i name="e_0_energy">     -0.33563186 </i>
   </energy>
  </scstep>
  <scstep>
   <time name="dav">    6.07    6.09</time>
   <time name="total">    6.08    6.09</time>
   <energy>
    <i name="e_fr_energy">   -676.30309710 </i>
    <i name="e_wo_entrp">   -676.21336156 </i>
    <i name="e_0_energy">   -676.25822933 </i>
   </energy>
  </scstep>
  <scstep>
   <time name="dav">    6.67    6.69</time>
   <time name="total">    6.68    6.69</time>
   <energy>
    <i name="e_fr_energy">   -709.70132123 </i>
    <i name="e_wo_entrp">   -709.61157576 </i>
    <i name="e_0_energy">   -709.65644849 </i>
   </energy>
  </scstep>
  <scstep>
   <time name="dav">    7.23    7.25</time>
   <time name="total">    7.82    7.84</time>
   <energy>
    <i name="e_fr_energy">   -710.83782399 </i>
    <i name="e_wo_entrp">   -710.74618624 </i>
    <i name="e_0_energy">   -710.79200511 </i>
   </energy>
  </scstep>
  <scstep>
   <time name="dav">    6.34    6.39</time>
   <time name="total">    7.27    7.38</time>
   <energy>
    <i name="e_fr_energy">   -690.56260383 </i>
    <i name="e_wo_entrp">   -690.38072207 </i>
    <i name="e_0_energy">   -690.47166295 </i>
   </energy>
  </scstep>
  <scstep>
   <time name="dav">    6.36    6.38</time>
   <time name="total">    7.34    7.37</time>
   <energy>
    <i name="e_fr_energy">   -711.58778771 </i>
    <i name="e_wo_entrp">   -711.31665315 </i>
    <i name="e_0_energy">   -711.45222043 </i>
   </energy>
  </scstep>
  <scstep>
   <time name="dav">    6.68    6.72</time>
   <time name="total">    7.64    7.70</time>
   <energy>
    <i name="e_fr_energy">   -716.40243470 </i>
    <i name="e_wo_entrp">   -716.08913221 </i>
    <i name="e_0_energy">   -716.24578346 </i>
   </energy>
  </scstep>
  <scstep>
   <time name="dav">    6.31    6.36</time>
   <time name="total">    7.26    7.33</time>
   <energy>
    <i name="e_fr_energy">   -703.47697870 </i>
    <i name="e_wo_entrp">   -702.97255028 </i>
    <i name="e_0_energy">   -703.22476449 </i>
   </energy>
  </scstep>
  <scstep>
   <time name="dav">    6.41    6.46</time>
   <time name="total">    7.38    7.46</time>
   <energy>
    <i name="e_fr_energy">   -686.38675020 </i>
    <i name="e_wo_entrp">   -685.89466068 </i>
    <i name="e_0_energy">   -686.14070544 </i>
   </energy>
  </scstep>
  <scstep>
   <time name="dav">    6.54    6.60</time>
   <time name="total">    7.48    7.56</time>
   <energy>
    <i name="e_fr_energy">   -659.93516341 </i>
    <i name="e_wo_entrp">   -659.84569092 </i>
    <i name="e_0_energy">   -659.89042716 </i>
   </energy>
  </scstep>
  <scstep>
   <time name="dav">    6.82    6.84</time>
   <time name="total">    7.76    7.79</time>
   <energy>
    <i name="e_fr_energy">   -659.90183011 </i>
    <i name="e_wo_entrp">   -659.81206379 </i>
    <i name="e_0_energy">   -659.85694695 </i>
   </energy>
  </scstep>
  <scstep>
   <time name="dav">    6.52    6.54</time>
   <time name="total">    7.46    7.49</time>
   <energy>
    <i name="e_fr_energy">   -659.83444373 </i>
    <i name="e_wo_entrp">   -659.74425214 </i>
    <i name="e_0_energy">   -659.78934794 </i>
   </energy>
  </scstep>
  <scstep>
   <time name="dav">    6.90    6.92</time>
   <time name="total">    7.83    7.86</time>
   <energy>
    <i name="e_fr_energy">   -659.41119325 </i>
    <i name="e_wo_entrp">   -659.28802848 </i>
    <i name="e_0_energy">   -659.34961087 </i>
   </energy>
  </scstep>
  <scstep>
   <time name="dav">    6.58    6.61</time>
   <time name="total">    7.54    7.57</time>
   <energy>
    <i name="e_fr_energy">   -657.17504634 </i>
    <i name="e_wo_entrp">   -657.05985784 </i>
    <i name="e_0_energy">   -657.11745209 </i>
   </energy>
  </scstep>
  <scstep>
   <time name="dav">    6.91    6.93</time>
   <time name="total">    7.87    7.90</time>
   <energy>
    <i name="e_fr_energy">   -660.90571935 </i>
    <i name="e_wo_entrp">   -660.52991541 </i>
    <i name="e_0_energy">   -660.71781738 </i>
   </energy>
  </scstep>
  <scstep>
   <time name="dav">    6.04    6.06</time>
   <time name="total">    7.01    7.03</time>
   <energy>
    <i name="e_fr_energy">   -659.35733184 </i>
    <i name="e_wo_entrp">   -659.12245077 </i>
    <i name="e_0_energy">   -659.23989131 </i>
   </energy>
  </scstep>
  <scstep>
   <time name="dav">    6.82    6.89</time>
   <time name="total">    7.79    7.86</time>
   <energy>
    <i name="e_fr_energy">   -657.76503584 </i>
    <i name="e_wo_entrp">   -657.35113084 </i>
    <i name="e_0_energy">   -657.55808334 </i>
   </energy>
  </scstep>
  <scstep>
   <time name="dav">    6.79    6.85</time>
   <time name="total">    7.75    7.82</time>
   <energy>
    <i name="e_fr_energy">   -658.12076867 </i>
    <i name="e_wo_entrp">   -657.97225232 </i>
    <i name="e_0_energy">   -658.04651049 </i>
   </energy>
  </scstep>
  <scstep>
   <time name="dav">    6.62    6.68</time>
   <time name="total">    7.57    7.63</time>
   <energy>
    <i name="e_fr_energy">   -656.72409403 </i>
    <i name="e_wo_entrp">   -656.63428940 </i>
    <i name="e_0_energy">   -656.67919171 </i>
   </energy>
  </scstep>
  <scstep>
   <time name="dav">    6.30    6.32</time>
   <time name="total">    7.24    7.27</time>
   <energy>
    <i name="e_fr_energy">   -656.61222520 </i>
    <i name="e_wo_entrp">   -656.52252072 </i>
    <i name="e_0_energy">   -656.56737296 </i>
   </energy>
  </scstep>
  <scstep>
   <time name="dav">    6.79    6.84</time>
   <time name="total">    7.75    7.81</time>
   <energy>
    <i name="e_fr_energy">   -656.56639934 </i>
    <i name="e_wo_entrp">   -656.47646506 </i>
    <i name="e_0_energy">   -656.52143220 </i>
   </energy>
  </scstep>
  <scstep>
   <time name="dav">    6.35    6.37</time>
   <time name="total">    7.31    7.34</time>
   <energy>
    <i name="e_fr_energy">   -656.52981742 </i>
    <i name="e_wo_entrp">   -656.44031254 </i>
    <i name="e_0_energy">   -656.48506498 </i>
   </energy>
  </scstep>
  <scstep>
   <time name="dav">    6.68    6.69</time>
   <time name="total">    7.64    7.66</time>
   <energy>
    <i name="e_fr_energy">   -656.51213121 </i>
    <i name="e_wo_entrp">   -656.42231842 </i>
    <i name="e_0_energy">   -656.46722482 </i>
   </energy>
  </scstep>
  <scstep>
   <time name="dav">    6.51    6.53</time>
   <time name="total">    7.47    7.50</time>
   <energy>
    <i name="e_fr_energy">   -656.52685963 </i>
    <i name="e_wo_entrp">   -656.41019167 </i>
    <i name="e_0_energy">   -656.46852565 </i>
   </energy>
  </scstep>
  <scstep>
   <time name="dav">    6.43    6.47</time>
   <time name="total">    7.41    7.45</time>
   <energy>
    <i name="e_fr_energy">   -656.52793805 </i>
    <i name="e_wo_entrp">   -656.41051726 </i>
    <i name="e_0_energy">   -656.46922765 </i>
   </energy>
  </scstep>
  <scstep>
   <time name="dav">    6.96    7.02</time>
   <time name="total">    7.93    8.00</time>
   <energy>
    <i name="e_fr_energy">   -656.55360697 </i>
    <i name="e_wo_entrp">   -656.43777431 </i>
    <i name="e_0_energy">   -656.49569064 </i>
   </energy>
  </scstep>
  <scstep>
   <time name="dav">    6.66    6.69</time>
   <time name="total">    7.63    7.66</time>
   <energy>
    <i name="e_fr_energy">   -656.65624508 </i>
    <i name="e_wo_entrp">   -656.54509553 </i>
    <i name="e_0_energy">   -656.60067031 </i>
   </energy>
  </scstep>
  <scstep>
   <time name="dav">    6.33    6.36</time>
   <time name="total">    7.30    7.34</time>
   <energy>
    <i name="e_fr_energy">   -656.65410101 </i>
    <i name="e_wo_entrp">   -656.53677321 </i>
    <i name="e_0_energy">   -656.59543711 </i>
   </energy>
  </scstep>
  <scstep>
   <time name="dav">    6.45    6.47</time>
   <time name="total">    7.42    7.44</time>
   <energy>
    <i name="e_fr_energy">   -656.67310222 </i>
    <i name="e_wo_entrp">   -656.55652165 </i>
    <i name="e_0_energy">   -656.61481193 </i>
   </energy>
  </scstep>
  <scstep>
   <time name="dav">    6.67    6.69</time>
   <time name="total">    7.64    7.67</time>
   <energy>
    <i name="e_fr_energy">   -656.68857702 </i>
    <i name="e_wo_entrp">   -656.58316209 </i>
    <i name="e_0_energy">   -656.63586955 </i>
   </energy>
  </scstep>
  <scstep>
   <time name="dav">    6.59    6.61</time>
   <time name="total">    7.56    7.59</time>
   <energy>
    <i name="e_fr_energy">   -656.68749045 </i>
    <i name="e_wo_entrp">   -656.57700585 </i>
    <i name="e_0_energy">   -656.63224815 </i>
   </energy>
  </scstep>
  <scstep>
   <time name="dav">    5.88    5.90</time>
   <time name="total">    6.85    6.88</time>
   <energy>
    <i name="e_fr_energy">   -656.68910193 </i>
    <i name="e_wo_entrp">   -656.57613083 </i>
    <i name="e_0_energy">   -656.63261638 </i>
   </energy>
  </scstep>
  <scstep>
   <time name="dav">    5.95    6.00</time>
   <time name="total">    6.92    6.98</time>
   <energy>
    <i name="e_fr_energy">   -656.68689933 </i>
    <i name="e_wo_entrp">   -656.57119984 </i>
    <i name="e_0_energy">   -656.62904958 </i>
   </energy>
  </scstep>
  <scstep>
   <time name="dav">    5.69    5.71</time>
   <time name="total">    6.67    6.69</time>
   <energy>
    <i name="e_fr_energy">   -656.67116569 </i>
    <i name="e_wo_entrp">   -656.55552355 </i>
    <i name="e_0_energy">   -656.61334462 </i>
   </energy>
  </scstep>
  <scstep>
   <time name="dav">    5.50    5.52</time>
   <time name="total">    6.48    6.50</time>
   <energy>
    <i name="e_fr_energy">   -656.65652077 </i>
    <i name="e_wo_entrp">   -656.54172968 </i>
    <i name="e_0_energy">   -656.59912523 </i>
   </energy>
  </scstep>
  <scstep>
   <time name="dav">    5.50    5.52</time>
   <time name="total">    6.47    6.49</time>
   <energy>
    <i name="e_fr_energy">   -656.64290502 </i>
    <i name="e_wo_entrp">   -656.52811658 </i>
    <i name="e_0_energy">   -656.58551080 </i>
   </energy>
  </scstep>
  <scstep>
   <time name="dav">    4.37    4.41</time>
   <time name="total">    5.34    5.39</time>
   <energy>
    <i name="e_fr_energy">   -656.63702098 </i>
    <i name="e_wo_entrp">   -656.52258032 </i>
    <i name="e_0_energy">   -656.57980065 </i>
   </energy>
  </scstep>
  <scstep>
   <time name="dav">    4.67    4.68</time>
   <time name="total">    5.64    5.66</time>
   <energy>
    <i name="e_fr_energy">   -656.62957014 </i>
    <i name="e_wo_entrp">   -656.51487051 </i>
    <i name="e_0_energy">   -656.57222033 </i>
   </energy>
  </scstep>
  <scstep>
   <time name="dav">    6.08    6.14</time>
   <time name="total">    7.05    7.12</time>
   <energy>
    <i name="e_fr_energy">   -656.59991232 </i>
    <i name="e_wo_entrp">   -656.48688666 </i>
    <i name="e_0_energy">   -656.54339949 </i>
   </energy>
  </scstep>
  <scstep>
   <time name="dav">    5.95    6.00</time>
   <time name="total">    6.92    6.98</time>
   <energy>
    <i name="e_fr_energy">   -656.57013648 </i>
    <i name="e_wo_entrp">   -656.45751980 </i>
    <i name="e_0_energy">   -656.51382814 </i>
   </energy>
  </scstep>
  <scstep>
   <time name="dav">    5.76    5.83</time>
   <time name="total">    6.73    6.81</time>
   <energy>
    <i name="e_fr_energy">   -656.54910339 </i>
    <i name="e_wo_entrp">   -656.43606272 </i>
    <i name="e_0_energy">   -656.49258305 </i>
   </energy>
  </scstep>
  <scstep>
   <time name="dav">    6.02    6.05</time>
   <time name="total">    7.00    7.05</time>
   <energy>
    <i name="e_fr_energy">   -656.48721726 </i>
    <i name="e_wo_entrp">   -656.37791083 </i>
    <i name="e_0_energy">   -656.43256404 </i>
   </energy>
  </scstep>
  <scstep>
   <time name="dav">    6.77    6.95</time>
   <time name="total">    7.76    7.97</time>
   <energy>
    <i name="e_fr_energy">   -656.43456414 </i>
    <i name="e_wo_entrp">   -656.32407328 </i>
    <i name="e_0_energy">   -656.37931871 </i>
   </energy>
  </scstep>
  <scstep>
   <time name="dav">    6.20    6.21</time>
   <time name="total">    7.20    7.32</time>
   <energy>
    <i name="e_fr_energy">   -656.41540098 </i>
    <i name="e_wo_entrp">   -656.30106041 </i>
    <i name="e_0_energy">   -656.35823070 </i>
   </energy>
  </scstep>
  <scstep>
   <time name="dav">    6.37    6.39</time>
   <time name="total">    7.38    7.41</time>
   <energy>
    <i name="e_fr_energy">   -656.40072810 </i>
    <i name="e_wo_entrp">   -656.27680266 </i>
    <i name="e_0_energy">   -656.33876538 </i>
   </energy>
  </scstep>
  <scstep>
   <time name="dav">    5.50    5.52</time>
   <time name="total">    6.51    6.53</time>
   <energy>
    <i name="e_fr_energy">   -656.40085144 </i>
    <i name="e_wo_entrp">   -656.27748761 </i>
    <i name="e_0_energy">   -656.33916952 </i>
   </energy>
  </scstep>
  <scstep>
   <time name="dav">    4.02    4.05</time>
   <time name="total">    4.40    4.44</time>
   <energy>
    <i name="alphaZ">    562.94535741 </i>
    <i name="ewald">  37844.07784467 </i>
    <i name="hartreedc"> -57768.53000189 </i>
    <i name="XCdc">   -664.78508225 </i>
    <i name="pawpsdc">  43252.15242031 </i>
    <i name="pawaedc"> -41492.39232813 </i>
    <i name="eentropy">     -0.12366973 </i>
    <i name="bandstr">  -3306.80832356 </i>
    <i name="atom">  20917.06298232 </i>
    <i name="e_fr_energy">   -656.40080085 </i>
    <i name="e_wo_entrp">   -656.27713111 </i>
    <i name="e_0_energy">   -656.33896598 </i>
   </energy>
  </scstep>
  <structure>
   <crystal>
    <varray name="basis" >
     <v>       9.57094646       0.00000000       0.00000000 </v>
     <v>      -6.38062803      11.05157872       0.00000000 </v>
     <v>       0.00000000       0.00000000      34.88026251 </v>
    </varray>
    <i name="volume">   3689.42726549 </i>
    <varray name="rec_basis" >
     <v>       0.10448287       0.06032318       0.00000000 </v>
     <v>       0.00000000       0.09048481       0.00000000 </v>
     <v>       0.00000000       0.00000000       0.02866951 </v>
    </varray>
   </crystal>
   <varray name="positions" >
    <v>       0.19253926       0.32031076       0.43898613 </v>
    <v>       0.02635678       0.24846796       0.42838203 </v>
    <v>       0.20622261       0.30067328       0.47889506 </v>
    <v>       0.04851257       0.21634262       0.49292129 </v>
    <v>       0.93736144       0.18423781       0.46172490 </v>
    <v>       0.01788473       0.50731929       0.44872464 </v>
    <v>       0.93487053       0.42715121       0.50958044 </v>
    <v>       0.88084164       0.42612051       0.47123239 </v>
    <v>       0.10544626       0.50870556       0.51074367 </v>
    <v>       0.15665944       0.55831474       0.47312896 </v>
    <v>       0.05151808       0.37015577       0.47145547 </v>
    <v>       0.80763140       0.12372045       0.46336294 </v>
    <v>       0.75788501       0.37149785       0.46081391 </v>
    <v>       0.18286587       0.52815846       0.53566971 </v>
    <v>       0.86004503       0.37315768       0.53335936 </v>
    <v>       0.01732482       0.52514743       0.41825705 </v>
    <v>       0.97605827       0.24521934       0.40015959 </v>
    <v>       0.29043849       0.38108595       0.42019902 </v>
    <v>       0.31666427       0.34376215       0.49570983 </v>
    <v>       0.01768069       0.18434659       0.52228344 </v>
    <v>       0.27979234       0.62172746       0.46443535 </v>
    <v>       0.55555566       0.08333325       0.25000928 </v>
    <v>       0.55555566       0.33333325       0.25000928 </v>
    <v>       0.44444432       0.41666674       0.74999076 </v>
    <v>       0.55555566       0.58333325       0.25000928 </v>
    <v>       0.44444432       0.66666674       0.74999076 </v>
    <v>       0.55555566       0.83333325       0.25000928 </v>
    <v>       0.44444432       0.91666674       0.74999076 </v>
    <v>       0.88888899       0.33333325       0.25000928 </v>
    <v>       0.77777765       0.16666674       0.74999076 </v>
    <v>       0.77777765       0.41666674       0.74999076 </v>
    <v>       0.88888899       0.58333325       0.25000928 </v>
    <v>       0.77777765       0.66666674       0.74999076 </v>
    <v>       0.88888899       0.83333325       0.25000928 </v>
    <v>       0.77777765       0.91666674       0.74999076 </v>
    <v>       0.11111099       0.91666674       0.74999076 </v>
    <v>       0.88888899       0.08333325       0.25000928 </v>
    <v>       0.22222233       0.83333325       0.25000928 </v>
    <v>       0.44444432       0.16666674       0.74999076 </v>
    <v>       0.22222233       0.58333325       0.25000928 </v>
    <v>       0.11111099       0.41666674       0.74999076 </v>
    <v>       0.22222233       0.33333325       0.25000928 </v>
    <v>       0.22222233       0.08333325       0.25000928 </v>
    <v>       0.11111099       0.16666674       0.74999076 </v>
    <v>       0.11111099       0.66666674       0.74999076 </v>
    <v>       0.77777765       0.16666674       0.29487388 </v>
    <v>       0.88888899       0.08333325       0.79485533 </v>
    <v>       0.77777765       0.16666674       0.20514467 </v>
    <v>       0.88888899       0.08333325       0.70512613 </v>
    <v>       0.22222233       0.08333325       0.70512613 </v>
    <v>       0.11111099       0.16666674       0.20514467 </v>
    <v>       0.77777765       0.41666674       0.29487388 </v>
    <v>       0.88888899       0.33333325       0.79485533 </v>
    <v>       0.11111099       0.66666674       0.20514467 </v>
    <v>       0.55555566       0.83333325       0.70512613 </v>
    <v>       0.88888899       0.33333325       0.70512613 </v>
    <v>       0.22222233       0.08333325       0.79485533 </v>
    <v>       0.11111099       0.16666674       0.29487388 </v>
    <v>       0.77777765       0.66666674       0.29487388 </v>
    <v>       0.88888899       0.58333325       0.79485533 </v>
    <v>       0.77777765       0.66666674       0.20514467 </v>
    <v>       0.88888899       0.58333325       0.70512613 </v>
    <v>       0.77777765       0.91666674       0.29487388 </v>
    <v>       0.88888899       0.83333325       0.79485533 </v>
    <v>       0.77777765       0.41666674       0.20514467 </v>
    <v>       0.44444432       0.91666674       0.20514467 </v>
    <v>       0.44444432       0.91666674       0.29487388 </v>
    <v>       0.22222233       0.58333325       0.70512613 </v>
    <v>       0.22222233       0.58333325       0.79485533 </v>
    <v>       0.11111099       0.91666674       0.29487388 </v>
    <v>       0.22222233       0.83333325       0.79485533 </v>
    <v>       0.11111099       0.91666674       0.20514467 </v>
    <v>       0.22222233       0.83333325       0.70512613 </v>
    <v>       0.11111099       0.66666674       0.29487388 </v>
    <v>       0.77777765       0.91666674       0.20514467 </v>
    <v>       0.44444432       0.16666674       0.29487388 </v>
    <v>       0.55555566       0.08333325       0.79485533 </v>
    <v>       0.44444432       0.16666674       0.20514467 </v>
    <v>       0.55555566       0.08333325       0.70512613 </v>
    <v>       0.44444432       0.41666674       0.29487388 </v>
    <v>       0.55555566       0.33333325       0.79485533 </v>
    <v>       0.44444432       0.41666674       0.20514467 </v>
    <v>       0.55555566       0.33333325       0.70512613 </v>
    <v>       0.22222233       0.33333325       0.70512613 </v>
    <v>       0.11111099       0.41666674       0.20514467 </v>
    <v>       0.44444432       0.66666674       0.29487388 </v>
    <v>       0.55555566       0.58333325       0.79485533 </v>
    <v>       0.44444432       0.66666674       0.20514467 </v>
    <v>       0.55555566       0.58333325       0.70512613 </v>
    <v>       0.22222233       0.33333325       0.79485533 </v>
    <v>       0.11111099       0.41666674       0.29487388 </v>
    <v>       0.55555566       0.83333325       0.79485533 </v>
    <v>       0.88888899       0.83333325       0.70512613 </v>
   </varray>
  </structure>
  <varray name="forces" >
   <v>      -0.08699026       0.06543790       0.06808963 </v>
   <v>      -0.08932238       0.08498911       0.03867474 </v>
   <v>      -0.07855046       0.06923703      -0.02404900 </v>
   <v>      -0.09158831       0.11488636       0.00855122 </v>
   <v>      -0.02425317       0.09832538      -0.00967789 </v>
   <v>       0.08277983      -0.11583014      -0.02440093 </v>
   <v>       0.08818042      -0.08052334      -0.07744909 </v>
   <v>       0.08509737      -0.04097756      -0.00282164 </v>
   <v>       0.06664539      -0.06901473      -0.07132878 </v>
   <v>       0.03137520      -0.11155759       0.01573589 </v>
   <v>      -0.00673318      -0.01080031       0.01900065 </v>
   <v>       0.00445917       0.01349210      -0.02287736 </v>
   <v>       0.01549762      -0.00671928      -0.00825682 </v>
   <v>       0.00361506      -0.02150821      -0.00602915 </v>
   <v>       0.01768031       0.00335655       0.01277747 </v>
   <v>       0.00741367      -0.01873973      -0.01101522 </v>
   <v>       0.00651652       0.00952457      -0.01449962 </v>
   <v>      -0.01415870       0.00299630      -0.01204442 </v>
   <v>      -0.01935697       0.01119858       0.01500683 </v>
   <v>       0.00557821       0.02126397       0.01153565 </v>
   <v>       0.00365420      -0.01463844      -0.00557567 </v>
   <v>       0.01812094       0.17380984       0.02067656 </v>
   <v>       0.02313039       0.17461845       0.02032475 </v>
   <v>      -0.02088092      -0.17590573      -0.01152044 </v>
   <v>       0.02401378       0.17850489       0.01573282 </v>
   <v>      -0.02051768      -0.17590629      -0.01116656 </v>
   <v>       0.02253585       0.17845363       0.01563228 </v>
   <v>      -0.02171245      -0.17677187      -0.01050217 </v>
   <v>       0.02517519       0.17935792       0.01718995 </v>
   <v>      -0.01581346      -0.17893100      -0.01026221 </v>
   <v>      -0.01615393      -0.17737860      -0.01101415 </v>
   <v>       0.02623940       0.17871080       0.01604048 </v>
   <v>      -0.01524748      -0.17772356      -0.01181798 </v>
   <v>       0.02879222       0.17876871       0.01635400 </v>
   <v>      -0.01497611      -0.17885805      -0.01076102 </v>
   <v>      -0.02311884      -0.17721760      -0.01115186 </v>
   <v>       0.03026550       0.17494059       0.01675192 </v>
   <v>       0.01822086       0.18133482       0.01799803 </v>
   <v>      -0.02145127      -0.17673851      -0.01070589 </v>
   <v>       0.01887372       0.18381692       0.01695951 </v>
   <v>      -0.02280566      -0.17659034      -0.01101747 </v>
   <v>       0.02166683       0.17620449       0.01726331 </v>
   <v>       0.02114792       0.17827746       0.02136731 </v>
   <v>      -0.02268940      -0.17723940      -0.01080672 </v>
   <v>      -0.02392215      -0.17605516      -0.01144322 </v>
   <v>      -0.00910622      -0.08901602      -0.20608079 </v>
   <v>       0.01001506       0.08829922      -0.19943362 </v>
   <v>      -0.01311145      -0.08870968       0.20637352 </v>
   <v>       0.01012035       0.08892444       0.20729846 </v>
   <v>       0.01107175       0.08897687       0.20784703 </v>
   <v>      -0.01188722      -0.08825423       0.20672044 </v>
   <v>      -0.01138260      -0.08892287      -0.21187968 </v>
   <v>       0.01024759       0.08819366      -0.19969824 </v>
   <v>      -0.01127062      -0.08908708       0.20748393 </v>
   <v>       0.01021384       0.08931870       0.20743198 </v>
   <v>       0.01012643       0.08944771       0.20677635 </v>
   <v>       0.01095891       0.08844780      -0.19944698 </v>
   <v>      -0.01413257      -0.08921659      -0.20868185 </v>
   <v>      -0.01237152      -0.08963335      -0.21656240 </v>
   <v>       0.01018071       0.08830935      -0.19934774 </v>
   <v>      -0.01249886      -0.08941702       0.20632520 </v>
   <v>       0.01017988       0.08974977       0.20757218 </v>
   <v>      -0.01272274      -0.08961810      -0.21407108 </v>
   <v>       0.01008642       0.08829145      -0.19926833 </v>
   <v>      -0.01231573      -0.08799720       0.20582361 </v>
   <v>      -0.01256804      -0.08850155       0.20512287 </v>
   <v>      -0.01285656      -0.09016095      -0.21594042 </v>
   <v>       0.01090426       0.08969354       0.20679723 </v>
   <v>       0.01097505       0.08835062      -0.19949623 </v>
   <v>      -0.01166338      -0.08938341      -0.21698615 </v>
   <v>       0.01095667       0.08843637      -0.19922786 </v>
   <v>      -0.01139874      -0.08812875       0.20566517 </v>
   <v>       0.01089345       0.08930963       0.20766858 </v>
   <v>      -0.01194290      -0.09097122      -0.21272587 </v>
   <v>      -0.01318554      -0.08862843       0.20477152 </v>
   <v>      -0.01310100      -0.09289590      -0.21728585 </v>
   <v>       0.01020318       0.08850188      -0.19944074 </v>
   <v>      -0.01220891      -0.09005741       0.20537454 </v>
   <v>       0.01012745       0.08909011       0.20766078 </v>
   <v>      -0.01472644      -0.09125274      -0.21050809 </v>
   <v>       0.01012872       0.08835979      -0.19952127 </v>
   <v>      -0.01332807      -0.08874782       0.20588634 </v>
   <v>       0.01026436       0.08948223       0.20781574 </v>
   <v>       0.01096194       0.08959650       0.20734732 </v>
   <v>      -0.01165684      -0.08797159       0.20764611 </v>
   <v>      -0.01265937      -0.09019501      -0.21545955 </v>
   <v>       0.01016750       0.08840401      -0.19926923 </v>
   <v>      -0.01282360      -0.08979412       0.20666999 </v>
   <v>       0.01029733       0.08981057       0.20780550 </v>
   <v>       0.01088716       0.08852414      -0.19953223 </v>
   <v>      -0.01188071      -0.09249472      -0.20419962 </v>
   <v>       0.01019006       0.08842270      -0.19913384 </v>
   <v>       0.01020875       0.08923381       0.20784556 </v>
  </varray>
  <varray name="stress" >
   <v>       1.66049210       0.61241734       0.17252094 </v>
   <v>       0.61241730      -5.97751327      -0.16160809 </v>
   <v>       0.17252087      -0.16160809      -8.24621734 </v>
  </varray>
  <energy>
   <i name="e_fr_energy">   -671.32728178 </i>
   <i name="e_wo_entrp">   -671.26544691 </i>
   <i name="e_0_energy">     -0.12366973 </i>
  </energy>
  <time name="totalsc">  352.27  354.54</time>
 </calculation>
 <calculation>
  <scstep>
   <time name="dav">    5.16    5.20</time>
   <time name="total">    6.15    6.20</time>
   <energy>
    <i name="alphaZ">    562.94535741 </i>
    <i name="ewald">  38091.54560798 </i>
    <i name="hartreedc"> -58005.06644119 </i>
    <i name="XCdc">   -663.60151275 </i>
    <i name="pawpsdc">  43252.20684537 </i>
    <i name="pawaedc"> -41492.44946907 </i>
    <i name="eentropy">     -0.12900770 </i>
    <i name="bandstr">  -3318.93281349 </i>
    <i name="atom">  20917.06298232 </i>
    <i name="e_fr_energy">   -656.41845112 </i>
    <i name="e_wo_entrp">   -656.28944342 </i>
    <i name="e_0_energy">   -656.35394727 </i>
   </energy>
  </scstep>
  <scstep>
   <time name="dav">    6.14    6.18</time>
   <time name="total">    7.06    7.12</time>
   <energy>
    <i name="e_fr_energy">   -656.79285977 </i>
    <i name="e_wo_entrp">   -656.70326239 </i>
    <i name="e_0_energy">   -656.74806108 </i>
   </energy>
  </scstep>
  <scstep>
   <time name="dav">    6.67    6.73</time>
   <time name="total">    7.65    7.83</time>
   <energy>
    <i name="e_fr_energy">   -656.53199825 </i>
    <i name="e_wo_entrp">   -656.41193246 </i>
    <i name="e_0_energy">   -656.47196535 </i>
   </energy>
  </scstep>
  <scstep>
   <time name="dav">    6.02    6.04</time>
   <time name="total">    6.98    7.00</time>
   <energy>
    <i name="e_fr_energy">   -656.53918918 </i>
    <i name="e_wo_entrp">   -656.44991688 </i>
    <i name="e_0_energy">   -656.49455303 </i>
   </energy>
  </scstep>
  <scstep>
   <time name="dav">    6.90    6.95</time>
   <time name="total">    7.87    7.93</time>
   <energy>
    <i name="e_fr_energy">   -656.46011293 </i>
    <i name="e_wo_entrp">   -656.34254512 </i>
    <i name="e_0_energy">   -656.40132903 </i>
   </energy>
  </scstep>
  <scstep>
   <time name="dav">    6.32    6.34</time>
   <time name="total">    7.29    7.32</time>
   <energy>
    <i name="e_fr_energy">   -656.49801649 </i>
    <i name="e_wo_entrp">   -656.38828101 </i>
    <i name="e_0_energy">   -656.44314875 </i>
   </energy>
  </scstep>
  <scstep>
   <time name="dav">    5.92    5.96</time>
   <time name="total">    6.89    6.94</time>
   <energy>
    <i name="e_fr_energy">   -656.49277110 </i>
    <i name="e_wo_entrp">   -656.38460359 </i>
    <i name="e_0_energy">   -656.43868735 </i>
   </energy>
  </scstep>
  <scstep>
   <time name="dav">    5.91    5.95</time>
   <time name="total">    6.88    6.93</time>
   <energy>
    <i name="e_fr_energy">   -656.46786045 </i>
    <i name="e_wo_entrp">   -656.34461026 </i>
    <i name="e_0_energy">   -656.40623536 </i>
   </energy>
  </scstep>
  <scstep>
   <time name="dav">    6.25    6.26</time>
   <time name="total">    7.24    7.27</time>
   <energy>
    <i name="e_fr_energy">   -656.45302408 </i>
    <i name="e_wo_entrp">   -656.32678169 </i>
    <i name="e_0_energy">   -656.38990288 </i>
   </energy>
  </scstep>
  <scstep>
   <time name="dav">    6.02    6.03</time>
   <time name="total">    6.99    7.01</time>
   <energy>
    <i name="e_fr_energy">   -656.45253875 </i>
    <i name="e_wo_entrp">   -656.32958106 </i>
    <i name="e_0_energy">   -656.39105991 </i>
   </energy>
  </scstep>
  <scstep>
   <time name="dav">    5.88    5.93</time>
   <time name="total">    6.85    6.91</time>
   <energy>
    <i name="e_fr_energy">   -656.45280993 </i>
    <i name="e_wo_entrp">   -656.33087045 </i>
    <i name="e_0_energy">   -656.39184019 </i>
   </energy>
  </scstep>
  <scstep>
   <time name="dav">    3.87    3.88</time>
   <time name="total">    4.25    4.26</time>
   <energy>
    <i name="alphaZ">    562.94535741 </i>
    <i name="ewald">  38091.54560798 </i>
    <i name="hartreedc"> -58008.63595472 </i>
    <i name="XCdc">   -663.61267424 </i>
    <i name="pawpsdc">  43631.09283084 </i>
    <i name="pawaedc"> -41871.98035756 </i>
    <i name="eentropy">     -0.12187077 </i>
    <i name="bandstr">  -3314.74875896 </i>
    <i name="atom">  20917.06298232 </i>
    <i name="e_fr_energy">   -656.45283770 </i>
    <i name="e_wo_entrp">   -656.33096693 </i>
    <i name="e_0_energy">   -656.39190232 </i>
   </energy>
  </scstep>
  <structure>
   <crystal>
    <varray name="basis" >
     <v>       9.57094646       0.00000000       0.00000000 </v>
     <v>      -6.38062803      11.05157872       0.00000000 </v>
     <v>       0.00000000       0.00000000      34.88026251 </v>
    </varray>
    <i name="volume">   3689.42726549 </i>
    <varray name="rec_basis" >
     <v>       0.10448287       0.06032318       0.00000000 </v>
     <v>       0.00000000       0.09048481       0.00000000 </v>
     <v>       0.00000000       0.00000000       0.02866951 </v>
    </varray>
   </crystal>
   <varray name="positions" >
    <v>       0.19229122       0.32059641       0.43908031 </v>
    <v>       0.02615388       0.24883896       0.42843552 </v>
    <v>       0.20602816       0.30097552       0.47886180 </v>
    <v>       0.04838525       0.21684412       0.49293311 </v>
    <v>       0.93752534       0.18466702       0.46171151 </v>
    <v>       0.01796490       0.50681367       0.44869089 </v>
    <v>       0.93508067       0.42679970       0.50947332 </v>
    <v>       0.88115133       0.42594163       0.47122849 </v>
    <v>       0.10558134       0.50840429       0.51064502 </v>
    <v>       0.15649294       0.55782777       0.47315072 </v>
    <v>       0.05145271       0.37010862       0.47148175 </v>
    <v>       0.80769314       0.12377935       0.46333129 </v>
    <v>       0.75794357       0.37146852       0.46080249 </v>
    <v>       0.18282150       0.52806458       0.53566137 </v>
    <v>       0.86014392       0.37317233       0.53337703 </v>
    <v>       0.01730765       0.52506563       0.41824182 </v>
    <v>       0.97611883       0.24526092       0.40013953 </v>
    <v>       0.29037585       0.38109903       0.42018236 </v>
    <v>       0.31659929       0.34381103       0.49573059 </v>
    <v>       0.01777068       0.18443941       0.52229939 </v>
    <v>       0.27976816       0.62166356       0.46442764 </v>
    <v>       0.55615281       0.08409197       0.25003788 </v>
    <v>       0.55618041       0.33409550       0.25003739 </v>
    <v>       0.44382716       0.41589887       0.74997482 </v>
    <v>       0.55619618       0.58411246       0.25003104 </v>
    <v>       0.44382899       0.66589887       0.74997531 </v>
    <v>       0.55618858       0.83411224       0.25003090 </v>
    <v>       0.44382044       0.91589509       0.74997623 </v>
    <v>       0.88953785       0.33411619       0.25003306 </v>
    <v>       0.77717723       0.16588567       0.74997656 </v>
    <v>       0.77718003       0.41589244       0.74997552 </v>
    <v>       0.88954133       0.58411336       0.25003147 </v>
    <v>       0.77718360       0.66589094       0.74997441 </v>
    <v>       0.88955436       0.83411361       0.25003190 </v>
    <v>       0.77718166       0.91588599       0.74997587 </v>
    <v>       0.11047872       0.91589315       0.74997533 </v>
    <v>       0.88955065       0.08409690       0.25003245 </v>
    <v>       0.22284188       0.83412481       0.25003418 </v>
    <v>       0.44382186       0.16589524       0.74997595 </v>
    <v>       0.22285239       0.58413565       0.25003274 </v>
    <v>       0.11048213       0.41589589       0.74997552 </v>
    <v>       0.22284432       0.33410242       0.25003316 </v>
    <v>       0.22284774       0.08411147       0.25003884 </v>
    <v>       0.11048083       0.16589305       0.74997581 </v>
    <v>       0.11047806       0.66589822       0.74997493 </v>
    <v>       0.77747270       0.16627817       0.29458885 </v>
    <v>       0.88919644       0.08371869       0.79457949 </v>
    <v>       0.77745341       0.16627950       0.20543011 </v>
    <v>       0.88919879       0.08372142       0.70541285 </v>
    <v>       0.22253707       0.08372165       0.70541360 </v>
    <v>       0.11079424       0.16628149       0.20543059 </v>
    <v>       0.77746150       0.41627857       0.29458083 </v>
    <v>       0.88919730       0.33371823       0.79457913 </v>
    <v>       0.11079492       0.66627786       0.20543164 </v>
    <v>       0.55586707       0.83372314       0.70541303 </v>
    <v>       0.88920034       0.33372371       0.70541212 </v>
    <v>       0.22253496       0.08371934       0.79457947 </v>
    <v>       0.11078012       0.16627729       0.29458526 </v>
    <v>       0.77745445       0.66627547       0.29457436 </v>
    <v>       0.88919730       0.58371874       0.79457961 </v>
    <v>       0.77745443       0.66627642       0.20543004 </v>
    <v>       0.88920149       0.58372503       0.70541322 </v>
    <v>       0.77745272       0.91627554       0.29457780 </v>
    <v>       0.88919677       0.83371866       0.79457972 </v>
    <v>       0.77745949       0.41628261       0.20542934 </v>
    <v>       0.44412342       0.91628041       0.20542838 </v>
    <v>       0.44411713       0.91627317       0.29457522 </v>
    <v>       0.22253831       0.58372478       0.70541215 </v>
    <v>       0.22253476       0.58371892       0.79457941 </v>
    <v>       0.11079208       0.91627656       0.29457377 </v>
    <v>       0.22253492       0.83371929       0.79457978 </v>
    <v>       0.11079706       0.91628204       0.20542913 </v>
    <v>       0.22253714       0.83372310       0.70541336 </v>
    <v>       0.11078605       0.66626963       0.29457966 </v>
    <v>       0.77745327       0.91627986       0.20542789 </v>
    <v>       0.44410794       0.16626123       0.29457335 </v>
    <v>       0.55586464       0.08371958       0.79457948 </v>
    <v>       0.44412070       0.16627362       0.20542872 </v>
    <v>       0.55586597       0.08372215       0.70541335 </v>
    <v>       0.44410453       0.41626840       0.29458273 </v>
    <v>       0.55586385       0.33371896       0.79457937 </v>
    <v>       0.44411887       0.41627934       0.20542943 </v>
    <v>       0.55586780       0.33372386       0.70541356 </v>
    <v>       0.22253832       0.33372436       0.70541291 </v>
    <v>       0.11079622       0.41628273       0.20543187 </v>
    <v>       0.44411803       0.66627302       0.29457588 </v>
    <v>       0.55586418       0.58371915       0.79457972 </v>
    <v>       0.44411837       0.66627477       0.20543052 </v>
    <v>       0.55586893       0.58372529       0.70541355 </v>
    <v>       0.22253482       0.33371968       0.79457936 </v>
    <v>       0.11078193       0.41626298       0.29459145 </v>
    <v>       0.55586435       0.83371923       0.79457991 </v>
    <v>       0.88920013       0.83372277       0.70541360 </v>
   </varray>
  </structure>
  <varray name="forces" >
   <v>      -0.00114458       0.14201201      -0.11808163 </v>
   <v>      -0.05628924       0.07469899      -0.04826395 </v>
   <v>       0.04893071       0.07261701       0.13654955 </v>
   <v>      -0.05463232       0.06724792       0.07151119 </v>
   <v>      -0.14289300      -0.05439030       0.02951549 </v>
   <v>       0.05623392      -0.06412219      -0.06563859 </v>
   <v>       0.03126718      -0.12280224       0.10173066 </v>
   <v>      -0.09148991      -0.11142605      -0.09293049 </v>
   <v>       0.08365996      -0.05775983       0.11064280 </v>
   <v>       0.14913115       0.07370797      -0.12028212 </v>
   <v>      -0.00235729      -0.00537058       0.00013946 </v>
   <v>       0.03865852       0.04840780      -0.02349832 </v>
   <v>       0.06344465       0.02122926       0.01494965 </v>
   <v>      -0.01810905      -0.03215088      -0.05275264 </v>
   <v>       0.04931180       0.03848815      -0.05881434 </v>
   <v>       0.01998541      -0.03283012       0.01114399 </v>
   <v>       0.00380991       0.01745922       0.00890935 </v>
   <v>      -0.05696055      -0.03398090       0.04184330 </v>
   <v>      -0.06922523      -0.01031391      -0.02886926 </v>
   <v>      -0.00288993       0.04453731      -0.03783152 </v>
   <v>      -0.04669998      -0.07299412       0.01983312 </v>
   <v>      -0.01160883      -0.08067860      -0.00955522 </v>
   <v>      -0.01454990      -0.08286190      -0.00982086 </v>
   <v>       0.01305636       0.08176211       0.00906074 </v>
   <v>      -0.01517736      -0.08417461      -0.00917742 </v>
   <v>       0.01285427       0.08159591       0.00904139 </v>
   <v>      -0.01401503      -0.08184995      -0.01088996 </v>
   <v>       0.01348016       0.08146699       0.00903228 </v>
   <v>      -0.01708762      -0.08566926      -0.00749607 </v>
   <v>       0.00952361       0.08263046       0.00829270 </v>
   <v>       0.00979696       0.08250561       0.00878887 </v>
   <v>      -0.01776347      -0.08542851      -0.01121258 </v>
   <v>       0.00933012       0.08247172       0.00961012 </v>
   <v>      -0.01917338      -0.08412739      -0.01364430 </v>
   <v>       0.00925374       0.08253736       0.00905928 </v>
   <v>       0.01572550       0.08238456       0.01057496 </v>
   <v>      -0.01917905      -0.08301760      -0.01017939 </v>
   <v>      -0.01188937      -0.08511777      -0.01176759 </v>
   <v>       0.01322616       0.08171715       0.00885597 </v>
   <v>      -0.01169185      -0.08758173      -0.00695098 </v>
   <v>       0.01560152       0.08248928       0.00956255 </v>
   <v>      -0.01366533      -0.08388764      -0.00694690 </v>
   <v>      -0.01445733      -0.08345526      -0.01210850 </v>
   <v>       0.01571077       0.08258199       0.00985663 </v>
   <v>       0.01603344       0.08233130       0.01027786 </v>
   <v>       0.00964786       0.04077200      -0.00858550 </v>
   <v>      -0.00541495      -0.04204262      -0.02231219 </v>
   <v>       0.00657455       0.04032288       0.03287679 </v>
   <v>      -0.00564033      -0.04201003       0.01071600 </v>
   <v>      -0.00662291      -0.04080046       0.01190013 </v>
   <v>       0.00756512       0.04140865       0.02792642 </v>
   <v>       0.00826642       0.04133176      -0.00879198 </v>
   <v>      -0.00516901      -0.04182633      -0.02297088 </v>
   <v>       0.00632990       0.04392382       0.02620547 </v>
   <v>      -0.00591444      -0.04024806       0.01204249 </v>
   <v>      -0.00535272      -0.04182935       0.01081929 </v>
   <v>      -0.00658035      -0.04088297      -0.02359996 </v>
   <v>       0.00545035       0.04182809      -0.00447116 </v>
   <v>       0.00787734       0.04212258      -0.00998876 </v>
   <v>      -0.00570394      -0.04142210      -0.02257545 </v>
   <v>       0.00777728       0.04197242       0.02755719 </v>
   <v>      -0.00565981      -0.04131019       0.01008464 </v>
   <v>       0.00828393       0.04066153      -0.01007069 </v>
   <v>      -0.00494908      -0.04214936      -0.02236424 </v>
   <v>       0.00673403       0.04041075       0.03004018 </v>
   <v>       0.00552757       0.04202523       0.02793923 </v>
   <v>       0.00643593       0.04046379      -0.00788528 </v>
   <v>      -0.00660923      -0.04007955       0.01188618 </v>
   <v>      -0.00654273      -0.04031712      -0.02448369 </v>
   <v>       0.00649366       0.04204751      -0.00619361 </v>
   <v>      -0.00703102      -0.04039475      -0.02367836 </v>
   <v>       0.00700861       0.04345281       0.02649120 </v>
   <v>      -0.00693137      -0.04007938       0.01181569 </v>
   <v>       0.00592618       0.04313557      -0.00559544 </v>
   <v>       0.00816851       0.04117827       0.02832934 </v>
   <v>       0.00639734       0.04007743      -0.00685962 </v>
   <v>      -0.00573202      -0.04054707      -0.02365305 </v>
   <v>       0.00625228       0.04067560       0.02959240 </v>
   <v>      -0.00584197      -0.04051119       0.01239168 </v>
   <v>       0.00611296       0.04089944      -0.00814657 </v>
   <v>      -0.00587851      -0.04029863      -0.02390068 </v>
   <v>       0.00729353       0.04054161       0.02982937 </v>
   <v>      -0.00585419      -0.04023037       0.01191033 </v>
   <v>      -0.00682839      -0.04012147       0.01208606 </v>
   <v>       0.00671535       0.04281375       0.02961605 </v>
   <v>       0.00731427       0.04280755      -0.00892957 </v>
   <v>      -0.00528028      -0.04010906      -0.02434921 </v>
   <v>       0.00648814       0.04227485       0.02696290 </v>
   <v>      -0.00567877      -0.03972387       0.01186751 </v>
   <v>      -0.00659620      -0.04017247      -0.02433564 </v>
   <v>       0.00689873       0.04144306      -0.00579885 </v>
   <v>      -0.00564921      -0.04057685      -0.02367182 </v>
   <v>      -0.00515469      -0.04179641       0.01025640 </v>
  </varray>
  <varray name="stress" >
   <v>       5.23028443       0.79270785       0.16967913 </v>
   <v>       0.79270787      -4.19072354      -0.15851414 </v>
   <v>       0.16967916      -0.15851412      -2.09173259 </v>
  </varray>
  <energy>
   <i name="e_fr_energy">   -671.40198389 </i>
   <i name="e_wo_entrp">   -671.34104851 </i>
   <i name="e_0_energy">     -0.12187077 </i>
  </energy>
  <time name="totalsc">   91.75   92.45</time>
 </calculation>
 <calculation>
  <scstep>
   <time name="dav">    5.36    5.38</time>
   <time name="total">    6.34    6.36</time>
   <energy>
    <i name="alphaZ">    562.94535741 </i>
    <i name="ewald">  38070.26449339 </i>
    <i name="hartreedc"> -57988.18560172 </i>
    <i name="XCdc">   -663.71467306 </i>
    <i name="pawpsdc">  43633.85522123 </i>
    <i name="pawaedc"> -41874.74739090 </i>
    <i name="eentropy">     -0.12191253 </i>
    <i name="bandstr">  -3313.81360950 </i>
    <i name="atom">  20917.06298232 </i>
    <i name="e_fr_energy">   -656.45513336 </i>
    <i name="e_wo_entrp">   -656.33322083 </i>
    <i name="e_0_energy">   -656.39417710 </i>
   </energy>
  </scstep>
  <scstep>
   <time name="dav">    6.16    6.18</time>
   <time name="total">    7.15    7.17</time>
   <energy>
    <i name="e_fr_energy">   -656.48202444 </i>
    <i name="e_wo_entrp">   -656.35615953 </i>
    <i name="e_0_energy">   -656.41909199 </i>
   </energy>
  </scstep>
  <scstep>
   <time name="dav">    6.08    6.13</time>
   <time name="total">    7.05    7.11</time>
   <energy>
    <i name="e_fr_energy">   -656.45789390 </i>
    <i name="e_wo_entrp">   -656.34143163 </i>
    <i name="e_0_energy">   -656.39966276 </i>
   </energy>
  </scstep>
  <scstep>
   <time name="dav">    5.25    5.27</time>
   <time name="total">    6.23    6.25</time>
   <energy>
    <i name="e_fr_energy">   -656.45606986 </i>
    <i name="e_wo_entrp">   -656.32993631 </i>
    <i name="e_0_energy">   -656.39300309 </i>
   </energy>
  </scstep>
  <scstep>
   <time name="dav">    4.84    4.88</time>
   <time name="total">    5.82    5.87</time>
   <energy>
    <i name="e_fr_energy">   -656.45544680 </i>
    <i name="e_wo_entrp">   -656.33116416 </i>
    <i name="e_0_energy">   -656.39330548 </i>
   </energy>
  </scstep>
  <scstep>
   <time name="dav">    5.31    5.34</time>
   <time name="total">    6.29    6.32</time>
   <energy>
    <i name="e_fr_energy">   -656.45560603 </i>
    <i name="e_wo_entrp">   -656.33322258 </i>
    <i name="e_0_energy">   -656.39441430 </i>
   </energy>
  </scstep>
  <scstep>
   <time name="dav">    4.59    4.60</time>
   <time name="total">    5.55    5.58</time>
   <energy>
    <i name="e_fr_energy">   -656.45547413 </i>
    <i name="e_wo_entrp">   -656.33386255 </i>
    <i name="e_0_energy">   -656.39466834 </i>
   </energy>
  </scstep>
  <scstep>
   <time name="dav">    3.84    3.86</time>
   <time name="total">    4.22    4.25</time>
   <energy>
    <i name="alphaZ">    562.94535741 </i>
    <i name="ewald">  38070.26449339 </i>
    <i name="hartreedc"> -57987.82048960 </i>
    <i name="XCdc">   -663.71478607 </i>
    <i name="pawpsdc">  43606.25071553 </i>
    <i name="pawaedc"> -41847.08571327 </i>
    <i name="eentropy">     -0.12183677 </i>
    <i name="bandstr">  -3314.23616003 </i>
    <i name="atom">  20917.06298232 </i>
    <i name="e_fr_energy">   -656.45543708 </i>
    <i name="e_wo_entrp">   -656.33360031 </i>
    <i name="e_0_energy">   -656.39451869 </i>
   </energy>
  </scstep>
  <structure>
   <crystal>
    <varray name="basis" >
     <v>       9.57094646       0.00000000       0.00000000 </v>
     <v>      -6.38062803      11.05157872       0.00000000 </v>
     <v>       0.00000000       0.00000000      34.88026251 </v>
    </varray>
    <i name="volume">   3689.42726549 </i>
    <varray name="rec_basis" >
     <v>       0.10448287       0.06032318       0.00000000 </v>
     <v>       0.00000000       0.09048481       0.00000000 </v>
     <v>       0.00000000       0.00000000       0.02866951 </v>
    </varray>
   </crystal>
   <varray name="positions" >
    <v>       0.19231252       0.32057188       0.43907222 </v>
    <v>       0.02617130       0.24880710       0.42843093 </v>
    <v>       0.20604486       0.30094956       0.47886466 </v>
    <v>       0.04839619       0.21680105       0.49293210 </v>
    <v>       0.93751126       0.18463016       0.46171266 </v>
    <v>       0.01795802       0.50685709       0.44869379 </v>
    <v>       0.93506262       0.42682989       0.50948252 </v>
    <v>       0.88112473       0.42595699       0.47122883 </v>
    <v>       0.10556974       0.50843016       0.51065349 </v>
    <v>       0.15650724       0.55786959       0.47314886 </v>
    <v>       0.05145833       0.37011267       0.47147950 </v>
    <v>       0.80768784       0.12377429       0.46333401 </v>
    <v>       0.75793855       0.37147104       0.46080347 </v>
    <v>       0.18282531       0.52807264       0.53566208 </v>
    <v>       0.86013543       0.37317107       0.53337552 </v>
    <v>       0.01730913       0.52507265       0.41824312 </v>
    <v>       0.97611363       0.24525735       0.40014125 </v>
    <v>       0.29038123       0.38109791       0.42018379 </v>
    <v>       0.31660487       0.34380684       0.49572880 </v>
    <v>       0.01776296       0.18443144       0.52229802 </v>
    <v>       0.27977024       0.62166905       0.46442830 </v>
    <v>       0.55610153       0.08402681       0.25003542 </v>
    <v>       0.55612676       0.33403004       0.25003498 </v>
    <v>       0.44388016       0.41596482       0.74997619 </v>
    <v>       0.55614117       0.58404555       0.25002917 </v>
    <v>       0.44388183       0.66596481       0.74997664 </v>
    <v>       0.55613423       0.83404534       0.25002905 </v>
    <v>       0.44387402       0.91596136       0.74997748 </v>
    <v>       0.88948213       0.33404895       0.25003102 </v>
    <v>       0.77722879       0.16595274       0.74997778 </v>
    <v>       0.77723135       0.41595894       0.74997683 </v>
    <v>       0.88948531       0.58404637       0.25002956 </v>
    <v>       0.77723461       0.66595756       0.74997582 </v>
    <v>       0.88949722       0.83404660       0.25002996 </v>
    <v>       0.77723284       0.91595304       0.74997715 </v>
    <v>       0.11053302       0.91595958       0.74997666 </v>
    <v>       0.88949383       0.08403132       0.25003046 </v>
    <v>       0.22278868       0.83405684       0.25003204 </v>
    <v>       0.44387531       0.16596149       0.74997722 </v>
    <v>       0.22279829       0.58406674       0.25003073 </v>
    <v>       0.11053613       0.41596208       0.74997683 </v>
    <v>       0.22279091       0.33403637       0.25003111 </v>
    <v>       0.22279403       0.08404464       0.25003630 </v>
    <v>       0.11053494       0.16595949       0.74997709 </v>
    <v>       0.11053241       0.66596422       0.74997629 </v>
    <v>       0.77749889       0.16631154       0.29461333 </v>
    <v>       0.88917004       0.08368559       0.79460318 </v>
    <v>       0.77748125       0.16631276       0.20540559 </v>
    <v>       0.88917218       0.08368809       0.70538822 </v>
    <v>       0.22251004       0.08368830       0.70538892 </v>
    <v>       0.11082144       0.16631458       0.20540603 </v>
    <v>       0.77748865       0.41631191       0.29460600 </v>
    <v>       0.88917083       0.33368517       0.79460285 </v>
    <v>       0.11082206       0.66631125       0.20540700 </v>
    <v>       0.55584033       0.83368966       0.70538839 </v>
    <v>       0.88917360       0.33369018       0.70538756 </v>
    <v>       0.22250811       0.08368619       0.79460316 </v>
    <v>       0.11080853       0.16631074       0.29461004 </v>
    <v>       0.77748220       0.66630907       0.29460008 </v>
    <v>       0.88917083       0.58368563       0.79460329 </v>
    <v>       0.77748219       0.66630994       0.20540553 </v>
    <v>       0.88917465       0.58369138       0.70538857 </v>
    <v>       0.77748063       0.91630913       0.29460323 </v>
    <v>       0.88917034       0.83368556       0.79460339 </v>
    <v>       0.77748681       0.41631560       0.20540490 </v>
    <v>       0.44415098       0.91631359       0.20540401 </v>
    <v>       0.44414523       0.91630697       0.29460086 </v>
    <v>       0.22251118       0.58369116       0.70538759 </v>
    <v>       0.22250793       0.58368580       0.79460310 </v>
    <v>       0.11081946       0.91631007       0.29459954 </v>
    <v>       0.22250807       0.83368614       0.79460344 </v>
    <v>       0.11082402       0.91631508       0.20540470 </v>
    <v>       0.22251010       0.83368962       0.70538869 </v>
    <v>       0.11081395       0.66630374       0.29460493 </v>
    <v>       0.77748113       0.91631308       0.20540357 </v>
    <v>       0.44413683       0.16629606       0.29459916 </v>
    <v>       0.55583811       0.08368640       0.79460317 </v>
    <v>       0.44414849       0.16630738       0.20540433 </v>
    <v>       0.55583932       0.08368875       0.70538868 </v>
    <v>       0.44413371       0.41630261       0.29460773 </v>
    <v>       0.55583739       0.33368583       0.79460307 </v>
    <v>       0.44414682       0.41631261       0.20540498 </v>
    <v>       0.55584100       0.33369031       0.70538888 </v>
    <v>       0.22251118       0.33369077       0.70538828 </v>
    <v>       0.11082325       0.41631570       0.20540720 </v>
    <v>       0.44414605       0.66630683       0.29460147 </v>
[...]
       <r>   -18.5680     0.0000     4.0000 </r>
       <r>   -18.4905     0.0000     4.0000 </r>
       <r>   -18.4130     0.0000     4.0000 </r>
       <r>   -18.3356     0.0000     4.0000 </r>
       <r>   -18.2581     0.0000     4.0000 </r>
       <r>   -18.1806     0.0000     4.0000 </r>
       <r>   -18.1032     0.0000     4.0000 </r>
       <r>   -18.0257     0.0000     4.0000 </r>
       <r>   -17.9482     0.0000     4.0000 </r>
       <r>   -17.8708     0.0000     4.0000 </r>
       <r>   -17.7933     0.0000     4.0000 </r>
       <r>   -17.7158     0.0000     4.0000 </r>
       <r>   -17.6384     0.0000     4.0000 </r>
       <r>   -17.5609     0.0000     4.0000 </r>
       <r>   -17.4834     0.0000     4.0000 </r>
       <r>   -17.4060     0.0000     4.0000 </r>
       <r>   -17.3285     0.0000     4.0000 </r>
       <r>   -17.2510     0.0000     4.0000 </r>
       <r>   -17.1736     0.0000     4.0000 </r>
       <r>   -17.0961     0.0000     4.0000 </r>
       <r>   -17.0186     0.0000     4.0000 </r>
       <r>   -16.9411     0.0000     4.0000 </r>
       <r>   -16.8637     0.0000     4.0000 </r>
       <r>   -16.7862     0.0000     4.0000 </r>
       <r>   -16.7087     0.0000     4.0000 </r>
       <r>   -16.6313     0.0000     4.0000 </r>
       <r>   -16.5538     0.0000     4.0000 </r>
       <r>   -16.4763     0.0000     4.0000 </r>
       <r>   -16.3989     0.0000     4.0000 </r>
       <r>   -16.3214     0.0000     4.0000 </r>
       <r>   -16.2439     0.0000     4.0000 </r>
       <r>   -16.1665     0.0000     4.0000 </r>
       <r>   -16.0890     0.0000     4.0000 </r>
       <r>   -16.0115     0.0000     4.0000 </r>
       <r>   -15.9341     0.0000     4.0000 </r>
       <r>   -15.8566     0.0011     4.0001 </r>
       <r>   -15.7791     0.0662     4.0052 </r>
       <r>   -15.7017     1.3184     4.1074 </r>
       <r>   -15.6242     8.8312     4.7915 </r>
       <r>   -15.5467    20.3073     6.3646 </r>
       <r>   -15.4693    16.2038     7.6199 </r>
       <r>   -15.3918     4.4729     7.9664 </r>
       <r>   -15.3143     0.4206     7.9990 </r>
       <r>   -15.2369     0.0133     8.0000 </r>
       <r>   -15.1594     0.0127     8.0010 </r>
       <r>   -15.0819     0.4753     8.0378 </r>
       <r>   -15.0045     6.1362     8.5132 </r>
       <r>   -14.9270    28.8539    10.7484 </r>
       <r>   -14.8495    57.4461    15.1986 </r>
       <r>   -14.7721    62.6789    20.0541 </r>
       <r>   -14.6946    39.3205    23.1001 </r>
       <r>   -14.6171    15.0227    24.2639 </r>
       <r>   -14.5397    24.1137    26.1319 </r>
       <r>   -14.4622    45.8717    29.6855 </r>
       <r>   -14.3847    52.0092    33.7145 </r>
       <r>   -14.3073    65.8244    38.8137 </r>
       <r>   -14.2298    50.7105    42.7421 </r>
       <r>   -14.1523    15.0927    43.9113 </r>
       <r>   -14.0749     6.8289    44.4403 </r>
       <r>   -13.9974    27.1277    46.5418 </r>
       <r>   -13.9199    60.2411    51.2085 </r>
       <r>   -13.8425   103.0347    59.1903 </r>
       <r>   -13.7650   142.8817    70.2589 </r>
       <r>   -13.6875   108.5853    78.6707 </r>
       <r>   -13.6101    73.1067    84.3340 </r>
       <r>   -13.5326    88.7751    91.2112 </r>
       <r>   -13.4551    96.2643    98.6685 </r>
       <r>   -13.3777    74.0073   104.4016 </r>
       <r>   -13.3002    36.9675   107.2653 </r>
       <r>   -13.2227     8.6982   107.9392 </r>
       <r>   -13.1453     0.7623   107.9982 </r>
       <r>   -13.0678     0.0227   108.0000 </r>
       <r>   -12.9903     0.0002   108.0000 </r>
       <r>   -12.9129     0.0000   108.0000 </r>
       <r>   -12.8354     0.0000   108.0000 </r>
       <r>   -12.7579     0.0000   108.0000 </r>
       <r>   -12.6805     0.0000   108.0000 </r>
       <r>   -12.6030     0.0000   108.0000 </r>
       <r>   -12.5255     0.0000   108.0000 </r>
       <r>   -12.4481     0.0000   108.0000 </r>
       <r>   -12.3706     0.0000   108.0000 </r>
       <r>   -12.2931     0.0000   108.0000 </r>
       <r>   -12.2157     0.0000   108.0000 </r>
       <r>   -12.1382     0.0000   108.0000 </r>
       <r>   -12.0607     0.0000   108.0000 </r>
       <r>   -11.9833     0.0000   108.0000 </r>
       <r>   -11.9058     0.0000   108.0000 </r>
       <r>   -11.8283     0.0000   108.0000 </r>
       <r>   -11.7509     0.0000   108.0000 </r>
       <r>   -11.6734     0.0000   108.0000 </r>
       <r>   -11.5959     0.0000   108.0000 </r>
       <r>   -11.5185     0.0000   108.0000 </r>
       <r>   -11.4410     0.0000   108.0000 </r>
       <r>   -11.3635     0.0000   108.0000 </r>
       <r>   -11.2861     0.0000   108.0000 </r>
       <r>   -11.2086     0.0000   108.0000 </r>
       <r>   -11.1311     0.0000   108.0000 </r>
       <r>   -11.0537     0.0000   108.0000 </r>
       <r>   -10.9762     0.0006   108.0000 </r>
       <r>   -10.8987     0.0442   108.0035 </r>
       <r>   -10.8213     1.0070   108.0815 </r>
       <r>   -10.7438     7.6386   108.6732 </r>
       <r>   -10.6663    19.8071   110.2076 </r>
       <r>   -10.5889    19.7501   111.7376 </r>
       <r>   -10.5114    19.3319   113.2352 </r>
       <r>   -10.4339    30.6907   115.6127 </r>
       <r>   -10.3565    23.5014   117.4333 </r>
       <r>   -10.2790     6.8132   117.9611 </r>
       <r>   -10.2015     2.7755   118.1761 </r>
       <r>   -10.1241     8.0704   118.8013 </r>
       <r>   -10.0466    10.3268   119.6013 </r>
       <r>    -9.9691     4.4701   119.9476 </r>
       <r>    -9.8917     0.6460   119.9976 </r>
       <r>    -9.8142     0.0306   120.0000 </r>
       <r>    -9.7367     0.0005   120.0000 </r>
       <r>    -9.6593     0.0000   120.0000 </r>
       <r>    -9.5818     0.0000   120.0000 </r>
       <r>    -9.5043     0.0000   120.0000 </r>
       <r>    -9.4268     0.0000   120.0000 </r>
       <r>    -9.3494     0.0000   120.0000 </r>
       <r>    -9.2719     0.0000   120.0000 </r>
       <r>    -9.1944     0.0000   120.0000 </r>
       <r>    -9.1170     0.0000   120.0000 </r>
       <r>    -9.0395     0.0000   120.0000 </r>
       <r>    -8.9620     0.0000   120.0000 </r>
       <r>    -8.8846     0.0000   120.0000 </r>
       <r>    -8.8071     0.0000   120.0000 </r>
       <r>    -8.7296     0.0000   120.0000 </r>
       <r>    -8.6522     0.0000   120.0000 </r>
       <r>    -8.5747     0.0000   120.0000 </r>
       <r>    -8.4972     0.0000   120.0000 </r>
       <r>    -8.4198     0.0000   120.0000 </r>
       <r>    -8.3423     0.0000   120.0000 </r>
       <r>    -8.2648     0.0000   120.0000 </r>
       <r>    -8.1874     0.0000   120.0000 </r>
       <r>    -8.1099     0.0000   120.0000 </r>
       <r>    -8.0324     0.0000   120.0000 </r>
       <r>    -7.9550     0.0053   120.0004 </r>
       <r>    -7.8775     0.1855   120.0148 </r>
       <r>    -7.8000     2.1271   120.1796 </r>
       <r>    -7.7226     8.0769   120.8053 </r>
       <r>    -7.6451    10.3123   121.6041 </r>
       <r>    -7.5676     4.4416   121.9482 </r>
       <r>    -7.4902     0.6674   121.9999 </r>
       <r>    -7.4127     0.8350   122.0646 </r>
       <r>    -7.3352     8.0342   122.6870 </r>
       <r>    -7.2578    29.7888   124.9946 </r>
       <r>    -7.1803    43.7740   128.3857 </r>
       <r>    -7.1028    34.9478   131.0930 </r>
       <r>    -7.0254    28.9320   133.3342 </r>
       <r>    -6.9479    27.1135   135.4346 </r>
       <r>    -6.8704    34.5471   138.1109 </r>
       <r>    -6.7930    69.5600   143.4995 </r>
       <r>    -6.7155   116.6173   152.5335 </r>
       <r>    -6.6380    96.7960   160.0320 </r>
       <r>    -6.5606    71.5732   165.5766 </r>
       <r>    -6.4831   132.6035   175.8490 </r>
       <r>    -6.4056   172.9753   189.2488 </r>
       <r>    -6.3282   132.7233   199.5305 </r>
       <r>    -6.2507    74.8103   205.3258 </r>
       <r>    -6.1732    28.4162   207.5271 </r>
       <r>    -6.0958     5.6250   207.9629 </r>
       <r>    -6.0183     0.4649   207.9989 </r>
       <r>    -5.9408     0.0159   208.0001 </r>
       <r>    -5.8634     0.1218   208.0096 </r>
       <r>    -5.7859     2.5155   208.2044 </r>
       <r>    -5.7084    17.9591   209.5957 </r>
       <r>    -5.6310    47.4968   213.2751 </r>
       <r>    -5.5535    53.9727   217.4562 </r>
       <r>    -5.4760    48.6941   221.2284 </r>
       <r>    -5.3986   113.7389   230.0394 </r>
       <r>    -5.3211   223.8079   247.3771 </r>
       <r>    -5.2436   192.2778   262.2723 </r>
       <r>    -5.1662    67.6077   267.5097 </r>
       <r>    -5.0887    24.4916   269.4070 </r>
       <r>    -5.0112    40.1416   272.5166 </r>
       <r>    -4.9338    34.0371   275.1534 </r>
       <r>    -4.8563    13.0592   276.1650 </r>
       <r>    -4.7788    27.6581   278.3076 </r>
       <r>    -4.7014    84.6371   284.8642 </r>
       <r>    -4.6239   104.3991   292.9517 </r>
       <r>    -4.5464    75.6987   298.8159 </r>
       <r>    -4.4690    78.4512   304.8932 </r>
       <r>    -4.3915    92.2602   312.0403 </r>
       <r>    -4.3140    89.5244   318.9755 </r>
       <r>    -4.2366    55.2309   323.2541 </r>
       <r>    -4.1591    35.2710   325.9864 </r>
       <r>    -4.0816    53.9555   330.1662 </r>
       <r>    -4.0042    65.1790   335.2154 </r>
       <r>    -3.9267    60.5363   339.9050 </r>
       <r>    -3.8492    54.6752   344.1405 </r>
       <r>    -3.7718    39.9074   347.2320 </r>
       <r>    -3.6943    23.8866   349.0825 </r>
       <r>    -3.6168    23.4546   350.8994 </r>
       <r>    -3.5394    20.9487   352.5222 </r>
       <r>    -3.4619    36.1999   355.3265 </r>
       <r>    -3.3844    62.4847   360.1670 </r>
       <r>    -3.3070    99.7065   367.8910 </r>
       <r>    -3.2295   146.4108   379.2330 </r>
       <r>    -3.1520   138.4675   389.9597 </r>
       <r>    -3.0746   101.2886   397.8062 </r>
       <r>    -2.9971    78.7267   403.9049 </r>
       <r>    -2.9196    70.6190   409.3755 </r>
       <r>    -2.8422    93.8754   416.6478 </r>
       <r>    -2.7647   112.2883   425.3464 </r>
       <r>    -2.6872    73.6172   431.0493 </r>
       <r>    -2.6098    30.7268   433.4297 </r>
       <r>    -2.5323    31.6162   435.8789 </r>
       <r>    -2.4548    71.3078   441.4029 </r>
       <r>    -2.3774    98.7566   449.0533 </r>
       <r>    -2.2999    78.2759   455.1171 </r>
       <r>    -2.2224    49.8643   458.9799 </r>
       <r>    -2.1450    55.2862   463.2627 </r>
       <r>    -2.0675    61.3197   468.0130 </r>
       <r>    -1.9900    54.1094   472.2047 </r>
       <r>    -1.9126    47.8057   475.9081 </r>
       <r>    -1.8351    23.5916   477.7356 </r>
       <r>    -1.7576    13.0534   478.7468 </r>
       <r>    -1.6801    32.9325   481.2980 </r>
       <r>    -1.6027    41.8571   484.5406 </r>
       <r>    -1.5252    25.9275   486.5491 </r>
       <r>    -1.4477    22.6362   488.3026 </r>
       <r>    -1.3703    16.6842   489.5951 </r>
       <r>    -1.2928     4.7462   489.9628 </r>
       <r>    -1.2153     0.4649   489.9988 </r>
       <r>    -1.1379     0.0152   490.0000 </r>
       <r>    -1.0604     0.0002   490.0000 </r>
       <r>    -0.9829     0.0000   490.0000 </r>
       <r>    -0.9055     0.0000   490.0000 </r>
       <r>    -0.8280     0.0000   490.0000 </r>
       <r>    -0.7505     0.0000   490.0000 </r>
       <r>    -0.6731     0.0000   490.0000 </r>
       <r>    -0.5956     0.0000   490.0000 </r>
       <r>    -0.5181     0.0000   490.0000 </r>
       <r>    -0.4407     0.0000   490.0000 </r>
       <r>    -0.3632     0.0000   490.0000 </r>
       <r>    -0.2857     0.0000   490.0000 </r>
       <r>    -0.2083     0.0000   490.0000 </r>
       <r>    -0.1308     0.0000   490.0000 </r>
       <r>    -0.0533     0.0000   490.0000 </r>
       <r>     0.0241     0.0001   490.0000 </r>
       <r>     0.1016     0.0080   490.0006 </r>
       <r>     0.1791     0.3357   490.0266 </r>
       <r>     0.2565     5.0504   490.4179 </r>
       <r>     0.3340    28.2768   492.6084 </r>
       <r>     0.4115    60.2940   497.2792 </r>
       <r>     0.4889    55.2752   501.5612 </r>
       <r>     0.5664    50.4773   505.4715 </r>
       <r>     0.6439    88.9365   512.3612 </r>
       <r>     0.7213   151.0144   524.0598 </r>
       <r>     0.7988   160.9699   536.5296 </r>
       <r>     0.8763   137.5839   547.1879 </r>
       <r>     0.9537   118.2081   556.3451 </r>
       <r>     1.0312    59.0571   560.9201 </r>
       <r>     1.1087    17.3345   562.2629 </r>
       <r>     1.1861    30.5786   564.6317 </r>
       <r>     1.2636    82.9182   571.0552 </r>
       <r>     1.3411   117.0669   580.1240 </r>
       <r>     1.4185   109.9407   588.6408 </r>
       <r>     1.4960    85.1749   595.2390 </r>
       <r>     1.5735    46.8205   598.8661 </r>
       <r>     1.6509    13.0569   599.8775 </r>
       <r>     1.7284     1.5135   599.9948 </r>
       <r>     1.8059     0.0663   599.9999 </r>
       <r>     1.8833     0.0010   600.0000 </r>
       <r>     1.9608     0.0000   600.0000 </r>
       <r>     2.0383     0.0000   600.0000 </r>
       <r>     2.1157     0.0000   600.0000 </r>
       <r>     2.1932     0.0000   600.0000 </r>
       <r>     2.2707     0.0000   600.0000 </r>
       <r>     2.3481     0.0000   600.0000 </r>
       <r>     2.4256     0.0000   600.0000 </r>
       <r>     2.5031     0.0000   600.0000 </r>
       <r>     2.5805     0.0000   600.0000 </r>
      </set>
     </set>
    </array>
   </total>
  </dos>
 </calculation>
 <structure name="finalpos" >
  <crystal>
   <varray name="basis" >
    <v>       9.57094646       0.00000000       0.00000000 </v>
    <v>      -6.38062803      11.05157872       0.00000000 </v>
    <v>       0.00000000       0.00000000      34.88026251 </v>
   </varray>
   <i name="volume">   3689.42726549 </i>
   <varray name="rec_basis" >
    <v>       0.10448287       0.06032318       0.00000000 </v>
    <v>       0.00000000       0.09048481       0.00000000 </v>
    <v>       0.00000000       0.00000000       0.02866951 </v>
   </varray>
  </crystal>
  <varray name="positions" >
   <v>       0.19223848       0.32308937       0.43904956 </v>
   <v>       0.02582788       0.25096190       0.42829673 </v>
   <v>       0.20578787       0.30302395       0.47886463 </v>
   <v>       0.04745774       0.21919950       0.49285463 </v>
   <v>       0.93670697       0.18586343       0.46144751 </v>
   <v>       0.01816213       0.50409294       0.44826489 </v>
   <v>       0.93576248       0.42477551       0.50916045 </v>
   <v>       0.88088085       0.42418560       0.47096424 </v>
   <v>       0.10663543       0.50671203       0.51026011 </v>
   <v>       0.15732863       0.55611179       0.47269819 </v>
   <v>       0.05115972       0.36999246       0.47125263 </v>
   <v>       0.80693069       0.12562929       0.46295186 </v>
   <v>       0.75808196       0.36891241       0.46053433 </v>
   <v>       0.18400762       0.52535618       0.53514662 </v>
   <v>       0.86183099       0.37088712       0.53306799 </v>
   <v>       0.01753761       0.52083925       0.41771936 </v>
   <v>       0.97617463       0.24819164       0.40002330 </v>
   <v>       0.28971680       0.38438432       0.42025719 </v>
   <v>       0.31550581       0.34690520       0.49593388 </v>
   <v>       0.01671992       0.18803522       0.52229440 </v>
   <v>       0.28051605       0.61871800       0.46384612 </v>
   <v>       0.55590075       0.08383276       0.25023164 </v>
   <v>       0.55590199       0.33382190       0.25023947 </v>
   <v>       0.44408555       0.41617225       0.74993070 </v>
   <v>       0.55592101       0.58384318       0.25019691 </v>
   <v>       0.44408642       0.66617081       0.74993436 </v>
   <v>       0.55592796       0.83385586       0.25018251 </v>
   <v>       0.44407138       0.91616114       0.74994099 </v>
   <v>       0.88926024       0.33383216       0.25023614 </v>
   <v>       0.77741603       0.16613777       0.74993763 </v>
   <v>       0.77742259       0.41614950       0.74993308 </v>
   <v>       0.88926709       0.58383876       0.25018919 </v>
   <v>       0.77742746       0.66614711       0.74993559 </v>
   <v>       0.88927691       0.83384335       0.25016090 </v>
   <v>       0.77742206       0.91613757       0.74994052 </v>
   <v>       0.11073256       0.91614401       0.74994503 </v>
   <v>       0.88927735       0.08382456       0.25020515 </v>
   <v>       0.22258193       0.83386222       0.25018509 </v>
   <v>       0.44407493       0.16616463       0.74993766 </v>
   <v>       0.22258773       0.58386575       0.25021594 </v>
   <v>       0.11073750       0.41615106       0.74993493 </v>
   <v>       0.22256864       0.33382876       0.25023818 </v>
   <v>       0.22257179       0.08385033       0.25021310 </v>
   <v>       0.11073452       0.16614485       0.74994079 </v>
   <v>       0.11073473       0.66615215       0.74993951 </v>
   <v>       0.77754325       0.16634093       0.29477020 </v>
   <v>       0.88914453       0.08358781       0.79450405 </v>
   <v>       0.77749004       0.16641012       0.20567033 </v>
   <v>       0.88915497       0.08358904       0.70539488 </v>
   <v>       0.22248272       0.08360079       0.70539905 </v>
   <v>       0.11086622       0.16643957       0.20565652 </v>
   <v>       0.77753213       0.41642433       0.29475453 </v>
   <v>       0.88914869       0.33359317       0.79449779 </v>
   <v>       0.11085967       0.66638342       0.20563443 </v>
   <v>       0.55583027       0.83363036       0.70539494 </v>
   <v>       0.88915508       0.33359610       0.70538936 </v>
   <v>       0.22249355       0.08360912       0.79450620 </v>
   <v>       0.11076320       0.16634255       0.29476371 </v>
   <v>       0.77753690       0.66642772       0.29470338 </v>
   <v>       0.88914259       0.58358452       0.79450108 </v>
   <v>       0.77746423       0.66634153       0.20561699 </v>
   <v>       0.88917091       0.58361197       0.70539094 </v>
   <v>       0.77749875       0.91632912       0.29470784 </v>
   <v>       0.88913718       0.83357855       0.79450677 </v>
   <v>       0.77745110       0.41631686       0.20566343 </v>
   <v>       0.44420134       0.91645361       0.20563417 </v>
   <v>       0.44411735       0.91632579       0.29472562 </v>
   <v>       0.22249721       0.58362481       0.70539229 </v>
   <v>       0.22249362       0.58360231       0.79449918 </v>
   <v>       0.11076728       0.91634560       0.29470946 </v>
   <v>       0.22248800       0.83359737       0.79450784 </v>
   <v>       0.11090917       0.91645838       0.20561742 </v>
   <v>       0.22249208       0.83361823       0.70539897 </v>
   <v>       0.11081073       0.66641667       0.29473219 </v>
   <v>       0.77750505       0.91642812       0.20561611 </v>
   <v>       0.44409327       0.16633055       0.29475306 </v>
   <v>       0.55582338       0.08361812       0.79450245 </v>
   <v>       0.44419712       0.16640897       0.20566540 </v>
   <v>       0.55581465       0.08361207       0.70539519 </v>
   <v>       0.44416322       0.41641543       0.29476065 </v>
   <v>       0.55582586       0.33362477       0.79449661 </v>
   <v>       0.44412347       0.41633116       0.20566833 </v>
   <v>       0.55582613       0.33361934       0.70539025 </v>
   <v>       0.22248747       0.33360732       0.70539274 </v>
   <v>       0.11081928       0.41637806       0.20567835 </v>
   <v>       0.44421698       0.66643178       0.29472547 </v>
   <v>       0.55582224       0.58361309       0.79449738 </v>
   <v>       0.44412292       0.66636806       0.20563591 </v>
   <v>       0.55583989       0.58363724       0.70538978 </v>
   <v>       0.22250005       0.33361357       0.79449825 </v>
   <v>       0.11082633       0.41639111       0.29478393 </v>
   <v>       0.55581983       0.83360734       0.79450309 </v>
   <v>       0.88916951       0.83360650       0.70539569 </v>
  </varray>
 </structure>
</modeling>
