basalPlane                              
           1
     9.570946    0.000000    0.000000
    -6.380628   11.051579    0.000000
     0.000000    0.000000   34.880263
   C    Co   H    Mo   S 
  10   1  10  24  48
Direct configuration=     1
   0.19253926  0.32031076  0.43898613
   0.02635678  0.24846796  0.42838203
   0.20622261  0.30067328  0.47889506
   0.04851257  0.21634262  0.49292129
   0.93736144  0.18423781  0.46172490
   0.01788473  0.50731929  0.44872464
   0.93487053  0.42715121  0.50958044
   0.88084164  0.42612051  0.47123239
   0.10544626  0.50870556  0.51074367
   0.15665944  0.55831474  0.47312896
   0.05151808  0.37015577  0.47145547
   0.80763140  0.12372045  0.46336294
   0.75788501  0.37149785  0.46081391
   0.18286587  0.52815846  0.53566971
   0.86004503  0.37315768  0.53335936
   0.01732482  0.52514743  0.41825705
   0.97605827  0.24521934  0.40015959
   0.29043849  0.38108595  0.42019902
   0.31666427  0.34376215  0.49570983
   0.01768069  0.18434659  0.52228344
   0.27979234  0.62172746  0.46443535
   0.55555566  0.08333325  0.25000928
   0.55555566  0.33333325  0.25000928
   0.44444432  0.41666674  0.74999076
   0.55555566  0.58333325  0.25000928
   0.44444432  0.66666674  0.74999076
   0.55555566  0.83333325  0.25000928
   0.44444432  0.91666674  0.74999076
   0.88888899  0.33333325  0.25000928
   0.77777765  0.16666674  0.74999076
   0.77777765  0.41666674  0.74999076
   0.88888899  0.58333325  0.25000928
   0.77777765  0.66666674  0.74999076
   0.88888899  0.83333325  0.25000928
   0.77777765  0.91666674  0.74999076
   0.11111099  0.91666674  0.74999076
   0.88888899  0.08333325  0.25000928
   0.22222233  0.83333325  0.25000928
   0.44444432  0.16666674  0.74999076
   0.22222233  0.58333325  0.25000928
   0.11111099  0.41666674  0.74999076
   0.22222233  0.33333325  0.25000928
   0.22222233  0.08333325  0.25000928
   0.11111099  0.16666674  0.74999076
   0.11111099  0.66666674  0.74999076
   0.77777765  0.16666674  0.29487388
   0.88888899  0.08333325  0.79485533
   0.77777765  0.16666674  0.20514467
   0.88888899  0.08333325  0.70512613
   0.22222233  0.08333325  0.70512613
   0.11111099  0.16666674  0.20514467
   0.77777765  0.41666674  0.29487388
   0.88888899  0.33333325  0.79485533
   0.11111099  0.66666674  0.20514467
   0.55555566  0.83333325  0.70512613
   0.88888899  0.33333325  0.70512613
   0.22222233  0.08333325  0.79485533
   0.11111099  0.16666674  0.29487388
   0.77777765  0.66666674  0.29487388
   0.88888899  0.58333325  0.79485533
   0.77777765  0.66666674  0.20514467
   0.88888899  0.58333325  0.70512613
   0.77777765  0.91666674  0.29487388
   0.88888899  0.83333325  0.79485533
   0.77777765  0.41666674  0.20514467
   0.44444432  0.91666674  0.20514467
   0.44444432  0.91666674  0.29487388
   0.22222233  0.58333325  0.70512613
   0.22222233  0.58333325  0.79485533
   0.11111099  0.91666674  0.29487388
   0.22222233  0.83333325  0.79485533
   0.11111099  0.91666674  0.20514467
   0.22222233  0.83333325  0.70512613
   0.11111099  0.66666674  0.29487388
   0.77777765  0.91666674  0.20514467
   0.44444432  0.16666674  0.29487388
   0.55555566  0.08333325  0.79485533
   0.44444432  0.16666674  0.20514467
   0.55555566  0.08333325  0.70512613
   0.44444432  0.41666674  0.29487388
   0.55555566  0.33333325  0.79485533
   0.44444432  0.41666674  0.20514467
   0.55555566  0.33333325  0.70512613
   0.22222233  0.33333325  0.70512613
   0.11111099  0.41666674  0.20514467
   0.44444432  0.66666674  0.29487388
   0.55555566  0.58333325  0.79485533
   0.44444432  0.66666674  0.20514467
   0.55555566  0.58333325  0.70512613
   0.22222233  0.33333325  0.79485533
   0.11111099  0.41666674  0.29487388
   0.55555566  0.83333325  0.79485533
   0.88888899  0.83333325  0.70512613
Direct configuration=     2
   0.19229122  0.32059641  0.43908031
   0.02615388  0.24883896  0.42843552
   0.20602816  0.30097552  0.47886180
   0.04838525  0.21684412  0.49293311
   0.93752534  0.18466702  0.46171151
   0.01796490  0.50681367  0.44869089
   0.93508067  0.42679970  0.50947332
   0.88115133  0.42594163  0.47122849
   0.10558134  0.50840429  0.51064502
   0.15649294  0.55782777  0.47315072
   0.05145271  0.37010862  0.47148175
   0.80769314  0.12377935  0.46333129
   0.75794357  0.37146852  0.46080249
   0.18282150  0.52806458  0.53566137
   0.86014392  0.37317233  0.53337703
   0.01730765  0.52506563  0.41824182
   0.97611883  0.24526092  0.40013953
   0.29037585  0.38109903  0.42018236
   0.31659929  0.34381103  0.49573059
   0.01777068  0.18443941  0.52229939
   0.27976816  0.62166356  0.46442764
   0.55615281  0.08409197  0.25003788
   0.55618041  0.33409550  0.25003739
   0.44382716  0.41589887  0.74997482
   0.55619618  0.58411246  0.25003104
   0.44382899  0.66589887  0.74997531
   0.55618858  0.83411224  0.25003090
   0.44382044  0.91589509  0.74997623
   0.88953785  0.33411619  0.25003306
   0.77717723  0.16588567  0.74997656
   0.77718003  0.41589244  0.74997552
   0.88954133  0.58411336  0.25003147
   0.77718360  0.66589094  0.74997441
   0.88955436  0.83411361  0.25003190
   0.77718166  0.91588599  0.74997587
   0.11047872  0.91589315  0.74997533
   0.88955065  0.08409690  0.25003245
   0.22284188  0.83412481  0.25003418
   0.44382186  0.16589524  0.74997595
   0.22285239  0.58413565  0.25003274
   0.11048213  0.41589589  0.74997552
   0.22284432  0.33410242  0.25003316
   0.22284774  0.08411147  0.25003884
   0.11048083  0.16589305  0.74997581
   0.11047806  0.66589822  0.74997493
   0.77747270  0.16627817  0.29458885
   0.88919644  0.08371869  0.79457949
   0.77745341  0.16627950  0.20543011
   0.88919879  0.08372142  0.70541285
   0.22253707  0.08372165  0.70541360
   0.11079424  0.16628149  0.20543059
   0.77746150  0.41627857  0.29458083
   0.88919730  0.33371823  0.79457913
   0.11079492  0.66627786  0.20543164
   0.55586707  0.83372314  0.70541303
   0.88920034  0.33372371  0.70541212
   0.22253496  0.08371934  0.79457947
   0.11078012  0.16627729  0.29458526
   0.77745445  0.66627547  0.29457436
   0.88919730  0.58371874  0.79457961
   0.77745443  0.66627642  0.20543004
   0.88920149  0.58372503  0.70541322
   0.77745272  0.91627554  0.29457780
   0.88919677  0.83371866  0.79457972
   0.77745949  0.41628261  0.20542934
   0.44412342  0.91628041  0.20542838
   0.44411713  0.91627317  0.29457522
   0.22253831  0.58372478  0.70541215
   0.22253476  0.58371892  0.79457941
   0.11079208  0.91627656  0.29457377
   0.22253492  0.83371929  0.79457978
   0.11079706  0.91628204  0.20542913
   0.22253714  0.83372310  0.70541336
   0.11078605  0.66626963  0.29457966
   0.77745327  0.91627986  0.20542789
   0.44410794  0.16626123  0.29457335
   0.55586464  0.08371958  0.79457948
   0.44412070  0.16627362  0.20542872
   0.55586597  0.08372215  0.70541335
   0.44410453  0.41626840  0.29458273
   0.55586385  0.33371896  0.79457937
   0.44411887  0.41627934  0.20542943
   0.55586780  0.33372386  0.70541356
   0.22253832  0.33372436  0.70541291
   0.11079622  0.41628273  0.20543187
   0.44411803  0.66627302  0.29457588
   0.55586418  0.58371915  0.79457972
   0.44411837  0.66627477  0.20543052
   0.55586893  0.58372529  0.70541355
   0.22253482  0.33371968  0.79457936
   0.11078193  0.41626298  0.29459145
   0.55586435  0.83371923  0.79457991
   0.88920013  0.83372277  0.70541360
Direct configuration=     3
   0.19231252  0.32057188  0.43907222
   0.02617130  0.24880710  0.42843093
   0.20604486  0.30094956  0.47886466
   0.04839619  0.21680105  0.49293210
   0.93751126  0.18463016  0.46171266
   0.01795802  0.50685709  0.44869379
   0.93506262  0.42682989  0.50948252
   0.88112473  0.42595699  0.47122883
   0.10556974  0.50843016  0.51065349
   0.15650724  0.55786959  0.47314886
   0.05145833  0.37011267  0.47147950
   0.80768784  0.12377429  0.46333401
   0.75793855  0.37147104  0.46080347
   0.18282531  0.52807264  0.53566208
   0.86013543  0.37317107  0.53337552
   0.01730913  0.52507265  0.41824312
   0.97611363  0.24525735  0.40014125
   0.29038123  0.38109791  0.42018379
   0.31660487  0.34380684  0.49572880
   0.01776296  0.18443144  0.52229802
   0.27977024  0.62166905  0.46442830
   0.55610153  0.08402681  0.25003542
   0.55612676  0.33403004  0.25003498
   0.44388016  0.41596482  0.74997619
   0.55614117  0.58404555  0.25002917
   0.44388183  0.66596481  0.74997664
   0.55613423  0.83404534  0.25002905
   0.44387402  0.91596136  0.74997748
   0.88948213  0.33404895  0.25003102
   0.77722879  0.16595274  0.74997778
   0.77723135  0.41595894  0.74997683
   0.88948531  0.58404637  0.25002956
   0.77723461  0.66595756  0.74997582
   0.88949722  0.83404660  0.25002996
   0.77723284  0.91595304  0.74997715
   0.11053302  0.91595958  0.74997666
   0.88949383  0.08403132  0.25003046
   0.22278868  0.83405684  0.25003204
   0.44387531  0.16596149  0.74997722
   0.22279829  0.58406674  0.25003073
   0.11053613  0.41596208  0.74997683
   0.22279091  0.33403637  0.25003111
   0.22279403  0.08404464  0.25003630
   0.11053494  0.16595949  0.74997709
   0.11053241  0.66596422  0.74997629
   0.77749889  0.16631154  0.29461333
   0.88917004  0.08368559  0.79460318
   0.77748125  0.16631276  0.20540559
   0.88917218  0.08368809  0.70538822
   0.22251004  0.08368830  0.70538892
   0.11082144  0.16631458  0.20540603
   0.77748865  0.41631191  0.29460600
   0.88917083  0.33368517  0.79460285
   0.11082206  0.66631125  0.20540700
   0.55584033  0.83368966  0.70538839
   0.88917360  0.33369018  0.70538756
   0.22250811  0.08368619  0.79460316
   0.11080853  0.16631074  0.29461004
   0.77748220  0.66630907  0.29460008
   0.88917083  0.58368563  0.79460329
   0.77748219  0.66630994  0.20540553
   0.88917465  0.58369138  0.70538857
   0.77748063  0.91630913  0.29460323
   0.88917034  0.83368556  0.79460339
   0.77748681  0.41631560  0.20540490
   0.44415098  0.91631359  0.20540401
   0.44414523  0.91630697  0.29460086
   0.22251118  0.58369116  0.70538759
   0.22250793  0.58368580  0.79460310
   0.11081946  0.91631007  0.29459954
   0.22250807  0.83368614  0.79460344
   0.11082402  0.91631508  0.20540470
   0.22251010  0.83368962  0.70538869
   0.11081395  0.66630374  0.29460493
   0.77748113  0.91631308  0.20540357
   0.44413683  0.16629606  0.29459916
   0.55583811  0.08368640  0.79460317
   0.44414849  0.16630738  0.20540433
   0.55583932  0.08368875  0.70538868
   0.44413371  0.41630261  0.29460773
   0.55583739  0.33368583  0.79460307
   0.44414682  0.41631261  0.20540498
   0.55584100  0.33369031  0.70538888
   0.22251118  0.33369077  0.70538828
   0.11082325  0.41631570  0.20540720
   0.44414605  0.66630683  0.29460147
   0.55583768  0.58368601  0.79460339
   0.44414636  0.66630843  0.20540597
   0.55584202  0.58369162  0.70538886
   0.22250799  0.33368649  0.79460306
   0.11081019  0.41629766  0.29461571
   0.55583784  0.83368609  0.79460356
   0.88917341  0.83368932  0.70538891
Direct configuration=     4
   0.19262172  0.32119069  0.43895065
   0.02606211  0.24917975  0.42838783
   0.20641542  0.30130492  0.47902178
   0.04829389  0.21718280  0.49301875
   0.93676299  0.18451475  0.46174361
   0.01806136  0.50648492  0.44860839
   0.93492579  0.42626890  0.50957896
   0.88049043  0.42548158  0.47111346
   0.10583329  0.50814299  0.51076323
   0.15733486  0.55804818  0.47300621
   0.05141838  0.37008084  0.47148464
   0.80801246  0.12398214  0.46329766
   0.75830207  0.37155138  0.46082024
   0.18265209  0.52792663  0.53559491
   0.86047858  0.37332352  0.53330627
   0.01730994  0.52492564  0.41825345
   0.97618942  0.24533518  0.40014844
   0.29001647  0.38096504  0.42023327
   0.31624674  0.34377618  0.49569648
   0.01788403  0.18462538  0.52225541
   0.27935550  0.62136468  0.46445175
   0.55597112  0.08387525  0.25002917
   0.55598252  0.33387156  0.25002860
   0.44401808  0.41611882  0.74998423
   0.55599185  0.58388407  0.25002183
   0.44401926  0.66611849  0.74998478
   0.55599553  0.83389192  0.25001947
   0.44401167  0.91611325  0.74998579
   0.88932043  0.33388424  0.25002654
   0.77735623  0.16610631  0.74998513
   0.77736092  0.41611426  0.74998442
   0.88932166  0.58388259  0.25002034
   0.77736299  0.66611240  0.74998419
   0.88933427  0.83388899  0.25001783
   0.77735924  0.91610622  0.74998532
   0.11068009  0.91611259  0.74998656
   0.88933325  0.08387404  0.25002278
   0.22264693  0.83389670  0.25002287
   0.44401329  0.16611493  0.74998527
   0.22265514  0.58389945  0.25002725
   0.11068372  0.41611610  0.74998550
   0.22264346  0.33387494  0.25002786
   0.22264568  0.08388799  0.25002784
   0.11068211  0.16611287  0.74998620
   0.11067957  0.66611770  0.74998562
   0.77758512  0.16638764  0.29454265
   0.88910278  0.08360358  0.79451592
   0.77754769  0.16638713  0.20550806
   0.88910465  0.08360699  0.70546283
   0.22244091  0.08361292  0.70546491
   0.11089577  0.16639349  0.20550214
   0.77756446  0.41638859  0.29453285
   0.88910343  0.33360480  0.79451489
   0.11089847  0.66639975  0.20550111
   0.55577609  0.83361593  0.70546459
   0.88910641  0.33361108  0.70546195
   0.22243843  0.08360973  0.79451442
   0.11087123  0.16639024  0.29454375
   0.77755930  0.66639046  0.29452478
   0.88910380  0.58360597  0.79451574
   0.77755844  0.66639076  0.20550106
   0.88910913  0.58361361  0.70546247
   0.77755456  0.91638375  0.29452786
   0.88910302  0.83360392  0.79451638
   0.77755303  0.41638954  0.20550408
   0.44421780  0.91639406  0.20550002
   0.44421051  0.91637960  0.29452795
   0.22244447  0.58361920  0.70546328
   0.22244011  0.58361147  0.79451320
   0.11088993  0.91639013  0.29452875
   0.22243824  0.83361021  0.79451477
   0.11090165  0.91640180  0.20549880
   0.22244209  0.83361601  0.70546440
   0.11088444  0.66638731  0.29453629
   0.77755565  0.91639039  0.20550032
   0.44420032  0.16636770  0.29452729
   0.55577181  0.08361019  0.79451454
   0.44421581  0.16638382  0.20550239
   0.55577336  0.08361316  0.70546501
   0.44419692  0.41637615  0.29453597
   0.55577254  0.33361127  0.79451374
   0.44421780  0.41638687  0.20550372
   0.55577751  0.33361694  0.70546499
   0.22244356  0.33361717  0.70546422
   0.11089765  0.41640038  0.20550567
   0.44422217  0.66639071  0.29452766
   0.55577454  0.58361160  0.79451391
   0.44421786  0.66639044  0.20550101
   0.55577942  0.58361987  0.70546462
   0.22244050  0.33361137  0.79451346
   0.11087851  0.41637258  0.29454909
   0.55577316  0.83361039  0.79451461
   0.88910719  0.83361008  0.70546288
Direct configuration=     5
   0.19244247  0.32083195  0.43902113
   0.02612541  0.24896371  0.42841281
   0.20620060  0.30109891  0.47893069
   0.04835320  0.21696149  0.49296852
   0.93719679  0.18458166  0.46172567
   0.01800145  0.50670068  0.44865790
   0.93500512  0.42659412  0.50952305
   0.88085815  0.42575719  0.47118034
   0.10568050  0.50830947  0.51069961
   0.15685506  0.55794464  0.47308890
   0.05144154  0.37009929  0.47148166
   0.80782427  0.12386165  0.46331873
   0.75809132  0.37150480  0.46081052
   0.18275251  0.52801128  0.53563385
   0.86027965  0.37323514  0.53334641
   0.01730947  0.52501087  0.41824746
   0.97614548  0.24529006  0.40014427
   0.29022793  0.38104207  0.42020459
   0.31645436  0.34379395  0.49571522
   0.01781384  0.18451295  0.52228011
   0.27959594  0.62154113  0.46443816
   0.55604672  0.08396311  0.25003279
   0.55606614  0.33396343  0.25003230
   0.44393812  0.41602954  0.74997957
   0.55607842  0.58397768  0.25002609
   0.44393959  0.66602940  0.74998006
   0.55607593  0.83398086  0.25002502
   0.44393187  0.91602519  0.74998097
   0.88941417  0.33397973  0.25002914
   0.77728235  0.16601728  0.74998087
   0.77728580  0.41602422  0.74998002
   0.88941653  0.58397754  0.25002569
   0.77728856  0.66602264  0.74997933
   0.88942874  0.83398036  0.25002486
   0.77728596  0.91601741  0.74998059
   0.11059483  0.91602389  0.74998082
   0.88942634  0.08396522  0.25002723
   0.22272911  0.83398954  0.25002819
   0.44393330  0.16602598  0.74998060
   0.22273812  0.58399643  0.25002926
   0.11059816  0.41602681  0.74998047
   0.22272894  0.33396852  0.25002974
   0.22273168  0.08397880  0.25003275
   0.11059679  0.16602395  0.74998092
   0.11059426  0.66602872  0.74998021
   0.77753513  0.16634352  0.29458363
   0.88914177  0.08365112  0.79456651
   0.77750917  0.16634401  0.20544866
   0.88914380  0.08365400  0.70541958
   0.22248099  0.08365662  0.70542085
   0.11085267  0.16634774  0.20544642
   0.77752051  0.41634413  0.29457526
   0.88914250  0.33365139  0.79456588
   0.11085417  0.66634845  0.20544655
   0.55581333  0.83365867  0.70542042
   0.88914536  0.33365693  0.70541883
   0.22247883  0.08365405  0.79456587
   0.11083488  0.16634415  0.29458218
   0.77751460  0.66634328  0.29456843
   0.88914266  0.58365215  0.79456650
   0.77751424  0.66634390  0.20544568
   0.88914711  0.58365869  0.70541963
   0.77751170  0.91634049  0.29457155
   0.88914205  0.83365125  0.79456682
   0.77751464  0.41634668  0.20544658
   0.44417906  0.91634741  0.20544436
   0.44417266  0.91633749  0.29457022
   0.22248314  0.58366091  0.70541940
   0.22247943  0.58365456  0.79456532
   0.11084908  0.91634372  0.29456979
   0.22247873  0.83365423  0.79456618
   0.11085665  0.91635152  0.20544424
   0.22248152  0.83365869  0.70542051
   0.11084357  0.66633886  0.29457608
   0.77751244  0.91634557  0.20544423
   0.44416351  0.16632617  0.29456896
   0.55581024  0.08365437  0.79456592
   0.44417678  0.16633950  0.20544554
   0.55581160  0.08365698  0.70542076
   0.44416027  0.41633352  0.29457757
   0.55581013  0.33365450  0.79456553
   0.44417665  0.41634382  0.20544648
   0.55581432  0.33365948  0.70542087
   0.22248276  0.33365984  0.70542020
   0.11085452  0.41635129  0.20544858
   0.44417804  0.66634208  0.29457045
   0.55581114  0.58365474  0.79456578
   0.44417641  0.66634290  0.20544591
   0.55581571  0.58366147  0.70542070
   0.22247962  0.33365492  0.79456540
   0.11083890  0.41632915  0.29458771
   0.55581066  0.83365427  0.79456618
   0.88914558  0.83365602  0.70542000
Direct configuration=     6
   0.19219942  0.32111425  0.43910209
   0.02608018  0.24935580  0.42847607
   0.20596373  0.30133156  0.47891004
   0.04825518  0.21747781  0.49295868
   0.93730865  0.18492141  0.46173552
   0.01812503  0.50621425  0.44865038
   0.93523141  0.42627690  0.50942428
   0.88108745  0.42558272  0.47118801
   0.10566003  0.50795985  0.51060417
   0.15671515  0.55751990  0.47307642
   0.05142071  0.37009006  0.47148672
   0.80776338  0.12390935  0.46328017
   0.75806730  0.37138778  0.46078630
   0.18278219  0.52787397  0.53563016
   0.86044353  0.37321483  0.53334533
   0.01731073  0.52481972  0.41822642
   0.97617126  0.24539992  0.40011956
   0.29014520  0.38112857  0.42019069
   0.31638594  0.34391119  0.49573922
   0.01790954  0.18472676  0.52227258
   0.27965239  0.62144862  0.46442077
   0.55585936  0.08374287  0.25003153
   0.55586159  0.33373595  0.25003066
   0.44413324  0.41625369  0.74998495
   0.55586796  0.58374643  0.25002310
   0.44413412  0.66625310  0.74998552
   0.55587664  0.83375779  0.25001962
   0.44412585  0.91624596  0.74998692
   0.88919588  0.33374747  0.25003010
   0.77746612  0.16623995  0.74998539
   0.77747199  0.41624880  0.74998494
   0.88919612  0.58374736  0.25002103
   0.77747303  0.66624625  0.74998512
   0.88920707  0.83375618  0.25001689
   0.77746935  0.91624013  0.74998609
   0.11079628  0.91624362  0.74998797
   0.88920887  0.08374208  0.25002453
   0.22252773  0.83375943  0.25002326
   0.44412776  0.16624839  0.74998626
   0.22253381  0.58375758  0.25003111
   0.11080013  0.41624763  0.74998619
   0.22252033  0.33373819  0.25003197
   0.22252340  0.08375367  0.25002910
   0.11079828  0.16624413  0.74998720
   0.11079695  0.66624864  0.74998684
   0.77765100  0.16645176  0.29453960
   0.88904724  0.08353490  0.79450334
   0.77760428  0.16645172  0.20552564
   0.88904940  0.08353902  0.70547094
   0.22238445  0.08354801  0.70547357
   0.11095563  0.16646070  0.20551653
   0.77762395  0.41645298  0.29452899
   0.88904765  0.33353727  0.79450189
   0.11096066  0.66647124  0.20551432
   0.55572169  0.83355205  0.70547320
   0.88905118  0.33354423  0.70546990
   0.22238188  0.08354471  0.79450155
   0.11092365  0.16645546  0.29454315
   0.77762084  0.66645846  0.29451958
   0.88904839  0.58353883  0.79450306
   0.77761880  0.66645788  0.20551407
   0.88905494  0.58354755  0.70547011
   0.77761466  0.91644681  0.29452237
   0.88904710  0.83353562  0.79450411
   0.77760754  0.41645119  0.20551977
   0.44427544  0.91646289  0.20551377
   0.44426662  0.91644185  0.29452422
   0.22238952  0.58355619  0.70547185
   0.22238457  0.58354770  0.79449959
   0.11094558  0.91645613  0.29452567
   0.22238146  0.83354522  0.79450192
   0.11096428  0.91647337  0.20551159
   0.22238636  0.83355211  0.70547304
   0.11094159  0.66645675  0.29453443
   0.77761674  0.91645691  0.20551400
   0.44425560  0.16643081  0.29452470
   0.55571619  0.08354472  0.79450166
   0.44427393  0.16644977  0.20551760
   0.55571768  0.08354807  0.70547362
   0.44425354  0.41643981  0.29453258
   0.55571825  0.33354711  0.79450042
   0.44427610  0.41644958  0.20551966
   0.55572363  0.33355334  0.70547346
   0.22238802  0.33355315  0.70547286
   0.11095722  0.41646938  0.20552202
   0.44428636  0.66646102  0.29452360
   0.55572099  0.58354744  0.79450058
   0.44427668  0.66645871  0.20551434
   0.55572590  0.58355722  0.70547292
   0.22238521  0.33354705  0.79449994
   0.11093491  0.41643685  0.29454806
   0.55571867  0.83354517  0.79450163
   0.88905257  0.83354328  0.70547056
Direct configuration=     7
   0.19226946  0.32103290  0.43907876
   0.02609321  0.24924280  0.42845784
   0.20603199  0.30126451  0.47891599
   0.04828343  0.21732902  0.49296152
   0.93727641  0.18482350  0.46173268
   0.01808942  0.50635443  0.44865255
   0.93516619  0.42636832  0.50945274
   0.88102137  0.42563300  0.47118580
   0.10566593  0.50806060  0.51063168
   0.15675547  0.55764231  0.47308002
   0.05142671  0.37009272  0.47148526
   0.80778092  0.12389560  0.46329128
   0.75807422  0.37142151  0.46079328
   0.18277363  0.52791354  0.53563122
   0.86039630  0.37322068  0.53334564
   0.01731037  0.52487481  0.41823248
   0.97616383  0.24536826  0.40012668
   0.29016904  0.38110364  0.42019470
   0.31640566  0.34387740  0.49573231
   0.01788196  0.18466515  0.52227475
   0.27963612  0.62147528  0.46442578
   0.55591335  0.08380634  0.25003189
   0.55592054  0.33380150  0.25003113
   0.44407701  0.41618909  0.74998340
   0.55592861  0.58381307  0.25002396
   0.44407806  0.66618863  0.74998395
   0.55593407  0.83382208  0.25002117
   0.44406995  0.91618234  0.74998521
   0.88925879  0.33381440  0.25002982
   0.77741316  0.16617578  0.74998409
   0.77741834  0.41618408  0.74998352
   0.88925964  0.58381369  0.25002237
   0.77741987  0.66618181  0.74998346
   0.88927095  0.83382078  0.25001919
   0.77741650  0.91617594  0.74998450
   0.11073822  0.91618030  0.74998591
   0.88927155  0.08380638  0.25002531
   0.22258576  0.83382575  0.25002468
   0.44407172  0.16618429  0.74998463
   0.22259269  0.58382641  0.25003058
   0.11074192  0.41618400  0.74998454
   0.22258045  0.33380457  0.25003133
   0.22258342  0.08381855  0.25003015
   0.11074021  0.16618068  0.74998539
   0.11073854  0.66618527  0.74998493
   0.77761761  0.16642056  0.29455229
   0.88907448  0.08356840  0.79452155
   0.77757687  0.16642068  0.20550345
   0.88907660  0.08357215  0.70545614
   0.22241227  0.08357931  0.70545838
   0.11092596  0.16642815  0.20549632
   0.77759414  0.41642162  0.29454232
   0.88907499  0.33357016  0.79452033
   0.11092997  0.66643585  0.20549479
   0.55574810  0.83358278  0.70545799
   0.88907832  0.33357671  0.70545518
   0.22240982  0.08357622  0.79452009
   0.11089807  0.16642338  0.29455440
   0.77759022  0.66642527  0.29453366
   0.88907556  0.58357149  0.79452134
   0.77758867  0.66642503  0.20549436
   0.88908150  0.58357958  0.70545556
   0.77758499  0.91641617  0.29453654
   0.88907446  0.83356895  0.79452218
   0.77758077  0.41642107  0.20549868
   0.44424766  0.91642961  0.20549377
   0.44423955  0.91641178  0.29453747
   0.22241650  0.58358637  0.70545674
   0.22241191  0.58357850  0.79451853
   0.11091777  0.91642373  0.29453839
   0.22240949  0.83357664  0.79452044
   0.11093326  0.91643826  0.20549218
   0.22241378  0.83358282  0.70545790
   0.11091334  0.66642278  0.29454643
   0.77758669  0.91642482  0.20549389
   0.44422906  0.16640066  0.29453745
   0.55574330  0.08357632  0.79452018
   0.44424593  0.16641799  0.20549683
   0.55574475  0.08357946  0.70545839
   0.44422667  0.41640918  0.29454555
   0.55574473  0.33357805  0.79451918
   0.44424744  0.41641910  0.20549857
   0.55574977  0.33358393  0.70545830
   0.22241533  0.33358390  0.70545768
   0.11092762  0.41643535  0.20550085
   0.44425515  0.66642674  0.29453710
   0.55574697  0.58357836  0.79451937
   0.44424778  0.66642533  0.20549462
   0.55575178  0.58358726  0.70545787
   0.22241242  0.33357814  0.79451880
   0.11090724  0.41640581  0.29455949
   0.55574518  0.83357661  0.79452023
   0.88907937  0.83357577  0.70545599
Direct configuration=     8
   0.19226383  0.32126833  0.43910797
   0.02590798  0.24941681  0.42843292
   0.20603867  0.30149749  0.47891435
   0.04816247  0.21752427  0.49300711
   0.93724319  0.18501852  0.46172187
   0.01809300  0.50611790  0.44857649
   0.93517307  0.42613025  0.50942723
   0.88106648  0.42545926  0.47117010
   0.10587759  0.50793583  0.51061416
   0.15677334  0.55741008  0.47308233
   0.05141553  0.37009227  0.47148126
   0.80762881  0.12389868  0.46327078
   0.75798475  0.37128716  0.46076916
   0.18279229  0.52779130  0.53562240
   0.86045706  0.37313088  0.53335782
   0.01732076  0.52469929  0.41822239
   0.97619616  0.24547936  0.40012724
   0.29017106  0.38123658  0.42017779
   0.31641421  0.34400389  0.49575979
   0.01791519  0.18483352  0.52228314
   0.27978911  0.62144241  0.46440177
   0.55591976  0.08380055  0.25004545
   0.55592553  0.33379457  0.25004422
   0.44406464  0.41619542  0.74997619
   0.55593676  0.58380924  0.25003532
   0.44406577  0.66619506  0.74997686
   0.55594069  0.83381781  0.25003196
   0.44405640  0.91618782  0.74997849
   0.88927498  0.33381539  0.25004444
   0.77739970  0.16617474  0.74997760
   0.77740529  0.41618450  0.74997686
   0.88927765  0.58381745  0.25003454
   0.77740732  0.66618175  0.74997652
   0.88928866  0.83382352  0.25003055
   0.77740366  0.91617473  0.74997791
   0.11071760  0.91617859  0.74997877
   0.88928832  0.08380613  0.25003892
   0.22259278  0.83382698  0.25003719
   0.44405815  0.16618994  0.74997778
   0.22259858  0.58382744  0.25004413
   0.11072222  0.41618330  0.74997706
   0.22258425  0.33380256  0.25004541
   0.22258892  0.08381865  0.25004402
   0.11072017  0.16617866  0.74997821
   0.11071838  0.66618475  0.74997742
   0.77761466  0.16641703  0.29455865
   0.88908280  0.08356584  0.79451814
   0.77756851  0.16642141  0.20550447
   0.88908739  0.08357059  0.70546220
   0.22242279  0.08357948  0.70546437
   0.11091942  0.16643127  0.20549661
   0.77758532  0.41642031  0.29454698
   0.88908347  0.33356828  0.79451659
   0.11092612  0.66643663  0.20549461
   0.55575931  0.83358460  0.70546330
   0.88908891  0.33357657  0.70546095
   0.22242107  0.08357597  0.79451756
   0.11088306  0.16641951  0.29456059
   0.77758339  0.66642707  0.29453596
   0.88908434  0.58356955  0.79451801
   0.77757830  0.66642405  0.20549192
   0.88909353  0.58358037  0.70546140
   0.77757666  0.91641255  0.29453898
   0.88908246  0.83356638  0.79451926
   0.77756852  0.41641591  0.20549898
   0.44424187  0.91643359  0.20549278
   0.44422999  0.91640695  0.29454116
   0.22242846  0.58358875  0.70546240
   0.22242383  0.58357838  0.79451561
   0.11090477  0.91642132  0.29454099
   0.22242057  0.83357560  0.79451808
   0.11093001  0.91644334  0.20549050
   0.22242488  0.83358391  0.70546387
   0.11090198  0.66642368  0.29455082
   0.77757956  0.91642777  0.20549120
   0.44421755  0.16639642  0.29454255
   0.55575316  0.08357603  0.79451732
   0.44423958  0.16641794  0.20549759
   0.55575408  0.08357949  0.70546371
   0.44421806  0.41640664  0.29455088
   0.55575563  0.33357910  0.79451598
   0.44423657  0.41641392  0.20550006
   0.55576132  0.33358580  0.70546355
   0.22242679  0.33358476  0.70546341
   0.11091979  0.41643560  0.20550340
   0.44425416  0.66643044  0.29454122
   0.55575742  0.58357895  0.79451637
   0.44423786  0.66642474  0.20549395
   0.55576388  0.58359025  0.70546294
   0.22242438  0.33357804  0.79451583
   0.11089555  0.41640204  0.29456675
   0.55575541  0.83357635  0.79451749
   0.88909088  0.83357573  0.70546199
Direct configuration=     9
   0.19226037  0.32141303  0.43912593
   0.02579412  0.24952377  0.42841760
   0.20604278  0.30164068  0.47891334
   0.04808812  0.21764428  0.49303514
   0.93722276  0.18513839  0.46171522
   0.01809520  0.50597251  0.44852974
   0.93517730  0.42598393  0.50941155
   0.88109420  0.42535247  0.47116045
   0.10600769  0.50785914  0.51060339
   0.15678433  0.55726734  0.47308375
   0.05140866  0.37009199  0.47147881
   0.80753531  0.12390058  0.46325818
   0.75792975  0.37120458  0.46075433
   0.18280375  0.52771617  0.53561698
   0.86049441  0.37307569  0.53336530
   0.01732714  0.52459140  0.41821618
   0.97621604  0.24554765  0.40012758
   0.29017230  0.38131829  0.42016739
   0.31641947  0.34408164  0.49577669
   0.01793562  0.18493701  0.52228831
   0.27988315  0.62142221  0.46438702
   0.55592370  0.08379698  0.25005378
   0.55592859  0.33379031  0.25005226
   0.44405703  0.41619931  0.74997175
   0.55594177  0.58380688  0.25004230
   0.44405822  0.66619902  0.74997250
   0.55594477  0.83381519  0.25003859
   0.44404808  0.91619119  0.74997436
   0.88928493  0.33381601  0.25005343
   0.77739143  0.16617409  0.74997361
   0.77739727  0.41618476  0.74997277
   0.88928872  0.58381975  0.25004202
   0.77739961  0.66618171  0.74997226