 171 171   0   0
  0.4145774E+02  0.1590000E-08  0.1590000E-08  0.3238000E-08  0.5000000E-15
  1.000000000000000E-004
  CAR 
 basalPlane                              
      2.30452556    -19.03621187  301      0.25256803      1.00000000
    -19.036  0.0000E+00  0.0000E+00
    -18.965  0.0000E+00  0.0000E+00
    -18.894  0.0000E+00  0.0000E+00
    -18.823  0.0000E+00  0.0000E+00
    -18.752  0.0000E+00  0.0000E+00
    -18.681  0.0000E+00  0.0000E+00
    -18.609  0.7804E-18  0.5551E-19
    -18.538  0.1752E-14  0.1247E-15
    -18.467  0.1546E-11  0.1101E-12
    -18.396  0.5071E-09  0.3618E-10
    -18.325  0.6225E-07  0.4465E-08
    -18.254  0.2886E-05  0.2098E-06
    -18.183  0.5111E-04  0.3845E-05
    -18.111  0.3499E-03  0.2873E-04
    -18.040  0.9369E-03  0.9538E-04
    -17.969  0.9885E-03  0.1657E-03
    -17.898  0.4129E-03  0.1951E-03
    -17.827  0.1035E-03  0.2024E-03
    -17.756  0.2890E-03  0.2230E-03
    -17.685  0.8658E-03  0.2846E-03
    -17.613  0.1036E-02  0.3583E-03
    -17.542  0.4891E-03  0.3931E-03
    -17.471  0.9052E-04  0.3995E-03
    -17.400  0.6497E-05  0.4000E-03
    -17.329  0.1786E-06  0.4000E-03
    -17.258  0.1860E-08  0.4000E-03
    -17.187  0.7261E-11  0.4000E-03
    -17.116  0.1056E-13  0.4000E-03
    -17.044  0.5619E-17  0.4000E-03
    -16.973  0.0000E+00  0.4000E-03
    -16.902  0.0000E+00  0.4000E-03
    -16.831  0.0000E+00  0.4000E-03
    -16.760  0.0000E+00  0.4000E-03
    -16.689  0.0000E+00  0.4000E-03
    -16.618  0.0000E+00  0.4000E-03
    -16.546  0.0000E+00  0.4000E-03
    -16.475  0.0000E+00  0.4000E-03
    -16.404  0.0000E+00  0.4000E-03
    -16.333  0.0000E+00  0.4000E-03
    -16.262  0.0000E+00  0.4000E-03
    -16.191  0.2107E-16  0.4000E-03
    -16.120  0.3546E-13  0.4000E-03
    -16.049  0.2220E-10  0.4000E-03
    -15.977  0.5210E-08  0.4000E-03
    -15.906  0.4618E-06  0.4000E-03
    -15.835  0.1561E-04  0.4011E-03
    -15.764  0.2037E-03  0.4156E-03
    -15.693  0.1039E-02  0.4895E-03
    -15.622  0.2092E-02  0.6384E-03
    -15.551  0.1673E-02  0.7574E-03
    -15.479  0.5302E-03  0.7951E-03
    -15.408  0.6642E-04  0.7998E-03
    -15.337  0.2274E-04  0.8014E-03
    -15.266  0.4005E-03  0.8299E-03
    -15.195  0.3195E-02  0.1057E-02
    -15.124  0.1005E-01  0.1772E-02
    -15.053  0.1254E-01  0.2664E-02
    -14.981  0.6222E-02  0.3106E-02
    -14.910  0.1220E-02  0.3193E-02
    -14.839  0.9359E-04  0.3200E-02
    -14.768  0.2773E-05  0.3200E-02
    -14.697  0.2697E-06  0.3200E-02
    -14.626  0.9410E-05  0.3201E-02
    -14.555  0.1449E-03  0.3211E-02
    -14.484  0.9294E-03  0.3277E-02
    -14.412  0.3117E-02  0.3499E-02
    -14.341  0.8011E-02  0.4069E-02
    -14.270  0.1526E-01  0.5154E-02
    -14.199  0.1920E-01  0.6520E-02
    -14.128  0.1984E-01  0.7931E-02
    -14.057  0.1889E-01  0.9275E-02
    -13.986  0.1437E-01  0.1030E-01
    -13.914  0.6779E-02  0.1078E-01
    -13.843  0.6487E-02  0.1124E-01
    -13.772  0.1688E-01  0.1244E-01
    -13.701  0.2937E-01  0.1453E-01
    -13.630  0.3073E-01  0.1672E-01
    -13.559  0.2051E-01  0.1818E-01
    -13.488  0.1760E-01  0.1943E-01
    -13.416  0.1616E-01  0.2058E-01
    -13.345  0.7276E-02  0.2110E-01
    -13.274  0.1366E-02  0.2119E-01
    -13.203  0.1048E-03  0.2120E-01
    -13.132  0.3265E-05  0.2120E-01
    -13.061  0.4098E-07  0.2120E-01
    -12.990  0.2055E-09  0.2120E-01
    -12.919  0.4064E-12  0.2120E-01
    -12.847  0.3125E-15  0.2120E-01
    -12.776  0.0000E+00  0.2120E-01
    -12.705  0.0000E+00  0.2120E-01
    -12.634  0.0000E+00  0.2120E-01
    -12.563  0.0000E+00  0.2120E-01
    -12.492  0.0000E+00  0.2120E-01
    -12.421  0.0000E+00  0.2120E-01
    -12.349  0.0000E+00  0.2120E-01
    -12.278  0.0000E+00  0.2120E-01
    -12.207  0.0000E+00  0.2120E-01
    -12.136  0.0000E+00  0.2120E-01
    -12.065  0.0000E+00  0.2120E-01
    -11.994  0.0000E+00  0.2120E-01
    -11.923  0.0000E+00  0.2120E-01
    -11.851  0.0000E+00  0.2120E-01
    -11.780  0.0000E+00  0.2120E-01
    -11.709  0.0000E+00  0.2120E-01
    -11.638  0.0000E+00  0.2120E-01
    -11.567  0.0000E+00  0.2120E-01
    -11.496  0.0000E+00  0.2120E-01
    -11.425  0.0000E+00  0.2120E-01
    -11.354  0.0000E+00  0.2120E-01
    -11.282  0.0000E+00  0.2120E-01
    -11.211  0.0000E+00  0.2120E-01
    -11.140  0.0000E+00  0.2120E-01
    -11.069  0.0000E+00  0.2120E-01
    -10.998  0.0000E+00  0.2120E-01
    -10.927  0.0000E+00  0.2120E-01
    -10.856  0.0000E+00  0.2120E-01
    -10.784  0.0000E+00  0.2120E-01
    -10.713  0.0000E+00  0.2120E-01
    -10.642  0.0000E+00  0.2120E-01
    -10.571  0.0000E+00  0.2120E-01
    -10.500  0.0000E+00  0.2120E-01
    -10.429  0.0000E+00  0.2120E-01
    -10.358  0.0000E+00  0.2120E-01
    -10.287  0.0000E+00  0.2120E-01
    -10.215  0.0000E+00  0.2120E-01
    -10.144  0.0000E+00  0.2120E-01
    -10.073  0.0000E+00  0.2120E-01
    -10.002  0.0000E+00  0.2120E-01
     -9.931  0.4682E-18  0.2120E-01
     -9.860  0.1188E-14  0.2120E-01
     -9.789  0.1110E-11  0.2120E-01
     -9.717  0.3872E-09  0.2120E-01
     -9.646  0.5093E-07  0.2120E-01
     -9.575  0.2569E-05  0.2120E-01
     -9.504  0.5089E-04  0.2120E-01
     -9.433  0.4095E-03  0.2123E-01
     -9.362  0.1403E-02  0.2133E-01
     -9.291  0.2268E-02  0.2149E-01
     -9.219  0.2456E-02  0.2167E-01
     -9.148  0.2748E-02  0.2186E-01
     -9.077  0.2495E-02  0.2204E-01
     -9.006  0.1543E-02  0.2215E-01
     -8.935  0.6350E-03  0.2220E-01
     -8.864  0.4866E-03  0.2223E-01
     -8.793  0.9747E-03  0.2230E-01
     -8.722  0.9605E-03  0.2237E-01
     -8.650  0.3758E-03  0.2240E-01
     -8.579  0.5754E-04  0.2240E-01
     -8.508  0.3409E-05  0.2240E-01
     -8.437  0.7716E-07  0.2240E-01
     -8.366  0.6599E-09  0.2240E-01
     -8.295  0.2114E-11  0.2240E-01
     -8.224  0.2517E-14  0.2240E-01
     -8.152  0.1249E-17  0.2240E-01
     -8.081  0.0000E+00  0.2240E-01
     -8.010  0.0000E+00  0.2240E-01
     -7.939  0.0000E+00  0.2240E-01
     -7.868  0.0000E+00  0.2240E-01
     -7.797  0.0000E+00  0.2240E-01
     -7.726  0.4214E-17  0.2240E-01
     -7.654  0.8841E-14  0.2240E-01
     -7.583  0.6756E-11  0.2240E-01
     -7.512  0.1958E-08  0.2240E-01
     -7.441  0.2202E-06  0.2240E-01
     -7.370  0.1001E-04  0.2240E-01
     -7.299  0.1956E-03  0.2241E-01
     -7.228  0.1751E-02  0.2254E-01
     -7.157  0.7341E-02  0.2306E-01
     -7.085  0.1400E-01  0.2406E-01
     -7.014  0.1155E-01  0.2488E-01
     -6.943  0.4215E-02  0.2518E-01
     -6.872  0.3440E-02  0.2542E-01
     -6.801  0.1327E-01  0.2637E-01
     -6.730  0.2807E-01  0.2836E-01
     -6.659  0.3456E-01  0.3082E-01
     -6.587  0.3154E-01  0.3307E-01
     -6.516  0.1845E-01  0.3438E-01
     -6.445  0.5252E-02  0.3475E-01
     -6.374  0.6445E-03  0.3480E-01
     -6.303  0.1645E-03  0.3481E-01
     -6.232  0.1548E-02  0.3492E-01
     -6.161  0.7161E-02  0.3543E-01
     -6.089  0.1339E-01  0.3638E-01
     -6.018  0.1037E-01  0.3712E-01
     -5.947  0.3701E-02  0.3738E-01
     -5.876  0.2650E-02  0.3757E-01
     -5.805  0.8051E-02  0.3814E-01
     -5.734  0.1425E-01  0.3916E-01
     -5.663  0.1277E-01  0.4007E-01
     -5.592  0.1297E-01  0.4099E-01
     -5.520  0.2264E-01  0.4260E-01
     -5.449  0.2451E-01  0.4434E-01
     -5.378  0.1408E-01  0.4534E-01
     -5.307  0.1085E-01  0.4612E-01
     -5.236  0.1558E-01  0.4722E-01
     -5.165  0.1797E-01  0.4850E-01
     -5.094  0.1833E-01  0.4981E-01
     -5.022  0.1257E-01  0.5070E-01
     -4.951  0.8278E-02  0.5129E-01
     -4.880  0.1270E-01  0.5219E-01
     -4.809  0.1611E-01  0.5334E-01
     -4.738  0.1904E-01  0.5469E-01
     -4.667  0.2885E-01  0.5675E-01
     -4.596  0.3145E-01  0.5898E-01
     -4.525  0.1905E-01  0.6034E-01
     -4.453  0.5907E-02  0.6076E-01
     -4.382  0.2903E-02  0.6097E-01
     -4.311  0.8611E-02  0.6158E-01
     -4.240  0.1440E-01  0.6260E-01
     -4.169  0.1176E-01  0.6344E-01
     -4.098  0.5839E-02  0.6385E-01
     -4.027  0.1793E-02  0.6398E-01
     -3.955  0.7626E-03  0.6404E-01
     -3.884  0.4678E-02  0.6437E-01
     -3.813  0.1728E-01  0.6560E-01
     -3.742  0.2626E-01  0.6747E-01
     -3.671  0.1974E-01  0.6887E-01
     -3.600  0.1690E-01  0.7007E-01
     -3.529  0.2044E-01  0.7153E-01
     -3.457  0.1955E-01  0.7292E-01
     -3.386  0.1677E-01  0.7411E-01
     -3.315  0.1677E-01  0.7530E-01
     -3.244  0.1148E-01  0.7612E-01
     -3.173  0.3917E-02  0.7640E-01
     -3.102  0.2519E-02  0.7658E-01
     -3.031  0.4225E-02  0.7688E-01
     -2.960  0.3683E-02  0.7714E-01
     -2.888  0.4022E-02  0.7743E-01
     -2.817  0.1138E-01  0.7824E-01
     -2.746  0.2221E-01  0.7982E-01
     -2.675  0.2938E-01  0.8191E-01
     -2.604  0.2574E-01  0.8374E-01
     -2.533  0.1375E-01  0.8471E-01
     -2.462  0.1118E-01  0.8551E-01
     -2.390  0.1906E-01  0.8687E-01
     -2.319  0.2141E-01  0.8839E-01
     -2.248  0.1296E-01  0.8931E-01
     -2.177  0.4803E-02  0.8965E-01
     -2.106  0.5957E-02  0.9008E-01
     -2.035  0.1289E-01  0.9099E-01
     -1.964  0.1364E-01  0.9196E-01
     -1.892  0.9264E-02  0.9262E-01
     -1.821  0.1159E-01  0.9345E-01
     -1.750  0.1238E-01  0.9433E-01
     -1.679  0.6082E-02  0.9476E-01
     -1.608  0.2603E-02  0.9495E-01
     -1.537  0.2198E-02  0.9510E-01
     -1.466  0.1125E-02  0.9518E-01
     -1.395  0.2334E-03  0.9520E-01
     -1.323  0.1888E-04  0.9520E-01
     -1.252  0.5876E-06  0.9520E-01
     -1.181  0.6950E-08  0.9520E-01
     -1.110  0.3095E-10  0.9520E-01
     -1.039  0.5148E-13  0.9520E-01
     -0.968  0.3153E-16  0.9520E-01
     -0.897  0.0000E+00  0.9520E-01
     -0.825  0.0000E+00  0.9520E-01
     -0.754  0.0000E+00  0.9520E-01
     -0.683  0.0000E+00  0.9520E-01
     -0.612  0.0000E+00  0.9520E-01
     -0.541  0.2247E-16  0.9520E-01
     -0.470  0.3516E-13  0.9520E-01
     -0.399  0.2037E-10  0.9520E-01
     -0.327  0.4400E-08  0.9520E-01
     -0.256  0.3569E-06  0.9520E-01
     -0.185  0.1098E-04  0.9520E-01
     -0.114  0.1297E-03  0.9521E-01
     -0.043  0.5957E-03  0.9525E-01
      0.028  0.1079E-02  0.9533E-01
      0.099  0.8473E-03  0.9539E-01
      0.170  0.7940E-03  0.9545E-01
      0.242  0.1775E-02  0.9557E-01
      0.313  0.3522E-02  0.9582E-01
      0.384  0.1050E-01  0.9657E-01
      0.455  0.2400E-01  0.9828E-01
      0.526  0.2721E-01  0.1002E+00
      0.597  0.2548E-01  0.1020E+00
      0.668  0.2693E-01  0.1039E+00
      0.740  0.1614E-01  0.1051E+00
      0.811  0.5667E-02  0.1055E+00
      0.882  0.1199E-01  0.1063E+00
      0.953  0.3289E-01  0.1087E+00
      1.024  0.3972E-01  0.1115E+00
      1.095  0.2689E-01  0.1134E+00
      1.166  0.1743E-01  0.1147E+00
      1.237  0.1262E-01  0.1156E+00
      1.309  0.1074E-01  0.1163E+00
      1.380  0.6952E-02  0.1168E+00
      1.451  0.2221E-02  0.1170E+00
      1.522  0.3009E-03  0.1170E+00
      1.593  0.1629E-04  0.1170E+00
      1.664  0.3410E-06  0.1170E+00
      1.735  0.2711E-08  0.1170E+00
      1.807  0.8082E-11  0.1170E+00
      1.878  0.8966E-14  0.1170E+00
      1.949  0.3746E-17  0.1170E+00
      2.020  0.0000E+00  0.1170E+00
      2.091  0.0000E+00  0.1170E+00
      2.162  0.0000E+00  0.1170E+00
      2.233  0.0000E+00  0.1170E+00
      2.305  0.0000E+00  0.1170E+00
