 running on   52 total cores
 distrk:  each k-point on   52 cores,    1 groups
 distr:  one band on    4 cores,   13 groups
 using from now: INCAR     
 vasp.5.4.4.18Apr17-6-g9f103f2a35 (build Oct 28 2020 13:00:36) gamma-only       
  
 POSCAR found :  5 types and     171 ions
 scaLAPACK will be used
 LDA part: xc-table for Pade appr. of Perdew
 POSCAR, INCAR and KPOINTS ok, starting setup
 FFT: planning ...
 WAVECAR not read
 entering main loop
       N       E                     dE             d eps       ncg     rms          rms(c)
DAV:   1     0.776710588773E+04    0.77671E+04   -0.36226E+05  1170   0.112E+03
DAV:   2    -0.219712772739E+03   -0.79868E+04   -0.77450E+04  1586   0.269E+02
DAV:   3    -0.125964663059E+04   -0.10399E+04   -0.10245E+04  1391   0.104E+02
DAV:   4    -0.132125896770E+04   -0.61612E+02   -0.61268E+02  1794   0.307E+01
DAV:   5    -0.132320103975E+04   -0.19421E+01   -0.19322E+01  1794   0.473E+00    0.169E+02
DAV:   6    -0.127683691573E+04    0.46364E+02   -0.93998E+02  1612   0.270E+01    0.918E+01
DAV:   7    -0.129687890258E+04   -0.20042E+02   -0.12163E+03  1729   0.438E+01    0.549E+01
DAV:   8    -0.123340802241E+04    0.63471E+02   -0.69367E+01  1456   0.761E+00    0.314E+01
DAV:   9    -0.124132838879E+04   -0.79204E+01   -0.20043E+02  1703   0.862E+00    0.411E+01
DAV:  10    -0.121825587209E+04    0.23073E+02   -0.13293E+02  1820   0.156E+01    0.220E+01
DAV:  11    -0.122058654547E+04   -0.23307E+01   -0.35927E+01  1586   0.230E+00    0.149E+01
DAV:  12    -0.122050194670E+04    0.84599E-01   -0.72452E+00  1755   0.109E+00    0.164E+01
DAV:  13    -0.122385509026E+04   -0.33531E+01   -0.38241E+01  1664   0.969E-01    0.159E+01
DAV:  14    -0.122400233811E+04   -0.14725E+00   -0.16874E+00  1651   0.342E-01    0.152E+01
DAV:  15    -0.122351281954E+04    0.48952E+00   -0.56890E+00  1859   0.156E+00    0.152E+01
DAV:  16    -0.122407633859E+04   -0.56352E+00   -0.46329E+00  1664   0.711E-01    0.175E+01
DAV:  17    -0.122389571891E+04    0.18062E+00   -0.73541E-02  1612   0.235E-01    0.171E+01
DAV:  18    -0.122416483260E+04   -0.26911E+00   -0.64484E-02  1664   0.188E-01    0.174E+01
DAV:  19    -0.122395331063E+04    0.21152E+00   -0.72459E-01  1469   0.832E-01    0.134E+01
DAV:  20    -0.124640588697E+04   -0.22453E+02   -0.38563E+01  1508   0.175E+00    0.433E+01
DAV:  21    -0.123795606221E+04    0.84498E+01   -0.26169E+00  1456   0.801E-01    0.309E+01
DAV:  22    -0.123412200472E+04    0.38341E+01   -0.15790E+00  1664   0.466E-01    0.252E+01
DAV:  23    -0.123323727571E+04    0.88473E+00   -0.38277E-01  1573   0.226E-01    0.250E+01
DAV:  24    -0.123201045063E+04    0.12268E+01   -0.25295E+00  1573   0.275E-01    0.221E+01
DAV:  25    -0.123047319864E+04    0.15373E+01   -0.10956E+00  1664   0.436E-01    0.217E+01
DAV:  26    -0.122990403651E+04    0.56916E+00   -0.26736E-01  1599   0.373E-01    0.180E+01
DAV:  27    -0.122936854452E+04    0.53549E+00   -0.97767E-01  1534   0.261E-01    0.182E+01
DAV:  28    -0.122921284318E+04    0.15570E+00   -0.26993E-01  1573   0.131E-01    0.171E+01
DAV:  29    -0.122838595884E+04    0.82688E+00   -0.50487E-01  1586   0.205E-01    0.181E+01
DAV:  30    -0.122603292251E+04    0.23530E+01   -0.13187E+00  1599   0.487E-01    0.153E+01
DAV:  31    -0.122420441239E+04    0.18285E+01   -0.93177E+00  1534   0.467E-01    0.716E+00
DAV:  32    -0.122393118159E+04    0.27323E+00   -0.79045E-01  1638   0.373E-01    0.678E+00
DAV:  33    -0.122383494829E+04    0.96233E-01   -0.59760E-01  1651   0.201E-01    0.542E+00
DAV:  34    -0.122380508169E+04    0.29867E-01   -0.34025E-01  1612   0.175E-01    0.675E+00
DAV:  35    -0.122361611736E+04    0.18896E+00   -0.27658E-01  1612   0.246E-01    0.458E+00
DAV:  36    -0.122350758205E+04    0.10854E+00   -0.29141E-01  1560   0.308E-01    0.455E+00
DAV:  37    -0.122341499638E+04    0.92586E-01   -0.17060E-01  1664   0.272E-01    0.438E+00
DAV:  38    -0.122326164366E+04    0.15335E+00   -0.27951E-01  1599   0.310E-01    0.396E+00
DAV:  39    -0.122318365281E+04    0.77991E-01   -0.10547E-01  1638   0.202E-01    0.286E+00
DAV:  40    -0.122311673685E+04    0.66916E-01   -0.77231E-02  1599   0.155E-01    0.309E+00
DAV:  41    -0.122306221593E+04    0.54521E-01   -0.78206E-02  1586   0.153E-01    0.226E+00
DAV:  42    -0.122298918051E+04    0.73035E-01   -0.51026E-02  1586   0.215E-01    0.201E+00
DAV:  43    -0.122295957349E+04    0.29607E-01   -0.35533E-02  1742   0.142E-01    0.179E+00
DAV:  44    -0.122295373017E+04    0.58433E-02   -0.27943E-03  1456   0.531E-02    0.170E+00
DAV:  45    -0.122295189982E+04    0.18304E-02   -0.15866E-03  1339   0.338E-02    0.162E+00
DAV:  46    -0.122293973005E+04    0.12170E-01   -0.31968E-03  1612   0.547E-02    0.161E+00
DAV:  47    -0.122292339613E+04    0.16334E-01   -0.24012E-02  1690   0.154E-01    0.212E+00
DAV:  48    -0.122290164790E+04    0.21748E-01   -0.10542E-02  1547   0.117E-01    0.145E+00
DAV:  49    -0.122289460808E+04    0.70398E-02   -0.36340E-03  1768   0.631E-02    0.136E+00
DAV:  50    -0.122289373004E+04    0.87804E-03   -0.40089E-04  1040   0.199E-02    0.134E+00
DAV:  51    -0.122286078611E+04    0.32944E-01   -0.27215E-02  1521   0.174E-01    0.172E+00
DAV:  52    -0.122285751292E+04    0.32732E-02   -0.47232E-03  1534   0.667E-02    0.165E+00
DAV:  53    -0.122285247434E+04    0.50386E-02   -0.35583E-03  1703   0.934E-02    0.156E+00
DAV:  54    -0.122285048059E+04    0.19938E-02   -0.67815E-03  1560   0.109E-01    0.148E+00
DAV:  55    -0.122284610353E+04    0.43771E-02   -0.37994E-03  1651   0.704E-02    0.138E+00
DAV:  56    -0.122285024645E+04   -0.41429E-02   -0.11146E-02  1664   0.156E-01    0.123E+00
DAV:  57    -0.122284734480E+04    0.29016E-02   -0.51255E-03  1638   0.839E-02    0.111E+00
DAV:  58    -0.122284146904E+04    0.58758E-02   -0.30938E-03  1560   0.553E-02    0.991E-01
DAV:  59    -0.122283685590E+04    0.46131E-02   -0.13349E-03  1404   0.341E-02    0.961E-01
DAV:  60    -0.122283367062E+04    0.31853E-02   -0.57346E-04  1105   0.197E-02    0.916E-01
DAV:  61    -0.122282993789E+04    0.37327E-02   -0.53432E-04  1274   0.248E-02    0.919E-01
DAV:  62    -0.122282486465E+04    0.50732E-02   -0.75685E-04  1209   0.258E-02    0.850E-01
DAV:  63    -0.122281968844E+04    0.51762E-02   -0.67514E-04  1300   0.287E-02    0.791E-01
DAV:  64    -0.122281689813E+04    0.27903E-02   -0.26004E-04  1027   0.151E-02    0.715E-01
DAV:  65    -0.122281335938E+04    0.35388E-02   -0.39482E-04  1118   0.204E-02    0.565E-01
DAV:  66    -0.122281255713E+04    0.80225E-03   -0.27702E-03  1469   0.434E-02    0.813E-01
DAV:  67    -0.122281074672E+04    0.18104E-02   -0.70253E-04  1170   0.257E-02    0.201E-01
DAV:  68    -0.122281064946E+04    0.97260E-04   -0.23916E-04   936   0.137E-02
   1 F= -.12530064E+04 E0= -.12529353E+04  d E =-.125301E+04
 curvature:   0.00 expect dE= 0.000E+00 dE for cont linesearch  0.000E+00
 trial: gam= 0.00000 g(F)=  0.165E+01 g(S)=  0.000E+00 ort = 0.000E+00 (trialstep = 0.100E+01)
 search vector abs. value=  0.165E+01
 bond charge predicted
       N       E                     dE             d eps       ncg     rms          rms(c)
DAV:   1    -0.122321790615E+04   -0.40716E+00   -0.89349E+01  1248   0.907E+00    0.907E+00
DAV:   2    -0.122390892747E+04   -0.69102E+00   -0.69941E+00  1430   0.283E+00    0.118E+01
DAV:   3    -0.122541498300E+04   -0.15061E+01   -0.18121E+01  1586   0.181E+00    0.178E+01
DAV:   4    -0.122377138934E+04    0.16436E+01   -0.30361E+01  1664   0.187E+00    0.458E+00
DAV:   5    -0.122379230212E+04   -0.20913E-01   -0.30402E+00  1677   0.894E-01    0.499E+00
DAV:   6    -0.122396350126E+04   -0.17120E+00   -0.28588E+00  1677   0.424E-01    0.928E+00
DAV:   7    -0.122371380682E+04    0.24969E+00   -0.13693E+00  1612   0.663E-01    0.136E+00
DAV:   8    -0.122365982622E+04    0.53981E-01   -0.63899E-02  1443   0.271E-01    0.997E-01
DAV:   9    -0.122366494137E+04   -0.51151E-02   -0.13012E-02  1690   0.997E-02    0.123E+00
DAV:  10    -0.122365495338E+04    0.99880E-02   -0.51908E-03  1391   0.566E-02    0.707E-01
DAV:  11    -0.122365367193E+04    0.12815E-02   -0.39313E-03  1365   0.393E-02    0.999E-01
DAV:  12    -0.122364655595E+04    0.71160E-02   -0.60355E-03  1274   0.353E-02    0.628E-01
DAV:  13    -0.122363914190E+04    0.74141E-02   -0.62204E-03  1404   0.430E-02    0.612E-01
DAV:  14    -0.122363651809E+04    0.26238E-02   -0.32052E-03  1326   0.264E-02    0.469E-01
DAV:  15    -0.122363660964E+04   -0.91551E-04   -0.13606E-03   962   0.129E-02    0.543E-01
DAV:  16    -0.122363508463E+04    0.15250E-02   -0.15629E-03   884   0.113E-02    0.486E-01
DAV:  17    -0.122363493490E+04    0.14974E-03   -0.30758E-04   806   0.765E-03    0.531E-01
DAV:  18    -0.122363157214E+04    0.33628E-02   -0.71153E-03  1378   0.289E-02    0.755E-01
DAV:  19    -0.122362928707E+04    0.22851E-02   -0.73416E-04  1352   0.206E-02    0.647E-01
DAV:  20    -0.122362869703E+04    0.59003E-03   -0.34084E-03  1131   0.177E-02    0.885E-01
DAV:  21    -0.122362894205E+04   -0.24501E-03   -0.35620E-03  1352   0.264E-02    0.961E-01
DAV:  22    -0.122362849243E+04    0.44962E-03   -0.14187E-03  1183   0.236E-02    0.818E-01
DAV:  23    -0.122362712040E+04    0.13720E-02   -0.58652E-04  1001   0.158E-02    0.626E-01
DAV:  24    -0.122362725231E+04   -0.13191E-03   -0.14738E-04   936   0.106E-02    0.639E-01
DAV:  25    -0.122362743566E+04   -0.18335E-03   -0.23194E-04  1027   0.107E-02    0.577E-01
DAV:  26    -0.122362705096E+04    0.38470E-03   -0.22733E-04   910   0.126E-02    0.613E-01
DAV:  27    -0.122362645595E+04    0.59501E-03   -0.12466E-04   975   0.897E-03    0.577E-01
DAV:  28    -0.122362608243E+04    0.37352E-03   -0.13669E-04   858   0.734E-03    0.528E-01
DAV:  29    -0.122362601918E+04    0.63246E-04   -0.30517E-05   767   0.623E-03
   2 F= -.12539368E+04 E0= -.12538699E+04  d E =-.930365E+00
 trial-energy change:   -0.930365  1 .order   -0.934990   -1.647003   -0.222976
 step:   1.1602(harm=  1.1566)  dis= 0.03296  next Energy= -1253.954606 (dE=-0.948E+00)
 bond charge predicted
       N       E                     dE             d eps       ncg     rms          rms(c)
DAV:   1    -0.122361239512E+04    0.13687E-01   -0.23023E+00  1274   0.146E+00    0.137E+00
DAV:   2    -0.122362758172E+04   -0.15187E-01   -0.19151E-01  1352   0.449E-01    0.133E+00
DAV:   3    -0.122363438581E+04   -0.68041E-02   -0.20506E-01  1573   0.120E-01    0.151E+00
DAV:   4    -0.122364103692E+04   -0.66511E-02   -0.22727E-01  1339   0.913E-02    0.230E+00
DAV:   5    -0.122363393992E+04    0.70970E-02   -0.89716E-02  1300   0.993E-02    0.954E-01
DAV:   6    -0.122364054037E+04   -0.66005E-02   -0.10289E-01  1547   0.680E-02    0.139E+00
DAV:   7    -0.122363423346E+04    0.63069E-02   -0.10765E-01  1248   0.500E-02    0.827E-01
DAV:   8    -0.122362935806E+04    0.48754E-02   -0.35034E-02  1222   0.460E-02    0.803E-01
DAV:   9    -0.122362654395E+04    0.28141E-02   -0.22127E-02  1040   0.305E-02    0.518E-01
DAV:  10    -0.122362522896E+04    0.13150E-02   -0.77897E-03   962   0.252E-02    0.543E-01
DAV:  11    -0.122362371304E+04    0.15159E-02   -0.39423E-03   949   0.197E-02    0.201E-01
DAV:  12    -0.122362354613E+04    0.16690E-03   -0.12930E-03   884   0.158E-02    0.307E-01
DAV:  13    -0.122362321998E+04    0.32616E-03   -0.47615E-04   793   0.121E-02    0.118E-01
DAV:  14    -0.122362324494E+04   -0.24966E-04   -0.13476E-04   780   0.938E-03
   3 F= -.12539534E+04 E0= -.12538854E+04  d E =-.946994E+00
 curvature:  -0.58 expect dE=-0.105E-02 dE for cont linesearch -0.810E-04
 ZBRENT: interpolating
 opt :   1.1500  next Energy= -1253.953472 (dE=-0.947E+00)
 bond charge predicted
       N       E                     dE             d eps       ncg     rms          rms(c)
DAV:   1    -0.122362437152E+04   -0.11515E-02   -0.91801E-03  1196   0.943E-02    0.130E-01
DAV:   2    -0.122362521854E+04   -0.84701E-03   -0.38470E-03  1287   0.425E-02    0.469E-01
DAV:   3    -0.122362560242E+04   -0.38388E-03   -0.60065E-03   910   0.329E-02    0.425E-01
DAV:   4    -0.122362449656E+04    0.11059E-02   -0.12624E-03   832   0.196E-02    0.122E-01
DAV:   5    -0.122362441358E+04    0.82986E-04   -0.20504E-04   767   0.694E-03
   4 F= -.12539533E+04 E0= -.12538867E+04  d E =-.946916E+00
 curvature:  -0.55 expect dE=-0.732E-03 dE for cont linesearch -0.192E-05
 ZBRENT: interpolating
 opt :   1.1514  next Energy= -1253.953318 (dE=-0.947E+00)
 bond charge predicted
       N       E                     dE             d eps       ncg     rms          rms(c)
DAV:   1    -0.122362425269E+04    0.24388E-03   -0.46445E-04   780   0.167E-02    0.760E-02
DAV:   2    -0.122362537383E+04   -0.11211E-02   -0.22801E-03   845   0.216E-02    0.535E-01
DAV:   3    -0.122362471731E+04    0.65652E-03   -0.31075E-03   897   0.274E-02    0.278E-01
DAV:   4    -0.122362425480E+04    0.46251E-03   -0.44958E-04   793   0.111E-02    0.580E-02
DAV:   5    -0.122362423959E+04    0.15206E-04   -0.15834E-04   689   0.474E-03
   5 F= -.12539533E+04 E0= -.12538863E+04  d E =-.946912E+00
 curvature:  -0.48 expect dE=-0.620E-03 dE for cont linesearch -0.116E-06
 ZBRENT: interpolating
 opt :   1.1511  next Energy= -1253.953311 (dE=-0.947E+00)
 bond charge predicted
       N       E                     dE             d eps       ncg     rms          rms(c)
DAV:   1    -0.122362426844E+04   -0.13647E-04   -0.49420E-05   650   0.469E-03    0.401E-02
DAV:   2    -0.122362444480E+04   -0.17636E-03   -0.30726E-04   715   0.689E-03    0.195E-01
DAV:   3    -0.122362445746E+04   -0.12664E-04   -0.72556E-04   767   0.120E-02
   6 F= -.12539535E+04 E0= -.12538819E+04  d E =-.947094E+00
 curvature:  -0.38 expect dE=-0.536E-03 dE for cont linesearch -0.467E-06
 ZBRENT: interpolating
 opt :   1.1513  next Energy= -1253.953311 (dE=-0.947E+00)
 bond charge predicted
       N       E                     dE             d eps       ncg     rms          rms(c)
DAV:   1    -0.122362427637E+04    0.16843E-03   -0.25110E-04   728   0.825E-03    0.809E-02
DAV:   2    -0.122362768638E+04   -0.34100E-02   -0.31538E-03   871   0.258E-02    0.105E+00
DAV:   3    -0.122362499438E+04    0.26920E-02   -0.40862E-03   949   0.321E-02    0.277E-01
DAV:   4    -0.122362457806E+04    0.41632E-03   -0.50534E-04   832   0.134E-02    0.217E-01
DAV:   5    -0.122362430135E+04    0.27671E-03   -0.16752E-04   754   0.771E-03    0.710E-02
DAV:   6    -0.122362431907E+04   -0.17718E-04   -0.14733E-04   728   0.632E-03
   7 F= -.12539534E+04 E0= -.12538851E+04  d E =-.946980E+00
 curvature:  -0.02 expect dE=-0.334E-04 dE for cont linesearch -0.479E-09
 trial: gam= 0.00078 g(F)=  0.146E-02 g(S)=  0.000E+00 ort = 0.186E-03 (trialstep = 0.103E+01)
 search vector abs. value=  0.147E-02
 bond charge predicted
       N       E                     dE             d eps       ncg     rms          rms(c)
DAV:   1    -0.122362215930E+04    0.21420E-02   -0.17544E-01  1196   0.258E-01    0.139E-01
DAV:   2    -0.122362337044E+04   -0.12111E-02   -0.72717E-03  1508   0.632E-02    0.431E-01
DAV:   3    -0.122362353637E+04   -0.16593E-03   -0.34588E-03   962   0.318E-02    0.383E-01
DAV:   4    -0.122362264897E+04    0.88740E-03   -0.93797E-04   858   0.190E-02    0.120E-01
DAV:   5    -0.122362261438E+04    0.34596E-04   -0.17094E-04   845   0.816E-03
   8 F= -.12539518E+04 E0= -.12538855E+04  d E =0.153655E-02
 trial-energy change:    0.001537  1 .order    0.001446   -0.001508    0.004400
 step:   0.2630(harm=  0.2630)  dis= 0.00101  next Energy= -1253.953572 (dE=-0.193E-03)
 bond charge predicted
       N       E                     dE             d eps       ncg     rms          rms(c)
DAV:   1    -0.122362412765E+04   -0.14787E-02   -0.99281E-02  1183   0.196E-01    0.128E-01
DAV:   2    -0.122363018069E+04   -0.60530E-02   -0.14941E-02  1365   0.732E-02    0.791E-01
DAV:   3    -0.122362462641E+04    0.55543E-02   -0.10486E-02  1053   0.515E-02    0.157E-01
DAV:   4    -0.122362463812E+04   -0.11716E-04   -0.68766E-04   871   0.149E-02
   9 F= -.12539537E+04 E0= -.12538873E+04  d E =-.361426E-03
 curvature:  -0.13 expect dE=-0.127E-03 dE for cont linesearch -0.214E-04
 ZBRENT: interpolating
 opt :   0.1972  next Energy= -1253.953757 (dE=-0.377E-03)
 bond charge predicted
       N       E                     dE             d eps       ncg     rms          rms(c)
DAV:   1    -0.122362445406E+04    0.17235E-03   -0.98740E-04   871   0.201E-02    0.884E-02
DAV:   2    -0.122362722633E+04   -0.27723E-02   -0.36010E-03   962   0.292E-02    0.901E-01
DAV:   3    -0.122362506729E+04    0.21590E-02   -0.39703E-03   936   0.330E-02    0.287E-01
DAV:   4    -0.122362439923E+04    0.66806E-03   -0.39212E-04   806   0.109E-02    0.509E-02
DAV:   5    -0.122362440938E+04   -0.10148E-04   -0.30651E-04   689   0.531E-03
  10 F= -.12539535E+04 E0= -.12538867E+04  d E =-.122050E-03
 curvature:  -0.10 expect dE=-0.370E-04 dE for cont linesearch -0.148E-05
 ZBRENT: interpolating
 opt :   0.2125  next Energy= -1253.953503 (dE=-0.123E-03)
 bond charge predicted
       N       E                     dE             d eps       ncg     rms          rms(c)
DAV:   1    -0.122362437628E+04    0.22955E-04   -0.24234E-04   767   0.643E-03    0.349E-02
DAV:   2    -0.122362463622E+04   -0.25994E-03   -0.71512E-04   741   0.984E-03    0.237E-01
DAV:   3    -0.122362449786E+04    0.13836E-03   -0.93063E-04   754   0.123E-02    0.143E-01
DAV:   4    -0.122362437910E+04    0.11876E-03   -0.18027E-04   689   0.493E-03    0.383E-02
DAV:   5    -0.122362438071E+04   -0.16134E-05   -0.12565E-04   676   0.198E-03
  11 F= -.12539535E+04 E0= -.12538861E+04  d E =-.958576E-04
 curvature:  -0.08 expect dE=-0.242E-04 dE for cont linesearch -0.120E-05
 ZBRENT: bisectioning
 opt :   0.2378  next Energy= -1253.953480 (dE=-0.998E-04)
 bond charge predicted
       N       E                     dE             d eps       ncg     rms          rms(c)
DAV:   1    -0.122362437246E+04    0.66443E-05   -0.13825E-04   767   0.674E-03    0.150E-02
DAV:   2    -0.122362449685E+04   -0.12440E-03   -0.22120E-04   741   0.665E-03    0.166E-01
DAV:   3    -0.122362438255E+04    0.11430E-03   -0.21718E-04   741   0.724E-03    0.513E-02
DAV:   4    -0.122362437608E+04    0.64724E-05   -0.23858E-05   650   0.244E-03
  12 F= -.12539535E+04 E0= -.12538858E+04  d E =-.953031E-04
 curvature:  -0.25 expect dE=-0.808E-04 dE for cont linesearch -0.464E-06
 trial: gam= 0.18691 g(F)=  0.326E-03 g(S)=  0.000E+00 ort = 0.523E-04 (trialstep = 0.872E+00)
 search vector abs. value=  0.397E-03
 bond charge predicted
       N       E                     dE             d eps       ncg     rms          rms(c)
DAV:   1    -0.122362447128E+04   -0.88726E-04   -0.23651E-02  1196   0.127E-01    0.749E-02
DAV:   2    -0.122362487917E+04   -0.40789E-03   -0.11567E-03  1157   0.345E-02    0.306E-01
DAV:   3    -0.122362480121E+04    0.77951E-04   -0.11698E-03   858   0.198E-02    0.230E-01
DAV:   4    -0.122362455708E+04    0.24413E-03   -0.28474E-04   780   0.116E-02    0.804E-02
DAV:   5    -0.122362454153E+04    0.15551E-04   -0.52717E-05   689   0.530E-03
  13 F= -.12539536E+04 E0= -.12538859E+04  d E =-.163874E-03
 trial-energy change:   -0.000164  1 .order   -0.000147   -0.000293   -0.000002
 step:   0.8768(harm=  0.8768)  dis= 0.00111  next Energy= -1253.953622 (dE=-0.147E-03)
 bond charge predicted
       N       E                     dE             d eps       ncg     rms          rms(c)
DAV:   1    -0.122362451457E+04    0.42512E-04   -0.42346E-05   702   0.582E-03    0.240E-02
DAV:   2    -0.122362487173E+04   -0.35716E-03   -0.45461E-04   767   0.113E-02    0.299E-01
DAV:   3    -0.122362452818E+04    0.34355E-03   -0.40486E-04   741   0.110E-02    0.651E-02
DAV:   4    -0.122362451405E+04    0.14127E-04   -0.33826E-05   676   0.396E-03
  14 F= -.12539536E+04 E0= -.12538859E+04  d E =-.136394E-03
 curvature:  -0.52 expect dE=-0.241E-03 dE for cont linesearch -0.107E-05
 trial: gam= 1.50700 g(F)=  0.466E-03 g(S)=  0.000E+00 ort =-0.286E-04 (trialstep = 0.270E+00)
 search vector abs. value=  0.128E-02
 bond charge predicted
       N       E                     dE             d eps       ncg     rms          rms(c)
DAV:   1    -0.122362456140E+04   -0.33218E-04   -0.57582E-03  1157   0.630E-02    0.496E-02
DAV:   2    -0.122362472656E+04   -0.16516E-03   -0.51034E-04   897   0.187E-02    0.196E-01
DAV:   3    -0.122362477815E+04   -0.51584E-04   -0.82676E-04   793   0.156E-02
  15 F= -.12539539E+04 E0= -.12538900E+04  d E =-.296629E-03
 trial-energy change:   -0.000297  1 .order   -0.000076   -0.000114   -0.000038
 step:   0.4071(harm=  0.4071)  dis= 0.00085  next Energy= -1253.953698 (dE=-0.861E-04)
 bond charge predicted
       N       E                     dE             d eps       ncg     rms          rms(c)
DAV:   1    -0.122362460146E+04    0.12511E-03   -0.17516E-03  1196   0.346E-02    0.741E-02
DAV:   2    -0.122362707510E+04   -0.24736E-02   -0.36356E-03   897   0.308E-02    0.602E-01
DAV:   3    -0.122362473444E+04    0.23407E-02   -0.38552E-03   910   0.319E-02    0.147E-01
DAV:   4    -0.122362472037E+04    0.14065E-04   -0.23274E-04   767   0.978E-03
  16 F= -.12539539E+04 E0= -.12538870E+04  d E =-.255395E-03
 curvature:  -0.62 expect dE=-0.297E-03 dE for cont linesearch -0.890E-05
 ZBRENT: increasing intervall
 opt :   0.6806  next Energy= -1253.953903 (dE=-0.291E-03)
 bond charge predicted
       N       E                     dE             d eps       ncg     rms          rms(c)
DAV:   1    -0.122362456750E+04    0.16694E-03   -0.59130E-03  1183   0.644E-02    0.725E-02
DAV:   2    -0.122362882431E+04   -0.42568E-02   -0.46781E-03  1014   0.390E-02    0.119E+00
DAV:   3    -0.122362523539E+04    0.35889E-02   -0.39705E-03   988   0.356E-02    0.244E-01
DAV:   4    -0.122362460822E+04    0.62718E-03   -0.52060E-04   832   0.150E-02    0.389E-02
DAV:   5    -0.122362459603E+04    0.12186E-04   -0.91222E-05   689   0.709E-03
  17 F= -.12539538E+04 E0= -.12538871E+04  d E =-.164280E-03
 curvature:  -2.46 expect dE=-0.192E-02 dE for cont linesearch -0.753E-05
 trial: gam= 1.61736 g(F)=  0.779E-03 g(S)=  0.000E+00 ort =-0.626E-04 (trialstep = 0.115E+00)
 search vector abs. value=  0.393E-02
 bond charge predicted
       N       E                     dE             d eps       ncg     rms          rms(c)
DAV:   1    -0.122362458759E+04    0.20628E-04   -0.33675E-03  1144   0.449E-02    0.386E-02
DAV:   2    -0.122362505781E+04   -0.47022E-03   -0.84347E-04   910   0.184E-02    0.344E-01
DAV:   3    -0.122362465712E+04    0.40069E-03   -0.78021E-04   806   0.150E-02    0.107E-01
DAV:   4    -0.122362460956E+04    0.47565E-04   -0.81001E-05   689   0.644E-03
  18 F= -.12539538E+04 E0= -.12538862E+04  d E =-.335304E-04
 ZBRENT: can't locate minimum, use default step
 trial-energy change:   -0.000034  1 .order   -0.000069   -0.000078   -0.000060
 step:   0.4598(harm=  0.5019)  dis= 0.00165  next Energy= -1253.953946 (dE=-0.170E-03)
 bond charge predicted
       N       E                     dE             d eps       ncg     rms          rms(c)
DAV:   1    -0.122362466977E+04   -0.12645E-04   -0.29827E-02  1196   0.134E-01    0.960E-02
DAV:   2    -0.122362492109E+04   -0.25132E-03   -0.12410E-03  1456   0.325E-02    0.212E-01
DAV:   3    -0.122362499315E+04   -0.72058E-04   -0.94899E-04   806   0.129E-02
  19 F= -.12539543E+04 E0= -.12538904E+04  d E =-.477640E-03
 curvature:  -1.44 expect dE=-0.115E-02 dE for cont linesearch -0.572E-04
 ZBRENT: increasing intervall
 opt :   1.1494  next Energy= -1253.954439 (dE=-0.663E-03)
 bond charge predicted
       N       E                     dE             d eps       ncg     rms          rms(c)
DAV:   1    -0.122362459802E+04    0.32307E-03   -0.11965E-01  1170   0.268E-01    0.227E-01
DAV:   2    -0.122364023887E+04   -0.15641E-01   -0.39607E-02  1690   0.112E-01    0.110E+00
DAV:   3    -0.122362544710E+04    0.14792E-01   -0.30947E-02  1391   0.885E-02    0.314E-01
DAV:   4    -0.122362528249E+04    0.16461E-03   -0.20881E-03  1001   0.238E-02    0.314E-01
DAV:   5    -0.122362484049E+04    0.44200E-03   -0.10288E-03  1079   0.202E-02    0.171E-01
DAV:   6    -0.122362515209E+04   -0.31160E-03   -0.12437E-03   884   0.193E-02    0.313E-01
DAV:   7    -0.122362468486E+04    0.46722E-03   -0.11754E-03   845   0.131E-02    0.896E-02
DAV:   8    -0.122362475476E+04   -0.69891E-04   -0.95738E-04   780   0.125E-02
  20 F= -.12539541E+04 E0= -.12538849E+04  d E =-.362527E-03
 curvature:  -4.65 expect dE=-0.702E-02 dE for cont linesearch -0.208E-07
 trial: gam= 1.68489 g(F)=  0.151E-02 g(S)=  0.000E+00 ort = 0.419E-05 (trialstep = 0.997E-01)
 search vector abs. value=  0.127E-01
 bond charge predicted
       N       E                     dE             d eps       ncg     rms          rms(c)
DAV:   1    -0.122362471271E+04   -0.27850E-04   -0.83684E-03  1170   0.663E-02    0.763E-02
DAV:   2    -0.122362743397E+04   -0.27213E-02   -0.63378E-03  1105   0.407E-02    0.610E-01
DAV:   3    -0.122362477979E+04    0.26542E-02   -0.49801E-03   910   0.344E-02    0.110E-01
DAV:   4    -0.122362481863E+04   -0.38839E-04   -0.50622E-04   793   0.106E-02
  21 F= -.12539542E+04 E0= -.12538881E+04  d E =-.860831E-04
 trial-energy change:   -0.000086  1 .order   -0.000127   -0.000151   -0.000102
 step:   0.3073(harm=  0.3073)  dis= 0.00175  next Energy= -1253.954372 (dE=-0.233E-03)
 bond charge predicted
       N       E                     dE             d eps       ncg     rms          rms(c)
DAV:   1    -0.122362475633E+04    0.23463E-04   -0.35117E-02  1170   0.137E-01    0.652E-02
DAV:   2    -0.122362500079E+04   -0.24446E-03   -0.14764E-03  1508   0.337E-02    0.205E-01
DAV:   3    -0.122362501019E+04   -0.93957E-05   -0.97663E-04   832   0.151E-02
  22 F= -.12539545E+04 E0= -.12538904E+04  d E =-.324352E-03
 curvature:  -1.28 expect dE=-0.155E-02 dE for cont linesearch -0.210E-04
 ZBRENT: increasing intervall
 opt :   0.7226  next Energy= -1253.954415 (dE=-0.277E-03)
 bond charge predicted
       N       E                     dE             d eps       ncg     rms          rms(c)
DAV:   1    -0.122362471397E+04    0.28682E-03   -0.13945E-01  1170   0.273E-01    0.162E-01
DAV:   2    -0.122363137270E+04   -0.66587E-02   -0.14624E-02  1742   0.828E-02    0.785E-01
DAV:   3    -0.122362499245E+04    0.63802E-02   -0.12088E-02  1196   0.609E-02    0.155E-01
DAV:   4    -0.122362510423E+04   -0.11179E-03   -0.59225E-04   871   0.151E-02    0.210E-01
DAV:   5    -0.122362492997E+04    0.17426E-03   -0.36299E-04   754   0.131E-02    0.112E-01
DAV:   6    -0.122362501717E+04   -0.87194E-04   -0.59807E-04   897   0.131E-02
  23 F= -.12539546E+04 E0= -.12538858E+04  d E =-.426776E-03
 curvature:   2.93 expect dE= 0.539E-02 dE for cont linesearch  0.791E-04
 ZBRENT: increasing intervall
 opt :   1.5531  next Energy= -1253.955159 (dE=-0.102E-02)
 bond charge predicted
       N       E                     dE             d eps       ncg     rms          rms(c)
DAV:   1    -0.122362335027E+04    0.15797E-02   -0.55403E-01  1170   0.545E-01    0.309E-01
DAV:   2    -0.122363502527E+04   -0.11675E-01   -0.46602E-02  1794   0.164E-01    0.944E-01
DAV:   3    -0.122362590716E+04    0.91181E-02   -0.40712E-02  1534   0.100E-01    0.673E-01
DAV:   4    -0.122362619957E+04   -0.29242E-03   -0.58962E-03   962   0.353E-02    0.516E-01
DAV:   5    -0.122362484563E+04    0.13539E-02   -0.12920E-03   962   0.189E-02    0.296E-01
DAV:   6    -0.122362443477E+04    0.41086E-03   -0.18105E-03   988   0.191E-02    0.181E-01
DAV:   7    -0.122362459723E+04   -0.16246E-03   -0.25395E-03   832   0.156E-02    0.292E-01
DAV:   8    -0.122362434009E+04    0.25714E-03   -0.17323E-03   741   0.139E-02    0.130E-01
DAV:   9    -0.122362430552E+04    0.34567E-04   -0.12361E-03   676   0.923E-03    0.122E-01
DAV:  10    -0.122362426871E+04    0.36810E-04   -0.86113E-04   650   0.718E-03
  24 F= -.12539540E+04 E0= -.12538858E+04  d E =0.122787E-03
 curvature: -21.98 expect dE=-0.166E+00 dE for cont linesearch -0.134E-02
 ZBRENT: bracketing found
 ZBRENT: interpolating
 opt :   1.0543  next Energy= -1253.954662 (dE=-0.524E-03)
 bond charge predicted
       N       E                     dE             d eps       ncg     rms          rms(c)
DAV:   1    -0.122362441893E+04   -0.11340E-03   -0.20201E-01  1170   0.327E-01    0.172E-01
DAV:   2    -0.122362958119E+04   -0.51623E-02   -0.11172E-02  1768   0.830E-02    0.126E+00
DAV:   3    -0.122362611022E+04    0.34710E-02   -0.75750E-03  1118   0.459E-02    0.401E-01
DAV:   4    -0.122362496591E+04    0.11443E-02   -0.84352E-04   884   0.199E-02    0.171E-01
DAV:   5    -0.122362485770E+04    0.10821E-03   -0.33758E-04   715   0.120E-02    0.145E-01
DAV:   6    -0.122362481015E+04    0.47550E-04   -0.47455E-04   728   0.110E-02
  25 F= -.12539544E+04 E0= -.12538866E+04  d E =-.297918E-03
 curvature:  -1.59 expect dE=-0.685E-02 dE for cont linesearch -0.733E-04
 ZBRENT: interpolating
 opt :   0.8663  next Energy= -1253.954607 (dE=-0.469E-03)
 bond charge predicted
       N       E                     dE             d eps       ncg     rms          rms(c)
DAV:   1    -0.122362481376E+04    0.43940E-04   -0.28187E-02  1170   0.123E-01    0.917E-02
DAV:   2    -0.122362557382E+04   -0.76006E-03   -0.55314E-03  1456   0.349E-02    0.371E-01
DAV:   3    -0.122362569072E+04   -0.11690E-03   -0.66901E-03   819   0.263E-02    0.452E-01
DAV:   4    -0.122362496762E+04    0.72310E-03   -0.17916E-03   741   0.160E-02    0.123E-01
DAV:   5    -0.122362488664E+04    0.80983E-04   -0.86827E-04   676   0.657E-03
  26 F= -.12539545E+04 E0= -.12538867E+04  d E =-.329917E-03
 curvature:  -0.91 expect dE=-0.280E-02 dE for cont linesearch -0.709E-05
 trial: gam= 1.79097 g(F)=  0.307E-02 g(S)=  0.000E+00 ort =-0.314E-03 (trialstep = 0.753E-01)
 search vector abs. value=  0.426E-01
 bond charge predicted
       N       E                     dE             d eps       ncg     rms          rms(c)
DAV:   1    -0.122362495247E+04    0.15150E-04   -0.15491E-02  1170   0.901E-02    0.736E-02
DAV:   2    -0.122362626771E+04   -0.13152E-02   -0.35486E-03  1313   0.344E-02    0.448E-01
DAV:   3    -0.122362519626E+04    0.10715E-02   -0.36773E-03   897   0.290E-02    0.214E-01
DAV:   4    -0.122362503767E+04    0.15859E-03   -0.40939E-04   728   0.112E-02    0.104E-01
DAV:   5    -0.122362500974E+04    0.27927E-04   -0.32089E-04   650   0.623E-03
  27 F= -.12539546E+04 E0= -.12538876E+04  d E =-.165210E-03
 ZBRENT: can't locate minimum, use default step
 trial-energy change:   -0.000165  1 .order   -0.000181   -0.000189   -0.000173
 step:   0.3011(harm=  0.8888)  dis= 0.00341  next Energy= -1253.955584 (dE=-0.112E-02)
 bond charge predicted
       N       E                     dE             d eps       ncg     rms          rms(c)
DAV:   1    -0.122362509853E+04   -0.60865E-04   -0.13417E-01  1170   0.268E-01    0.148E-01
DAV:   2    -0.122362855923E+04   -0.34607E-02   -0.10466E-02  1794   0.780E-02    0.638E-01
DAV:   3    -0.122362582500E+04    0.27342E-02   -0.94031E-03  1118   0.460E-02    0.353E-01
DAV:   4    -0.122362560255E+04    0.22246E-03   -0.97876E-04   793   0.169E-02    0.228E-01
DAV:   5    -0.122362540441E+04    0.19814E-03   -0.40171E-04   689   0.102E-02    0.140E-01
DAV:   6    -0.122362533932E+04    0.65089E-04   -0.52607E-04   689   0.110E-02
  28 F= -.12539551E+04 E0= -.12538874E+04  d E =-.622855E-03
 curvature:  -3.60 expect dE=-0.555E-02 dE for cont linesearch -0.359E-03
 ZBRENT: increasing intervall
 opt :   0.7528  next Energy= -1253.955914 (dE=-0.145E-02)
 bond charge predicted
       N       E                     dE             d eps       ncg     rms          rms(c)
DAV:   1    -0.122362464884E+04    0.75557E-03   -0.53297E-01  1170   0.536E-01    0.349E-01
DAV:   2    -0.122364900593E+04   -0.24357E-01   -0.91224E-02  1742   0.202E-01    0.128E+00
DAV:   3    -0.122362655497E+04    0.22451E-01   -0.66517E-02  1560   0.126E-01    0.412E-01
DAV:   4    -0.122362654032E+04    0.14644E-04   -0.86742E-03  1157   0.322E-02    0.413E-01
DAV:   5    -0.122362587080E+04    0.66952E-03   -0.75252E-03  1170   0.271E-02    0.247E-01
DAV:   6    -0.122362570639E+04    0.16441E-03   -0.61591E-03   871   0.197E-02    0.245E-01
DAV:   7    -0.122362562978E+04    0.76609E-04   -0.62040E-03   858   0.191E-02    0.216E-01
DAV:   8    -0.122362549647E+04    0.13332E-03   -0.33937E-03   754   0.149E-02    0.145E-01
DAV:   9    -0.122362559515E+04   -0.98680E-04   -0.20749E-03   702   0.149E-02    0.231E-01
DAV:  10    -0.122362538638E+04    0.20876E-03   -0.84965E-04   663   0.965E-03    0.618E-02
DAV:  11    -0.122362538457E+04    0.18119E-05   -0.42511E-04   637   0.604E-03
  29 F= -.12539554E+04 E0= -.12538871E+04  d E =-.932130E-03
 curvature:  -8.26 expect dE=-0.290E-01 dE for cont linesearch -0.332E-05
 trial: gam= 1.10260 g(F)=  0.351E-02 g(S)=  0.000E+00 ort = 0.131E-03 (trialstep = 0.162E+00)
 search vector abs. value=  0.556E-01
 bond charge predicted
       N       E                     dE             d eps       ncg     rms          rms(c)
DAV:   1    -0.122362557716E+04   -0.19077E-03   -0.92599E-02  1170   0.223E-01    0.117E-01
DAV:   2    -0.122362798636E+04   -0.24092E-02   -0.65582E-03  1755   0.677E-02    0.553E-01
DAV:   3    -0.122362598055E+04    0.20058E-02   -0.49471E-03   949   0.367E-02    0.248E-01
DAV:   4    -0.122362586968E+04    0.11087E-03   -0.28003E-04   728   0.127E-02    0.160E-01
DAV:   5    -0.122362578459E+04    0.85083E-04   -0.92244E-05   676   0.836E-03
  30 F= -.12539559E+04 E0= -.12538888E+04  d E =-.501918E-03
 ZBRENT: can't locate minimum, use default step
 trial-energy change:   -0.000502  1 .order   -0.000524   -0.000590   -0.000458
 step:   0.6461(harm=  0.7217)  dis= 0.00854  next Energy= -1253.956719 (dE=-0.132E-02)
 bond charge predicted
       N       E                     dE             d eps       ncg     rms          rms(c)
DAV:   1    -0.122362492080E+04    0.94887E-03   -0.82972E-01  1170   0.665E-01    0.363E-01
DAV:   2    -0.122364302653E+04   -0.18106E-01   -0.66568E-02  1781   0.202E-01    0.106E+00
DAV:   3    -0.122362664731E+04    0.16379E-01   -0.55115E-02  1612   0.121E-01    0.384E-01
DAV:   4    -0.122362742913E+04   -0.78182E-03   -0.29923E-03  1118   0.307E-02    0.482E-01
DAV:   5    -0.122362640873E+04    0.10204E-02   -0.13892E-03  1170   0.225E-02    0.249E-01
DAV:   6    -0.122362759803E+04   -0.11893E-02   -0.23690E-03  1053   0.262E-02    0.609E-01
DAV:   7    -0.122362619244E+04    0.14056E-02   -0.20657E-03   988   0.273E-02    0.840E-02
DAV:   8    -0.122362613593E+04    0.56516E-04   -0.16858E-03   780   0.129E-02    0.154E-01
DAV:   9    -0.122362615685E+04   -0.20921E-04   -0.13919E-03   689   0.110E-02    0.177E-01
DAV:  10    -0.122362609203E+04    0.64815E-04   -0.81875E-04   637   0.712E-03
  31 F= -.12539565E+04 E0= -.12538880E+04  d E =-.112515E-02
 curvature:  -5.39 expect dE=-0.964E-02 dE for cont linesearch -0.643E-05
 trial: gam= 0.62093 g(F)=  0.179E-02 g(S)=  0.000E+00 ort = 0.257E-03 (trialstep = 0.258E+00)
 search vector abs. value=  0.235E-01
 bond charge predicted
       N       E                     dE             d eps       ncg     rms          rms(c)
DAV:   1    -0.122362603883E+04    0.11802E-03   -0.98721E-02  1170   0.233E-01    0.118E-01
DAV:   2    -0.122362882712E+04   -0.27883E-02   -0.82448E-03  1755   0.704E-02    0.596E-01
DAV:   3    -0.122362641912E+04    0.24080E-02   -0.55378E-03   923   0.371E-02    0.213E-01
DAV:   4    -0.122362639723E+04    0.21891E-04   -0.35956E-04   767   0.125E-02
  32 F= -.12539570E+04 E0= -.12538924E+04  d E =-.478431E-03
 trial-energy change:   -0.000478  1 .order   -0.000408   -0.000504   -0.000312
 step:   0.6796(harm=  0.6796)  dis= 0.00612  next Energy= -1253.957188 (dE=-0.663E-03)
 bond charge predicted
       N       E                     dE             d eps       ncg     rms          rms(c)
DAV:   1    -0.122362582341E+04    0.59571E-03   -0.26072E-01  1170   0.379E-01    0.189E-01
DAV:   2    -0.122362681867E+04   -0.99526E-03   -0.66929E-03  1755   0.771E-02    0.334E-01
DAV:   3    -0.122362690591E+04   -0.87242E-04   -0.15451E-03   949   0.245E-02    0.337E-01
DAV:   4    -0.122362689189E+04    0.14015E-04   -0.26546E-03   936   0.288E-02    0.410E-01
DAV:   5    -0.122362632912E+04    0.56277E-03   -0.97785E-04   819   0.182E-02    0.173E-01
DAV:   6    -0.122362625156E+04    0.77566E-04   -0.38267E-04  1066   0.161E-02
  33 F= -.12539571E+04 E0= -.12538873E+04  d E =-.617781E-03
 curvature:  -4.10 expect dE=-0.998E-02 dE for cont linesearch -0.186E-04
 trial: gam= 1.31562 g(F)=  0.243E-02 g(S)=  0.000E+00 ort = 0.326E-03 (trialstep = 0.183E+00)
 search vector abs. value=  0.440E-01
 bond charge predicted
       N       E                     dE             d eps       ncg     rms          rms(c)
DAV:   1    -0.122362629388E+04    0.35247E-04   -0.87940E-02  1170   0.220E-01    0.111E-01
DAV:   2    -0.122362789829E+04   -0.16044E-02   -0.62738E-03  1755   0.626E-02    0.476E-01
DAV:   3    -0.122362698212E+04    0.91616E-03   -0.54336E-03   936   0.343E-02    0.366E-01
DAV:   4    -0.122362659987E+04    0.38225E-03   -0.71772E-04   767   0.164E-02    0.157E-01
DAV:   5    -0.122362650747E+04    0.92403E-04   -0.23911E-04   689   0.924E-03
  34 F= -.12539576E+04 E0= -.12538902E+04  d E =-.409820E-03
 ZBRENT: can't locate minimum, use default step
 trial-energy change:   -0.000410  1 .order   -0.000502   -0.000524   -0.000480
 step:   0.7327(harm=  2.1508)  dis= 0.00977  next Energy= -1253.960222 (dE=-0.308E-02)
 bond charge predicted
       N       E                     dE             d eps       ncg     rms          rms(c)
DAV:   1    -0.122362563186E+04    0.96801E-03   -0.79059E-01  1170   0.658E-01    0.284E-01
DAV:   2    -0.122362844278E+04   -0.28109E-02   -0.21158E-02  1716   0.134E-01    0.495E-01
DAV:   3    -0.122363548047E+04   -0.70377E-02   -0.18267E-02  1495   0.701E-02    0.181E+00
DAV:   4    -0.122362941582E+04    0.60647E-02   -0.81527E-03  1092   0.485E-02    0.450E-01
DAV:   5    -0.122362740960E+04    0.20062E-02   -0.15377E-03  1014   0.253E-02    0.280E-01
DAV:   6    -0.122362701417E+04    0.39543E-03   -0.57829E-04   923   0.180E-02    0.171E-01
DAV:   7    -0.122362706352E+04   -0.49356E-04   -0.12498E-03   975   0.167E-02    0.229E-01
DAV:   8    -0.122362691562E+04    0.14790E-03   -0.12002E-03   806   0.136E-02    0.131E-01
DAV:   9    -0.122362690224E+04    0.13381E-04   -0.10670E-03   715   0.917E-03    0.138E-01
DAV:  10    -0.122362681158E+04    0.90658E-04   -0.61248E-04   637   0.737E-03
  35 F= -.12539583E+04 E0= -.12538905E+04  d E =-.118105E-02
 curvature:  -7.95 expect dE=-0.189E-01 dE for cont linesearch -0.167E-03
 ZBRENT: increasing intervall
 opt :   1.8319  next Energy= -1253.957558 (dE=-0.414E-03)
 bond charge predicted
       N       E                     dE             d eps       ncg     rms          rms(c)
DAV:   1    -0.122362033516E+04    0.65671E-02   -0.31708E+00  1170   0.132E+00    0.588E-01
DAV:   2    -0.122363366516E+04   -0.13330E-01   -0.93609E-02  1625   0.283E-01    0.997E-01
DAV:   3    -0.122366146858E+04   -0.27803E-01   -0.77192E-02  1612   0.145E-01    0.408E+00
DAV:   4    -0.122364208281E+04    0.19386E-01   -0.35640E-02  1534   0.102E-01    0.783E-01
DAV:   5    -0.122363077609E+04    0.11307E-01   -0.89663E-03  1430   0.549E-02    0.896E-01
DAV:   6    -0.122362757666E+04    0.31994E-02   -0.37430E-03  1170   0.312E-02    0.463E-01
DAV:   7    -0.122362752922E+04    0.47439E-04   -0.83740E-03  1157   0.331E-02    0.660E-01
DAV:   8    -0.122362596979E+04    0.15594E-02   -0.63509E-03  1053   0.243E-02    0.218E-01
DAV:   9    -0.122362608923E+04   -0.11945E-03   -0.36225E-03   910   0.181E-02    0.454E-01
DAV:  10    -0.122362545786E+04    0.63137E-03   -0.32153E-03   806   0.133E-02    0.200E-01
DAV:  11    -0.122362551509E+04   -0.57223E-04   -0.16449E-03   754   0.978E-03    0.253E-01
DAV:  12    -0.122362539508E+04    0.12001E-03   -0.11252E-03   650   0.637E-03    0.174E-01
DAV:  13    -0.122362537987E+04    0.15207E-04   -0.52856E-04   650   0.583E-03
  36 F= -.12539579E+04 E0= -.12538891E+04  d E =-.708138E-03
 curvature:  36.60 expect dE= 0.459E+00 dE for cont linesearch  0.210E-02
 ZBRENT: bracketing found
 ZBRENT: interpolating
 opt :   1.1467  next Energy= -1253.958523 (dE=-0.138E-02)
 bond charge predicted
       N       E                     dE             d eps       ncg     rms          rms(c)
DAV:   1    -0.122362462975E+04    0.76532E-03   -0.12331E+00  1170   0.828E-01    0.365E-01
DAV:   2    -0.122362735538E+04   -0.27256E-02   -0.33382E-02  1638   0.158E-01    0.365E-01
DAV:   3    -0.122363669799E+04   -0.93426E-02   -0.25572E-02  1469   0.617E-02    0.194E+00
DAV:   4    -0.122363004692E+04    0.66511E-02   -0.16957E-02  1144   0.551E-02    0.490E-01
DAV:   5    -0.122362751687E+04    0.25300E-02   -0.19773E-03  1079   0.271E-02    0.362E-01
DAV:   6    -0.122362684215E+04    0.67472E-03   -0.88789E-04   910   0.178E-02    0.165E-01
DAV:   7    -0.122362706028E+04   -0.21813E-03   -0.55452E-04   949   0.184E-02    0.299E-01
DAV:   8    -0.122362666895E+04    0.39132E-03   -0.54654E-04   832   0.150E-02    0.830E-02
DAV:   9    -0.122362673990E+04   -0.70944E-04   -0.40605E-04   728   0.107E-02
  37 F= -.12539586E+04 E0= -.12538893E+04  d E =-.146662E-02
 curvature:  -3.46 expect dE=-0.149E-01 dE for cont linesearch -0.983E-06
 trial: gam= 1.89572 g(F)=  0.430E-02 g(S)=  0.000E+00 ort =-0.112E-03 (trialstep = 0.102E+00)
 search vector abs. value=  0.162E+00
 bond charge predicted
       N       E                     dE             d eps       ncg     rms          rms(c)
DAV:   1    -0.122362665450E+04    0.14449E-04   -0.98170E-02  1170   0.224E-01    0.117E-01
DAV:   2    -0.122362755963E+04   -0.90512E-03   -0.52086E-03  1807   0.553E-02    0.362E-01
DAV:   3    -0.122362783929E+04   -0.27966E-03   -0.50704E-03   884   0.301E-02    0.518E-01
DAV:   4    -0.122362703749E+04    0.80180E-03   -0.11971E-03   767   0.183E-02    0.166E-01
DAV:   5    -0.122362692067E+04    0.11682E-03   -0.18996E-04   728   0.942E-03    0.124E-01
DAV:   6    -0.122362683142E+04    0.89253E-04   -0.13101E-04   663   0.801E-03
  38 F= -.12539589E+04 E0= -.12538913E+04  d E =-.267019E-03
 ZBRENT: can't locate minimum, use default step
 trial-energy change:   -0.000267  1 .order   -0.000417   -0.000417   -0.000417
 step:   0.4084(harm=236.3013)  dis= 0.01049  next Energy= -1254.441428 (dE=-0.483E+00)
 bond charge predicted
       N       E                     dE             d eps       ncg     rms          rms(c)
DAV:   1    -0.122362565163E+04    0.12690E-02   -0.87352E-01  1170   0.670E-01    0.321E-01
DAV:   2    -0.122363051143E+04   -0.48598E-02   -0.26741E-02  1716   0.148E-01    0.725E-01
DAV:   3    -0.122363611438E+04   -0.56029E-02   -0.23583E-02  1495   0.808E-02    0.184E+00
DAV:   4    -0.122363089311E+04    0.52213E-02   -0.11006E-02  1131   0.551E-02    0.541E-01
DAV:   5    -0.122362775182E+04    0.31413E-02   -0.21588E-03  1157   0.311E-02    0.327E-01
DAV:   6    -0.122362720386E+04    0.54797E-03   -0.86048E-04   832   0.165E-02    0.180E-01
DAV:   7    -0.122362750192E+04   -0.29806E-03   -0.20187E-03   819   0.169E-02    0.347E-01
DAV:   8    -0.122362714942E+04    0.35250E-03   -0.19541E-03   767   0.128E-02    0.188E-01
DAV:   9    -0.122362707406E+04    0.75364E-04   -0.12232E-03   689   0.104E-02    0.179E-01
DAV:  10    -0.122362698217E+04    0.91886E-04   -0.93996E-04   650   0.664E-03
  39 F= -.12539596E+04 E0= -.12538908E+04  d E =-.951084E-03
 curvature: -12.15 expect dE=-0.279E-01 dE for cont linesearch -0.143E-03
 ZBRENT: increasing intervall
 opt :   1.0209  next Energy= -1253.958749 (dE=-0.139E-03)
 bond charge predicted
       N       E                     dE             d eps       ncg     rms          rms(c)
DAV:   1    -0.122361926250E+04    0.78116E-02   -0.35125E+00  1170   0.134E+00    0.631E-01
DAV:   2    -0.122363273889E+04   -0.13476E-01   -0.10303E-01  1664   0.292E-01    0.941E-01
DAV:   3    -0.122367563469E+04   -0.42896E-01   -0.92962E-02  1586   0.158E-01    0.495E+00
DAV:   4    -0.122364665685E+04    0.28978E-01   -0.39530E-02  1508   0.110E-01    0.811E-01
DAV:   5    -0.122363120472E+04    0.15452E-01   -0.11469E-02  1248   0.553E-02    0.925E-01
DAV:   6    -0.122362732148E+04    0.38832E-02   -0.37728E-03  1365   0.348E-02    0.492E-01
DAV:   7    -0.122362712680E+04    0.19469E-03   -0.57762E-03  1222   0.368E-02    0.649E-01
DAV:   8    -0.122362551236E+04    0.16144E-02   -0.32071E-03  1027   0.241E-02    0.191E-01
DAV:   9    -0.122362582895E+04   -0.31658E-03   -0.24769E-03   949   0.176E-02    0.462E-01
DAV:  10    -0.122362505105E+04    0.77790E-03   -0.25006E-03   806   0.123E-02    0.166E-01
DAV:  11    -0.122362515452E+04   -0.10347E-03   -0.14602E-03   715   0.997E-03    0.238E-01
DAV:  12    -0.122362501710E+04    0.13741E-03   -0.11044E-03   637   0.586E-03    0.144E-01
DAV:  13    -0.122362503621E+04   -0.19106E-04   -0.54810E-04   650   0.558E-03
  40 F= -.12539587E+04 E0= -.12538898E+04  d E =-.102598E-03
 curvature:  69.14 expect dE= 0.975E+00 dE for cont linesearch  0.637E-02
 ZBRENT: bracketing found
 ZBRENT: interpolating
 opt :   0.5695  next Energy= -1253.959672 (dE=-0.106E-02)
 bond charge predicted
       N       E                     dE             d eps       ncg     rms          rms(c)
DAV:   1    -0.122362364680E+04    0.13703E-02   -0.19087E+00  1170   0.986E-01    0.457E-01
DAV:   2    -0.122362777313E+04   -0.41263E-02   -0.47272E-02  1638   0.200E-01    0.418E-01
DAV:   3    -0.122365818611E+04   -0.30413E-01   -0.33798E-02  1612   0.941E-02    0.383E+00
DAV:   4    -0.122363700134E+04    0.21185E-01   -0.19573E-02  1430   0.803E-02    0.605E-01
DAV:   5    -0.122362909435E+04    0.79070E-02   -0.54899E-03  1118   0.434E-02    0.582E-01
DAV:   6    -0.122362722788E+04    0.18665E-02   -0.11312E-03   988   0.253E-02    0.170E-01
DAV:   7    -0.122362799063E+04   -0.76275E-03   -0.11446E-03  1105   0.216E-02    0.503E-01
DAV:   8    -0.122362699962E+04    0.99101E-03   -0.81140E-04   897   0.186E-02    0.175E-01
DAV:   9    -0.122362725921E+04   -0.25959E-03   -0.89586E-04   741   0.123E-02    0.370E-01
DAV:  10    -0.122362677150E+04    0.48771E-03   -0.63835E-04   702   0.892E-03    0.161E-01
DAV:  11    -0.122362689425E+04   -0.12275E-03   -0.52571E-04   702   0.740E-03    0.236E-01
DAV:  12    -0.122362675583E+04    0.13842E-03   -0.29316E-04   637   0.470E-03    0.150E-01
DAV:  13    -0.122362679532E+04   -0.39494E-04   -0.16914E-04   637   0.386E-03
  41 F= -.12539597E+04 E0= -.12538900E+04  d E =-.104897E-02
 curvature:  -1.21 expect dE=-0.447E-02 dE for cont linesearch -0.496E-06
 trial: gam= 0.82604 g(F)=  0.371E-02 g(S)=  0.000E+00 ort =-0.258E-03 (trialstep = 0.196E+00)
 search vector abs. value=  0.114E+00
 bond charge predicted
       N       E                     dE             d eps       ncg     rms          rms(c)
DAV:   1    -0.122362655689E+04    0.19894E-03   -0.24521E-01  1170   0.364E-01    0.216E-01
DAV:   2    -0.122363231849E+04   -0.57616E-02   -0.16721E-02  1716   0.101E-01    0.803E-01
DAV:   3    -0.122362914696E+04    0.31715E-02   -0.17806E-02  1300   0.672E-02    0.773E-01
DAV:   4    -0.122362813794E+04    0.10090E-02   -0.27102E-03   949   0.300E-02    0.391E-01
DAV:   5    -0.122362733678E+04    0.80115E-03   -0.57532E-04   884   0.178E-02    0.234E-01
DAV:   6    -0.122362705473E+04    0.28205E-03   -0.40537E-04   806   0.151E-02    0.101E-01
DAV:   7    -0.122362725863E+04   -0.20390E-03   -0.20120E-04   793   0.128E-02    0.257E-01
DAV:   8    -0.122362696518E+04    0.29346E-03   -0.17918E-04   702   0.100E-02    0.565E-02
DAV:   9    -0.122362703399E+04   -0.68811E-04   -0.15327E-04   676   0.739E-03
  42 F= -.12539603E+04 E0= -.12538910E+04  d E =-.595646E-03
 ZBRENT: can't locate minimum, use default step
 trial-energy change:   -0.000596  1 .order   -0.000614   -0.000683   -0.000545
 step:   0.7823(harm=  0.9692)  dis= 0.01761  next Energy= -1253.961352 (dE=-0.169E-02)
 bond charge predicted
       N       E                     dE             d eps       ncg     rms          rms(c)
DAV:   1    -0.122362265006E+04    0.43151E-02   -0.22044E+00  1170   0.109E+00    0.527E-01
DAV:   2    -0.122363498938E+04   -0.12339E-01   -0.74736E-02  1716   0.252E-01    0.925E-01
DAV:   3    -0.122365148610E+04   -0.16497E-01   -0.72222E-02  1586   0.141E-01    0.334E+00
DAV:   4    -0.122363838871E+04    0.13097E-01   -0.26659E-02  1456   0.899E-02    0.735E-01
DAV:   5    -0.122363041657E+04    0.79721E-02   -0.50517E-03  1209   0.428E-02    0.745E-01
DAV:   6    -0.122362757096E+04    0.28456E-02   -0.18374E-03  1326   0.308E-02    0.362E-01
DAV:   7    -0.122362785424E+04   -0.28328E-03   -0.28732E-03  1157   0.305E-02    0.593E-01
DAV:   8    -0.122362669032E+04    0.11639E-02   -0.63715E-04   975   0.197E-02    0.195E-01
DAV:   9    -0.122362687625E+04   -0.18593E-03   -0.69310E-04   806   0.156E-02    0.365E-01
DAV:  10    -0.122362632705E+04    0.54921E-03   -0.59212E-04   741   0.101E-02    0.116E-01
DAV:  11    -0.122362645711E+04   -0.13006E-03   -0.39361E-04   728   0.882E-03    0.213E-01
DAV:  12    -0.122362629511E+04    0.16199E-03   -0.24523E-04   637   0.549E-03    0.993E-02
DAV:  13    -0.122362634490E+04   -0.49790E-04   -0.16507E-04   637   0.472E-03
  43 F= -.12539607E+04 E0= -.12538921E+04  d E =-.994151E-03
 curvature: -14.88 expect dE=-0.744E-01 dE for cont linesearch -0.666E-04
 ZBRENT: interpolating
 opt :   0.6627  next Energy= -1253.960696 (dE=-0.104E-02)
 bond charge predicted
       N       E                     dE             d eps       ncg     rms          rms(c)
DAV:   1    -0.122362642457E+04   -0.12945E-03   -0.91741E-02  1170   0.223E-01    0.137E-01
DAV:   2    -0.122362713823E+04   -0.71366E-03   -0.30269E-03  1625   0.489E-02    0.330E-01
DAV:   3    -0.122362908832E+04   -0.19501E-02   -0.51285E-03   975   0.355E-02    0.882E-01
DAV:   4    -0.122362704962E+04    0.20387E-02   -0.22884E-03   910   0.287E-02    0.213E-01
DAV:   5    -0.122362678244E+04    0.26718E-03   -0.37884E-04   767   0.123E-02    0.169E-01
DAV:   6    -0.122362660140E+04    0.18104E-03   -0.14822E-04   689   0.741E-03    0.435E-02
DAV:   7    -0.122362667636E+04   -0.74962E-04   -0.24044E-04   650   0.638E-03
  44 F= -.12539608E+04 E0= -.12538919E+04  d E =-.110185E-02
 curvature:  -9.54 expect dE=-0.357E-01 dE for cont linesearch -0.212E-04
 trial: gam= 0.91722 g(F)=  0.374E-02 g(S)=  0.000E+00 ort =-0.503E-03 (trialstep = 0.289E+00)
 search vector abs. value=  0.986E-01
 bond charge predicted
       N       E                     dE             d eps       ncg     rms          rms(c)
DAV:   1    -0.122362613368E+04    0.46771E-03   -0.50040E-01  1170   0.505E-01    0.233E-01
DAV:   2    -0.122362899221E+04   -0.28585E-02   -0.15485E-02  1755   0.110E-01    0.534E-01
DAV:   3    -0.122363119970E+04   -0.22075E-02   -0.13641E-02  1339   0.607E-02    0.119E+00
DAV:   4    -0.122362814568E+04    0.30540E-02   -0.40266E-03   975   0.367E-02    0.359E-01
DAV:   5    -0.122362727592E+04    0.86976E-03   -0.77327E-04   897   0.195E-02    0.208E-01
DAV:   6    -0.122362705743E+04    0.21849E-03   -0.42885E-04   845   0.165E-02    0.135E-01
DAV:   7    -0.122362707968E+04   -0.22254E-04   -0.69398E-04   832   0.135E-02
  45 F= -.12539617E+04 E0= -.12538915E+04  d E =-.894704E-03
 trial-energy change:   -0.000895  1 .order   -0.000792   -0.000947   -0.000638
 step:   0.8850(harm=  0.8850)  dis= 0.01938  next Energy= -1253.962211 (dE=-0.145E-02)
 bond charge predicted
       N       E                     dE             d eps       ncg     rms          rms(c)
DAV:   1    -0.122362278834E+04    0.42691E-02   -0.21177E+00  1170   0.105E+00    0.471E-01
DAV:   2    -0.122362856659E+04   -0.57782E-02   -0.54009E-02  1690   0.211E-01    0.599E-01
DAV:   3    -0.122365430947E+04   -0.25743E-01   -0.40260E-02  1599   0.111E-01    0.355E+00
DAV:   4    -0.122363551510E+04    0.18794E-01   -0.19559E-02  1391   0.789E-02    0.698E-01
DAV:   5    -0.122362721704E+04    0.82981E-02   -0.49142E-03  1196   0.418E-02    0.360E-01
DAV:   6    -0.122362673414E+04    0.48289E-03   -0.28490E-03  1313   0.281E-02    0.353E-01
DAV:   7    -0.122362627731E+04    0.45683E-03   -0.51386E-03  1014   0.207E-02    0.201E-01
DAV:   8    -0.122362633486E+04   -0.57544E-04   -0.45720E-03   845   0.169E-02    0.241E-01
DAV:   9    -0.122362611033E+04    0.22452E-03   -0.36365E-03   741   0.130E-02    0.133E-01
DAV:  10    -0.122362606681E+04    0.43522E-04   -0.19780E-03   689   0.924E-03    0.113E-01
DAV:  11    -0.122362600533E+04    0.61478E-04   -0.11547E-03   650   0.657E-03    0.703E-02
DAV:  12    -0.122362600096E+04    0.43696E-05   -0.51699E-04   637   0.494E-03
  46 F= -.12539616E+04 E0= -.12538943E+04  d E =-.846883E-03
 curvature: -13.32 expect dE=-0.131E+00 dE for cont linesearch -0.378E-03
 ZBRENT: interpolating
 opt :   0.6280  next Energy= -1253.961823 (dE=-0.106E-02)
 bond charge predicted
       N       E                     dE             d eps       ncg     rms          rms(c)
DAV:   1    -0.122362604636E+04   -0.41030E-04   -0.39390E-01  1170   0.449E-01    0.197E-01
DAV:   2    -0.122362679646E+04   -0.75010E-03   -0.95348E-03  1690   0.879E-02    0.134E-01
DAV:   3    -0.122362739968E+04   -0.60322E-03   -0.19377E-03   962   0.261E-02    0.449E-01
DAV:   4    -0.122362704574E+04    0.35393E-03   -0.21719E-03   832   0.235E-02    0.256E-01
DAV:   5    -0.122362676105E+04    0.28470E-03   -0.46109E-04   819   0.157E-02    0.138E-01
DAV:   6    -0.122362673661E+04    0.24433E-04   -0.19286E-04   715   0.952E-03
  47 F= -.12539619E+04 E0= -.12538937E+04  d E =-.113514E-02
 curvature:  -7.58 expect dE=-0.373E-01 dE for cont linesearch -0.188E-04
 trial: gam= 1.30038 g(F)=  0.492E-02 g(S)=  0.000E+00 ort =-0.495E-03 (trialstep = 0.207E+00)
 search vector abs. value=  0.170E+00
 bond charge predicted
       N       E                     dE             d eps       ncg     rms          rms(c)
DAV:   1    -0.122362622811E+04    0.53294E-03   -0.45539E-01  1170   0.467E-01    0.218E-01
DAV:   2    -0.122362825956E+04   -0.20315E-02   -0.13638E-02  1755   0.105E-01    0.466E-01
DAV:   3    -0.122363132103E+04   -0.30615E-02   -0.10570E-02  1170   0.524E-02    0.121E+00
DAV:   4    -0.122362826020E+04    0.30608E-02   -0.48150E-03   962   0.389E-02    0.357E-01
DAV:   5    -0.122362731241E+04    0.94780E-03   -0.10302E-03   975   0.210E-02    0.226E-01
DAV:   6    -0.122362702913E+04    0.28327E-03   -0.49389E-04   819   0.138E-02    0.998E-02
DAV:   7    -0.122362715265E+04   -0.12351E-03   -0.41237E-04   754   0.118E-02    0.199E-01
DAV:   8    -0.122362698975E+04    0.16289E-03   -0.44615E-04   689   0.940E-03    0.798E-02
DAV:   9    -0.122362699896E+04   -0.92066E-05   -0.29341E-04   689   0.736E-03
  48 F= -.12539627E+04 E0= -.12538939E+04  d E =-.801472E-03
 ZBRENT: can't locate minimum, use default step
 trial-energy change:   -0.000801  1 .order   -0.000817   -0.000883   -0.000750
 step:   0.8260(harm=  1.3685)  dis= 0.02441  next Energy= -1253.964823 (dE=-0.293E-02)
 bond charge predicted
       N       E                     dE             d eps       ncg     rms          rms(c)
DAV:   1    -0.122362051769E+04    0.64721E-02   -0.40634E+00  1170   0.140E+00    0.644E-01
DAV:   2    -0.122363836541E+04   -0.17848E-01   -0.12849E-01  1664   0.302E-01    0.102E+00
DAV:   3    -0.122365890494E+04   -0.20540E-01   -0.11151E-01  1651   0.169E-01    0.382E+00
DAV:   4    -0.122364174492E+04    0.17160E-01   -0.35651E-02  1521   0.101E-01    0.861E-01
DAV:   5    -0.122363068472E+04    0.11060E-01   -0.72103E-03  1404   0.485E-02    0.714E-01
DAV:   6    -0.122362832255E+04    0.23622E-02   -0.50340E-03  1300   0.336E-02    0.532E-01
DAV:   7    -0.122362760772E+04    0.71483E-03   -0.87131E-03  1482   0.402E-02    0.503E-01
DAV:   8    -0.122362701740E+04    0.59033E-03   -0.50529E-03   949   0.236E-02    0.285E-01
DAV:   9    -0.122362678089E+04    0.23651E-03   -0.53282E-03   845   0.174E-02    0.250E-01
DAV:  10    -0.122362655496E+04    0.22593E-03   -0.32856E-03   754   0.116E-02    0.137E-01
DAV:  11    -0.122362651798E+04    0.36983E-04   -0.23740E-03   689   0.898E-03    0.148E-01
DAV:  12    -0.122362641611E+04    0.10187E-03   -0.12534E-03   676   0.777E-03    0.270E-02
DAV:  13    -0.122362644931E+04   -0.33196E-04   -0.63697E-04   650   0.502E-03
  49 F= -.12539638E+04 E0= -.12538963E+04  d E =-.190038E-02
 curvature: -21.32 expect dE=-0.141E+00 dE for cont linesearch -0.220E-06
 trial: gam= 1.13632 g(F)=  0.661E-02 g(S)=  0.000E+00 ort = 0.419E-04 (trialstep = 0.248E+00)
 search vector abs. value=  0.227E+00
 bond charge predicted
       N       E                     dE             d eps       ncg     rms          rms(c)
DAV:   1    -0.122362534504E+04    0.10711E-02   -0.85992E-01  1170   0.649E-01    0.288E-01
DAV:   2    -0.122363005834E+04   -0.47133E-02   -0.26515E-02  1703   0.144E-01    0.651E-01
DAV:   3    -0.122363220757E+04   -0.21492E-02   -0.20341E-02  1482   0.740E-02    0.139E+00
DAV:   4    -0.122362870586E+04    0.35017E-02   -0.60809E-03  1131   0.448E-02    0.444E-01
DAV:   5    -0.122362728676E+04    0.14191E-02   -0.11491E-03   962   0.231E-02    0.294E-01
DAV:   6    -0.122362685520E+04    0.43156E-03   -0.84285E-04  1261   0.222E-02    0.157E-01
DAV:   7    -0.122362691954E+04   -0.64348E-04   -0.39883E-04   910   0.161E-02
  50 F= -.12539652E+04 E0= -.12538949E+04  d E =-.138621E-02
 trial-energy change:   -0.001386  1 .order   -0.001226   -0.001654   -0.000799
 step:   0.4801(harm=  0.4801)  dis= 0.01630  next Energy= -1253.965395 (dE=-0.160E-02)
 bond charge predicted
       N       E                     dE             d eps       ncg     rms          rms(c)
DAV:   1    -0.122362504678E+04    0.18084E-02   -0.74820E-01  1170   0.608E-01    0.309E-01
DAV:   2    -0.122363886302E+04   -0.13816E-01   -0.53299E-02  1794   0.172E-01    0.970E-01
DAV:   3    -0.122362689306E+04    0.11970E-01   -0.40508E-02  1586   0.102E-01    0.455E-01
DAV:   4    -0.122362714384E+04   -0.25077E-03   -0.22071E-03  1079   0.285E-02    0.418E-01
DAV:   5    -0.122362641575E+04    0.72809E-03   -0.78916E-04  1196   0.214E-02    0.235E-01
DAV:   6    -0.122362695297E+04   -0.53723E-03   -0.14158E-03  1027   0.236E-02    0.444E-01
DAV:   7    -0.122362621347E+04    0.73951E-03   -0.14924E-03   871   0.224E-02    0.116E-01
DAV:   8    -0.122362613317E+04    0.80301E-04   -0.13443E-03   689   0.104E-02    0.106E-01
DAV:   9    -0.122362618556E+04   -0.52394E-04   -0.97114E-04   650   0.998E-03
  51 F= -.12539653E+04 E0= -.12538957E+04  d E =-.151671E-02
 curvature:  -8.17 expect dE=-0.468E-01 dE for cont linesearch -0.969E-06
 trial: gam= 0.98091 g(F)=  0.573E-02 g(S)=  0.000E+00 ort = 0.164E-03 (trialstep = 0.295E+00)
 search vector abs. value=  0.224E+00
 bond charge predicted
       N       E                     dE             d eps       ncg     rms          rms(c)
DAV:   1    -0.122362457711E+04    0.15561E-02   -0.11732E+00  1170   0.775E-01    0.357E-01
DAV:   2    -0.122363271472E+04   -0.81376E-02   -0.42128E-02  1742   0.179E-01    0.801E-01
DAV:   3    -0.122363369859E+04   -0.98388E-03   -0.37385E-02  1573   0.985E-02    0.163E+00
DAV:   4    -0.122362983495E+04    0.38636E-02   -0.95436E-03  1170   0.540E-02    0.576E-01
DAV:   5    -0.122362734007E+04    0.24949E-02   -0.15211E-03  1105   0.271E-02    0.371E-01
DAV:   6    -0.122362659682E+04    0.74324E-03   -0.12991E-03  1118   0.233E-02    0.211E-01
DAV:   7    -0.122362671578E+04   -0.11896E-03   -0.24461E-03   910   0.196E-02    0.312E-01
DAV:   8    -0.122362648849E+04    0.22730E-03   -0.21569E-03   780   0.155E-02    0.170E-01
DAV:   9    -0.122362640474E+04    0.83746E-04   -0.17648E-03   689   0.101E-02    0.144E-01
DAV:  10    -0.122362633112E+04    0.73621E-04   -0.11132E-03   650   0.817E-03    0.830E-02
DAV:  11    -0.122362632012E+04    0.10999E-04   -0.70383E-04   650   0.559E-03
  52 F= -.12539665E+04 E0= -.12538989E+04  d E =-.118377E-02
 trial-energy change:   -0.001184  1 .order   -0.001396   -0.001736   -0.001056
 step:   0.7526(harm=  0.7526)  dis= 0.02539  next Energy= -1253.967530 (dE=-0.222E-02)
 bond charge predicted
       N       E                     dE             d eps       ncg     rms          rms(c)
DAV:   1    -0.122362127743E+04    0.50537E-02   -0.28358E+00  1170   0.120E+00    0.537E-01
DAV:   2    -0.122363294558E+04   -0.11668E-01   -0.83859E-02  1677   0.264E-01    0.859E-01
DAV:   3    -0.122365559130E+04   -0.22646E-01   -0.76140E-02  1651   0.142E-01    0.370E+00
DAV:   4    -0.122363832961E+04    0.17262E-01   -0.27121E-02  1495   0.932E-02    0.784E-01
DAV:   5    -0.122362871009E+04    0.96195E-02   -0.58824E-03  1248   0.449E-02    0.620E-01
DAV:   6    -0.122362682303E+04    0.18871E-02   -0.18263E-03  1313   0.316E-02    0.417E-01
DAV:   7    -0.122362640837E+04    0.41466E-03   -0.42834E-03  1196   0.307E-02    0.392E-01
DAV:   8    -0.122362608607E+04    0.32229E-03   -0.30911E-03   923   0.229E-02    0.259E-01
DAV:   9    -0.122362592035E+04    0.16572E-03   -0.28624E-03   819   0.159E-02    0.232E-01
DAV:  10    -0.122362569688E+04    0.22348E-03   -0.17861E-03   728   0.114E-02    0.119E-01
DAV:  11    -0.122362567179E+04    0.25092E-04   -0.12594E-03   689   0.875E-03    0.112E-01
DAV:  12    -0.122362561140E+04    0.60383E-04   -0.59062E-04   650   0.649E-03
  53 F= -.12539674E+04 E0= -.12539001E+04  d E =-.213085E-02
 curvature: -14.33 expect dE=-0.705E-01 dE for cont linesearch -0.521E-04
 trial: gam= 0.41520 g(F)=  0.492E-02 g(S)=  0.000E+00 ort = 0.903E-03 (trialstep = 0.386E+00)
 search vector abs. value=  0.443E-01
 bond charge predicted
       N       E                     dE             d eps       ncg     rms          rms(c)
DAV:   1    -0.122362563521E+04    0.36573E-04   -0.40845E-01  1170   0.450E-01    0.221E-01
DAV:   2    -0.122362828875E+04   -0.26535E-02   -0.18145E-02  1716   0.994E-02    0.590E-01
DAV:   3    -0.122363052269E+04   -0.22339E-02   -0.17645E-02  1183   0.568E-02    0.118E+00
DAV:   4    -0.122362766224E+04    0.28605E-02   -0.59863E-03  1027   0.404E-02    0.388E-01
DAV:   5    -0.122362661920E+04    0.10430E-02   -0.74388E-04   897   0.194E-02    0.235E-01
DAV:   6    -0.122362633006E+04    0.28914E-03   -0.29284E-04   780   0.139E-02    0.131E-01
DAV:   7    -0.122362638813E+04   -0.58067E-04   -0.28528E-04   793   0.135E-02
  54 F= -.12539689E+04 E0= -.12539002E+04  d E =-.143412E-02
 trial-energy change:   -0.001434  1 .order   -0.001330   -0.002045   -0.000615
 step:   0.5524(harm=  0.5524)  dis= 0.00761  next Energy= -1253.968907 (dE=-0.146E-02)
 bond charge predicted
       N       E                     dE             d eps       ncg     rms          rms(c)
DAV:   1    -0.122362592617E+04    0.40389E-03   -0.74724E-02  1170   0.192E-01    0.111E-01
DAV:   2    -0.122362879922E+04   -0.28731E-02   -0.74119E-03  1716   0.619E-02    0.597E-01
DAV:   3    -0.122362628855E+04    0.25107E-02   -0.62924E-03  1066   0.401E-02    0.238E-01
DAV:   4    -0.122362610306E+04    0.18550E-03   -0.44164E-04   754   0.129E-02    0.133E-01
DAV:   5    -0.122362604889E+04    0.54168E-04   -0.36207E-04   663   0.866E-03
  55 F= -.12539688E+04 E0= -.12539014E+04  d E =-.137904E-02
 curvature:  -2.31 expect dE=-0.165E-01 dE for cont linesearch -0.106E-06
 trial: gam= 1.60531 g(F)=  0.713E-02 g(S)=  0.000E+00 ort = 0.450E-04 (trialstep = 0.153E+00)
 search vector abs. value=  0.121E+00
 bond charge predicted
       N       E                     dE             d eps       ncg     rms          rms(c)
DAV:   1    -0.122362616953E+04   -0.66471E-04   -0.17238E-01  1170   0.304E-01    0.148E-01
DAV:   2    -0.122362909754E+04   -0.29280E-02   -0.82072E-03  1768   0.773E-02    0.607E-01
DAV:   3    -0.122362692706E+04    0.21705E-02   -0.69566E-03  1170   0.440E-02    0.369E-01
DAV:   4    -0.122362666420E+04    0.26285E-03   -0.60204E-04   793   0.174E-02    0.210E-01
DAV:   5    -0.122362651156E+04    0.15265E-03   -0.19437E-04   715   0.114E-02    0.146E-01
DAV:   6    -0.122362650857E+04    0.29816E-05   -0.32450E-04   845   0.139E-02
  56 F= -.12539698E+04 E0= -.12539008E+04  d E =-.939896E-03
 trial-energy change:   -0.000940  1 .order   -0.000948   -0.001102   -0.000794
 step:   0.5476(harm=  0.5476)  dis= 0.01195  next Energy= -1253.970794 (dE=-0.197E-02)
 bond charge predicted
       N       E                     dE             d eps       ncg     rms          rms(c)
DAV:   1    -0.122362489896E+04    0.16126E-02   -0.11487E+00  1170   0.787E-01    0.386E-01
DAV:   2    -0.122363398683E+04   -0.90879E-02   -0.41084E-02  1768   0.185E-01    0.102E+00
DAV:   3    -0.122363731464E+04   -0.33278E-02   -0.38368E-02  1534   0.990E-02    0.198E+00
DAV:   4    -0.122363212904E+04    0.51856E-02   -0.15492E-02  1209   0.641E-02    0.657E-01
DAV:   5    -0.122362768924E+04    0.44398E-02   -0.32200E-03  1300   0.387E-02    0.431E-01
DAV:   6    -0.122362686735E+04    0.82189E-03   -0.14216E-03   988   0.219E-02    0.251E-01
DAV:   7    -0.122362709494E+04   -0.22759E-03   -0.34585E-03   923   0.215E-02    0.403E-01
DAV:   8    -0.122362665470E+04    0.44025E-03   -0.31308E-03   819   0.162E-02    0.239E-01
DAV:   9    -0.122362649417E+04    0.16052E-03   -0.18725E-03   767   0.137E-02    0.203E-01
DAV:  10    -0.122362638261E+04    0.11156E-03   -0.12722E-03   637   0.798E-03    0.125E-01
DAV:  11    -0.122362638948E+04   -0.68713E-05   -0.62912E-04   637   0.572E-03
  57 F= -.12539709E+04 E0= -.12539026E+04  d E =-.206646E-02
 curvature:  -4.62 expect dE=-0.302E-01 dE for cont linesearch -0.925E-04
 ZBRENT: extrapolating
 opt :   0.7172  next Energy= -1253.971022 (dE=-0.220E-02)
 bond charge predicted
       N       E                     dE             d eps       ncg     rms          rms(c)
DAV:   1    -0.122362565517E+04    0.72744E-03   -0.21406E-01  1170   0.340E-01    0.221E-01
DAV:   2    -0.122362874673E+04   -0.30916E-02   -0.12609E-02  1729   0.803E-02    0.698E-01
DAV:   3    -0.122363163475E+04   -0.28880E-02   -0.19260E-02  1209   0.615E-02    0.137E+00
DAV:   4    -0.122362764892E+04    0.39858E-02   -0.66666E-03  1053   0.412E-02    0.383E-01
DAV:   5    -0.122362645013E+04    0.11988E-02   -0.94621E-04   923   0.205E-02    0.273E-01
DAV:   6    -0.122362601549E+04    0.43464E-03   -0.32645E-04   806   0.143E-02    0.104E-01
DAV:   7    -0.122362610300E+04   -0.87510E-04   -0.34517E-04   767   0.120E-02
  58 F= -.12539711E+04 E0= -.12539026E+04  d E =-.231890E-02
 curvature:  -6.61 expect dE=-0.541E-01 dE for cont linesearch -0.187E-04
 trial: gam= 0.59215 g(F)=  0.820E-02 g(S)=  0.000E+00 ort = 0.586E-03 (trialstep = 0.266E+00)
 search vector abs. value=  0.515E-01
 bond charge predicted
       N       E                     dE             d eps       ncg     rms          rms(c)
DAV:   1    -0.122362641324E+04   -0.39775E-03   -0.24753E-01  1170   0.345E-01    0.177E-01
DAV:   2    -0.122362980681E+04   -0.33936E-02   -0.12764E-02  1664   0.821E-02    0.649E-01
DAV:   3    -0.122362837413E+04    0.14327E-02   -0.11919E-02  1118   0.536E-02    0.661E-01
DAV:   4    -0.122362740731E+04    0.96682E-03   -0.19722E-03   897   0.267E-02    0.294E-01
DAV:   5    -0.122362699167E+04    0.41564E-03   -0.43622E-04   793   0.142E-02    0.183E-01
DAV:   6    -0.122362682628E+04    0.16539E-03   -0.25458E-04   780   0.129E-02    0.976E-02
DAV:   7    -0.122362690578E+04   -0.79495E-04   -0.16351E-04   793   0.118E-02
  59 F= -.12539725E+04 E0= -.12539029E+04  d E =-.133660E-02
 trial-energy change:   -0.001337  1 .order   -0.001541   -0.002272   -0.000810
 step:   0.4132(harm=  0.4132)  dis= 0.00585  next Energy= -1253.972907 (dE=-0.177E-02)
 bond charge predicted
       N       E                     dE             d eps       ncg     rms          rms(c)
DAV:   1    -0.122362650477E+04    0.32151E-03   -0.75916E-02  1170   0.193E-01    0.742E-02
DAV:   2    -0.122362670643E+04   -0.20166E-03   -0.20546E-03  1625   0.435E-02    0.114E-01
DAV:   3    -0.122362683538E+04   -0.12895E-03   -0.49061E-04   832   0.139E-02    0.222E-01
DAV:   4    -0.122362670848E+04    0.12691E-03   -0.48839E-04   754   0.129E-02    0.134E-01
DAV:   5    -0.122362664824E+04    0.60236E-04   -0.98465E-05   689   0.765E-03
  60 F= -.12539725E+04 E0= -.12539043E+04  d E =-.137616E-02
 curvature:  -1.24 expect dE=-0.829E-02 dE for cont linesearch -0.530E-06
 trial: gam= 0.81713 g(F)=  0.666E-02 g(S)=  0.000E+00 ort = 0.148E-03 (trialstep = 0.295E+00)
 search vector abs. value=  0.413E-01
 bond charge predicted
       N       E                     dE             d eps       ncg     rms          rms(c)
DAV:   1    -0.122362723652E+04   -0.52804E-03   -0.25779E-01  1170   0.383E-01    0.156E-01
DAV:   2    -0.122362913587E+04   -0.18994E-02   -0.76876E-03  1716   0.811E-02    0.655E-01
DAV:   3    -0.122362875912E+04    0.37676E-03   -0.46958E-03  1079   0.365E-02    0.415E-01
DAV:   4    -0.122362776341E+04    0.99571E-03   -0.10171E-03   949   0.228E-02    0.141E-01
DAV:   5    -0.122362767506E+04    0.88353E-04   -0.21245E-04   780   0.985E-03
  61 F= -.12539741E+04 E0= -.12539069E+04  d E =-.153253E-02
 trial-energy change:   -0.001533  1 .order   -0.001621   -0.002001   -0.001240
 step:   0.7759(harm=  0.7759)  dis= 0.00943  next Energy= -1253.975147 (dE=-0.263E-02)
 bond charge predicted
       N       E                     dE             d eps       ncg     rms          rms(c)
DAV:   1    -0.122362634667E+04    0.14167E-02   -0.67945E-01  1170   0.625E-01    0.239E-01
DAV:   2    -0.122362820256E+04   -0.18559E-02   -0.17582E-02  1716   0.124E-01    0.380E-01
DAV:   3    -0.122363322629E+04   -0.50237E-02   -0.11591E-02  1352   0.570E-02    0.144E+00
DAV:   4    -0.122362883475E+04    0.43915E-02   -0.60059E-03  1131   0.432E-02    0.361E-01
DAV:   5    -0.122362770420E+04    0.11305E-02   -0.11241E-03  1040   0.218E-02    0.226E-01
DAV:   6    -0.122362745734E+04    0.24686E-03   -0.37889E-04   936   0.161E-02    0.144E-01
DAV:   7    -0.122362751006E+04   -0.52716E-04   -0.60823E-04   923   0.146E-02
  62 F= -.12539747E+04 E0= -.12539055E+04  d E =-.219587E-02
 curvature:  -2.36 expect dE=-0.215E-01 dE for cont linesearch -0.864E-04
 ZBRENT: interpolating
 opt :   0.6671  next Energy= -1253.974781 (dE=-0.226E-02)
 bond charge predicted
       N       E                     dE             d eps       ncg     rms          rms(c)
DAV:   1    -0.122362760058E+04   -0.14324E-03   -0.35955E-02  1170   0.142E-01    0.113E-01
DAV:   2    -0.122362929103E+04   -0.16905E-02   -0.71945E-03  1313   0.449E-02    0.514E-01
DAV:   3    -0.122362861787E+04    0.67317E-03   -0.89491E-03   988   0.377E-02    0.496E-01
DAV:   4    -0.122362777679E+04    0.84108E-03   -0.18860E-03   819   0.206E-02    0.138E-01
DAV:   5    -0.122362767456E+04    0.10223E-03   -0.11417E-03   702   0.853E-03    0.103E-01
DAV:   6    -0.122362762832E+04    0.46244E-04   -0.73170E-04   676   0.661E-03
  63 F= -.12539746E+04 E0= -.12539067E+04  d E =-.212597E-02
 curvature:  -1.83 expect dE=-0.121E-01 dE for cont linesearch -0.501E-05
 trial: gam= 0.92481 g(F)=  0.662E-02 g(S)=  0.000E+00 ort =-0.336E-03 (trialstep = 0.369E+00)
 search vector abs. value=  0.413E-01
 bond charge predicted
       N       E                     dE             d eps       ncg     rms          rms(c)
DAV:   1    -0.122362780256E+04   -0.12800E-03   -0.38076E-01  1170   0.442E-01    0.196E-01
DAV:   2    -0.122362999105E+04   -0.21885E-02   -0.12672E-02  1690   0.998E-02    0.487E-01
DAV:   3    -0.122363110686E+04   -0.11158E-02   -0.89613E-03  1222   0.506E-02    0.905E-01
DAV:   4    -0.122362919965E+04    0.19072E-02   -0.29615E-03  1001   0.322E-02    0.291E-01
DAV:   5    -0.122362870866E+04    0.49099E-03   -0.62642E-04   910   0.168E-02    0.186E-01
DAV:   6    -0.122362853572E+04    0.17294E-03   -0.32205E-04   780   0.138E-02    0.104E-01
DAV:   7    -0.122362860746E+04   -0.71739E-04   -0.11961E-04   754   0.121E-02
  64 F= -.12539764E+04 E0= -.12539072E+04  d E =-.174364E-02
 trial-energy change:   -0.001744  1 .order   -0.001673   -0.002331   -0.001016
 step:   0.6547(harm=  0.6547)  dis= 0.00830  next Energy= -1253.976709 (dE=-0.207E-02)
 bond charge predicted
       N       E                     dE             d eps       ncg     rms          rms(c)
DAV:   1    -0.122362783869E+04    0.69702E-03   -0.22566E-01  1170   0.339E-01    0.176E-01
DAV:   2    -0.122363099071E+04   -0.31520E-02   -0.14835E-02  1755   0.894E-02    0.621E-01
DAV:   3    -0.122362986883E+04    0.11219E-02   -0.13781E-02  1196   0.522E-02    0.667E-01
DAV:   4    -0.122362868703E+04    0.11818E-02   -0.26076E-03   936   0.255E-02    0.259E-01
DAV:   5    -0.122362834824E+04    0.33879E-03   -0.77431E-04   897   0.135E-02    0.158E-01
DAV:   6    -0.122362822108E+04    0.12716E-03   -0.80473E-04   702   0.116E-02    0.941E-02
DAV:   7    -0.122362828114E+04   -0.60061E-04   -0.10533E-03   793   0.113E-02    0.137E-01
DAV:   8    -0.122362819781E+04    0.83333E-04   -0.76830E-04   650   0.921E-03
  65 F= -.12539766E+04 E0= -.12539094E+04  d E =-.192741E-02
 curvature:  -2.14 expect dE=-0.141E-01 dE for cont linesearch -0.435E-05
 trial: gam= 1.00557 g(F)=  0.659E-02 g(S)=  0.000E+00 ort =-0.290E-03 (trialstep = 0.369E+00)
 search vector abs. value=  0.478E-01
 bond charge predicted
       N       E                     dE             d eps       ncg     rms          rms(c)
DAV:   1    -0.122362787690E+04    0.40424E-03   -0.42463E-01  1170   0.452E-01    0.235E-01
DAV:   2    -0.122362921955E+04   -0.13426E-02   -0.17591E-02  1677   0.973E-02    0.346E-01
DAV:   3    -0.122362959829E+04   -0.37874E-03   -0.15086E-02  1105   0.286E-02    0.401E-01
DAV:   4    -0.122363067000E+04   -0.10717E-02   -0.12837E-02   949   0.383E-02    0.752E-01
DAV:   5    -0.122362897452E+04    0.16955E-02   -0.44010E-03   923   0.275E-02    0.206E-01
DAV:   6    -0.122362880285E+04    0.17167E-03   -0.19617E-03   871   0.141E-02    0.191E-01
DAV:   7    -0.122362867319E+04    0.12966E-03   -0.17050E-03   806   0.141E-02    0.100E-01
DAV:   8    -0.122362868439E+04   -0.11194E-04   -0.10316E-03   754   0.122E-02    0.132E-01
DAV:   9    -0.122362861506E+04    0.69323E-04   -0.62419E-04   637   0.683E-03
  66 F= -.12539778E+04 E0= -.12539099E+04  d E =-.127146E-02
 trial-energy change:   -0.001271  1 .order   -0.001305   -0.002323   -0.000287
 step:   0.4207(harm=  0.4207)  dis= 0.00476  next Energy= -1253.977896 (dE=-0.132E-02)
 bond charge predicted
       N       E                     dE             d eps       ncg     rms          rms(c)
DAV:   1    -0.122362849931E+04    0.18507E-03   -0.85915E-03  1118   0.644E-02    0.826E-02
DAV:   2    -0.122362904737E+04   -0.54806E-03   -0.24251E-03   845   0.225E-02    0.337E-01
DAV:   3    -0.122362940778E+04   -0.36041E-03   -0.39968E-03   858   0.269E-02    0.487E-01
DAV:   4    -0.122362866503E+04    0.74275E-03   -0.12493E-03   793   0.177E-02    0.141E-01
DAV:   5    -0.122362855129E+04    0.11374E-03   -0.25736E-04   702   0.898E-03    0.835E-02
DAV:   6    -0.122362850676E+04    0.44529E-04   -0.77288E-05   650   0.622E-03
  67 F= -.12539779E+04 E0= -.12539106E+04  d E =-.128390E-02
 curvature:  -1.60 expect dE=-0.666E-02 dE for cont linesearch -0.305E-07
 trial: gam= 0.57486 g(F)=  0.417E-02 g(S)=  0.000E+00 ort =-0.302E-04 (trialstep = 0.379E+00)
 search vector abs. value=  0.199E-01
 bond charge predicted
       N       E                     dE             d eps       ncg     rms          rms(c)
DAV:   1    -0.122362883285E+04   -0.28156E-03   -0.17781E-01  1170   0.341E-01    0.159E-01
DAV:   2    -0.122363000326E+04   -0.11704E-02   -0.57461E-03  1612   0.738E-02    0.466E-01
DAV:   3    -0.122363060768E+04   -0.60443E-03   -0.49057E-03  1105   0.395E-02    0.465E-01
DAV:   4    -0.122362922466E+04    0.13830E-02   -0.15773E-03   871   0.256E-02    0.132E-01
DAV:   5    -0.122362920469E+04    0.19971E-04   -0.16166E-04   754   0.942E-03
  68 F= -.12539791E+04 E0= -.12539136E+04  d E =-.129374E-02
 trial-energy change:   -0.001294  1 .order   -0.001276   -0.001576   -0.000975
 step:   0.9943(harm=  0.9943)  dis= 0.00791  next Energy= -1253.979922 (dE=-0.207E-02)
 bond charge predicted
       N       E                     dE             d eps       ncg     rms          rms(c)
DAV:   1    -0.122362800401E+04    0.12207E-02   -0.46428E-01  1170   0.552E-01    0.264E-01
DAV:   2    -0.122362964200E+04   -0.16380E-02   -0.12642E-02  1703   0.109E-01    0.439E-01
DAV:   3    -0.122363396960E+04   -0.43276E-02   -0.90504E-03  1313   0.501E-02    0.133E+00
DAV:   4    -0.122363073848E+04    0.32311E-02   -0.83335E-03  1105   0.448E-02    0.457E-01
DAV:   5    -0.122362917527E+04    0.15632E-02   -0.11504E-03  1014   0.244E-02    0.261E-01
DAV:   6    -0.122362885895E+04    0.31632E-03   -0.36813E-04   884   0.144E-02    0.177E-01
DAV:   7    -0.122362880358E+04    0.55373E-04   -0.10284E-03   871   0.145E-02    0.159E-01
DAV:   8    -0.122362869506E+04    0.10851E-03   -0.11558E-03   728   0.123E-02    0.742E-02
DAV:   9    -0.122362869465E+04    0.41939E-06   -0.78625E-04   689   0.907E-03
  69 F= -.12539796E+04 E0= -.12539118E+04  d E =-.175487E-02
 curvature:  -2.38 expect dE=-0.164E-01 dE for cont linesearch -0.343E-04
 trial: gam= 1.86108 g(F)=  0.687E-02 g(S)=  0.000E+00 ort =-0.535E-03 (trialstep = 0.135E+00)
 search vector abs. value=  0.739E-01
 bond charge predicted
       N       E                     dE             d eps       ncg     rms          rms(c)
DAV:   1    -0.122362868170E+04    0.13369E-04   -0.83243E-02  1170   0.225E-01    0.107E-01
DAV:   2    -0.122362894377E+04   -0.26208E-03   -0.29005E-03  1677   0.480E-02    0.168E-01
DAV:   3    -0.122362950618E+04   -0.56241E-03   -0.26448E-03   884   0.193E-02    0.427E-01
DAV:   4    -0.122362908741E+04    0.41877E-03   -0.19465E-03   780   0.195E-02    0.211E-01
DAV:   5    -0.122362888343E+04    0.20398E-03   -0.26543E-04   702   0.100E-02    0.105E-01
DAV:   6    -0.122362881459E+04    0.68846E-04   -0.70378E-05   663   0.617E-03
  70 F= -.12539802E+04 E0= -.12539131E+04  d E =-.595714E-03
 trial-energy change:   -0.000596  1 .order   -0.000677   -0.000795   -0.000559
 step:   0.4560(harm=  0.4560)  dis= 0.00656  next Energy= -1253.980949 (dE=-0.134E-02)
 bond charge predicted
       N       E                     dE             d eps       ncg     rms          rms(c)
DAV:   1    -0.122362765208E+04    0.12314E-02   -0.46295E-01  1170   0.532E-01    0.256E-01
DAV:   2    -0.122362919192E+04   -0.15398E-02   -0.12752E-02  1638   0.104E-01    0.418E-01
DAV:   3    -0.122363300542E+04   -0.38135E-02   -0.85654E-03  1326   0.485E-02    0.123E+00
DAV:   4    -0.122363014626E+04    0.28592E-02   -0.78172E-03  1105   0.445E-02    0.443E-01
DAV:   5    -0.122362881371E+04    0.13326E-02   -0.10640E-03   988   0.241E-02    0.270E-01
DAV:   6    -0.122362842846E+04    0.38525E-03   -0.43605E-04   806   0.146E-02    0.139E-01
DAV:   7    -0.122362846683E+04   -0.38374E-04   -0.10097E-03   845   0.138E-02    0.188E-01
DAV:   8    -0.122362830429E+04    0.16254E-03   -0.10611E-03   728   0.113E-02    0.695E-02
DAV:   9    -0.122362831864E+04   -0.14354E-04   -0.65904E-04   650   0.845E-03
  71 F= -.12539808E+04 E0= -.12539127E+04  d E =-.123009E-02
 curvature:  -2.87 expect dE=-0.219E-01 dE for cont linesearch -0.212E-05
 trial: gam= 0.74053 g(F)=  0.765E-02 g(S)=  0.000E+00 ort = 0.234E-03 (trialstep = 0.200E+00)
 search vector abs. value=  0.485E-01
 bond charge predicted
       N       E                     dE             d eps       ncg     rms          rms(c)
[...]
 bond charge predicted
       N       E                     dE             d eps       ncg     rms          rms(c)
DAV:   1    -0.122356740034E+04    0.15866E-03   -0.16136E-02  1170   0.891E-02    0.574E-02
DAV:   2    -0.122356759808E+04   -0.19774E-03   -0.20575E-03   949   0.228E-02    0.191E-01
DAV:   3    -0.122356757706E+04    0.21019E-04   -0.23249E-03   793   0.176E-02    0.178E-01
DAV:   4    -0.122356746718E+04    0.10988E-03   -0.89321E-04   702   0.152E-02    0.985E-02
DAV:   5    -0.122356743658E+04    0.30603E-04   -0.40174E-04   637   0.624E-03
 440 F= -.12541250E+04 E0= -.12540590E+04  d E =-.876790E-03
 curvature:  -2.03 expect dE=-0.345E-02 dE for cont linesearch -0.135E-05
 trial: gam= 0.35881 g(F)=  0.170E-02 g(S)=  0.000E+00 ort = 0.228E-03 (trialstep = 0.275E+00)
 search vector abs. value=  0.119E-01
 bond charge predicted
       N       E                     dE             d eps       ncg     rms          rms(c)
DAV:   1    -0.122356741180E+04    0.55385E-04   -0.51342E-02  1170   0.189E-01    0.980E-02
DAV:   2    -0.122356785340E+04   -0.44160E-03   -0.18995E-03  1651   0.431E-02    0.281E-01
DAV:   3    -0.122356810222E+04   -0.24883E-03   -0.25355E-03  1014   0.287E-02    0.314E-01
DAV:   4    -0.122356750909E+04    0.59313E-03   -0.94203E-04   819   0.208E-02    0.924E-02
DAV:   5    -0.122356750271E+04    0.63813E-05   -0.13940E-04   637   0.585E-03
 441 F= -.12541254E+04 E0= -.12540603E+04  d E =-.384841E-03
 trial-energy change:   -0.000385  1 .order   -0.000380   -0.000490   -0.000269
 step:   0.6087(harm=  0.6087)  dis= 0.00453  next Energy= -1254.125539 (dE=-0.542E-03)
 bond charge predicted
       N       E                     dE             d eps       ncg     rms          rms(c)
DAV:   1    -0.122356715443E+04    0.35467E-03   -0.75322E-02  1170   0.229E-01    0.135E-01
DAV:   2    -0.122356814282E+04   -0.98839E-03   -0.46498E-03  1690   0.524E-02    0.450E-01
DAV:   3    -0.122356843726E+04   -0.29444E-03   -0.61585E-03  1287   0.417E-02    0.417E-01
DAV:   4    -0.122356725968E+04    0.11776E-02   -0.19194E-03   962   0.283E-02    0.102E-01
DAV:   5    -0.122356727178E+04   -0.12099E-04   -0.45788E-04   754   0.816E-03
 442 F= -.12541255E+04 E0= -.12540603E+04  d E =-.540355E-03
 curvature:  -2.03 expect dE=-0.249E-02 dE for cont linesearch -0.249E-06
 trial: gam= 0.86442 g(F)=  0.122E-02 g(S)=  0.000E+00 ort =-0.382E-04 (trialstep = 0.342E+00)
 search vector abs. value=  0.101E-01
 bond charge predicted
       N       E                     dE             d eps       ncg     rms          rms(c)
DAV:   1    -0.122356698402E+04    0.27566E-03   -0.66798E-02  1170   0.204E-01    0.121E-01
DAV:   2    -0.122357016032E+04   -0.31763E-02   -0.61562E-03  1638   0.596E-02    0.954E-01
DAV:   3    -0.122356772302E+04    0.24373E-02   -0.55768E-03  1248   0.431E-02    0.288E-01
DAV:   4    -0.122356712722E+04    0.59579E-03   -0.69011E-04   897   0.160E-02    0.112E-01
DAV:   5    -0.122356707564E+04    0.51585E-04   -0.60366E-04   741   0.812E-03
 443 F= -.12541257E+04 E0= -.12540602E+04  d E =-.169315E-03
 trial-energy change:   -0.000169  1 .order   -0.000199   -0.000407    0.000009
 step:   0.3344(harm=  0.3344)  dis= 0.00235  next Energy= -1254.125736 (dE=-0.199E-03)
 bond charge predicted
       N       E                     dE             d eps       ncg     rms          rms(c)
DAV:   1    -0.122356705943E+04    0.67790E-04   -0.62075E-04   741   0.928E-03    0.712E-02
DAV:   2    -0.122356730542E+04   -0.24599E-03   -0.21919E-03   689   0.800E-03    0.229E-01
DAV:   3    -0.122356711826E+04    0.18716E-03   -0.31086E-03   754   0.890E-03    0.123E-01
DAV:   4    -0.122356713061E+04   -0.12345E-04   -0.16370E-03   715   0.101E-02    0.126E-01
DAV:   5    -0.122356705728E+04    0.73329E-04   -0.63405E-04   637   0.611E-03
 444 F= -.12541257E+04 E0= -.12540593E+04  d E =-.143048E-03
 curvature:  -1.41 expect dE=-0.783E-03 dE for cont linesearch -0.374E-06
 trial: gam= 0.30753 g(F)=  0.554E-03 g(S)=  0.000E+00 ort = 0.516E-04 (trialstep = 0.340E+00)
 search vector abs. value=  0.154E-02
 bond charge predicted
       N       E                     dE             d eps       ncg     rms          rms(c)
DAV:   1    -0.122356703857E+04    0.92037E-04   -0.13048E-02  1144   0.966E-02    0.665E-02
DAV:   2    -0.122356791911E+04   -0.88054E-03   -0.22589E-03   923   0.281E-02    0.473E-01
DAV:   3    -0.122356736114E+04    0.55798E-03   -0.26977E-03   923   0.267E-02    0.224E-01
DAV:   4    -0.122356712347E+04    0.23767E-03   -0.38548E-04   715   0.123E-02    0.104E-01
DAV:   5    -0.122356704147E+04    0.82002E-04   -0.82332E-05   650   0.548E-03
 445 F= -.12541258E+04 E0= -.12540600E+04  d E =-.107972E-03
 trial-energy change:   -0.000108  1 .order   -0.000131   -0.000194   -0.000068
 step:   0.5255(harm=  0.5255)  dis= 0.00154  next Energy= -1254.125830 (dE=-0.150E-03)
 bond charge predicted
       N       E                     dE             d eps       ncg     rms          rms(c)
DAV:   1    -0.122356699918E+04    0.12429E-03   -0.37550E-03  1118   0.525E-02    0.428E-02
DAV:   2    -0.122356706525E+04   -0.66070E-04   -0.14923E-04   819   0.115E-02
 446 F= -.12541259E+04 E0= -.12540605E+04  d E =-.199135E-03
 curvature:  -0.71 expect dE=-0.531E-03 dE for cont linesearch -0.441E-06
 trial: gam= 1.33598 g(F)=  0.750E-03 g(S)=  0.000E+00 ort =-0.309E-04 (trialstep = 0.170E+00)
 search vector abs. value=  0.341E-02
 bond charge predicted
       N       E                     dE             d eps       ncg     rms          rms(c)
DAV:   1    -0.122356698348E+04    0.15697E-04   -0.70832E-03  1131   0.749E-02    0.737E-02
DAV:   2    -0.122356920313E+04   -0.22197E-02   -0.38858E-03  1248   0.390E-02    0.565E-01
DAV:   3    -0.122356709900E+04    0.21041E-02   -0.39423E-03  1092   0.377E-02    0.139E-01
DAV:   4    -0.122356714999E+04   -0.50992E-04   -0.25892E-04   767   0.103E-02
 447 F= -.12541261E+04 E0= -.12540613E+04  d E =-.176279E-03
 trial-energy change:   -0.000176  1 .order   -0.000102   -0.000120   -0.000083
 step:   0.5424(harm=  0.5424)  dis= 0.00229  next Energy= -1254.126071 (dE=-0.192E-03)
 bond charge predicted
       N       E                     dE             d eps       ncg     rms          rms(c)
DAV:   1    -0.122356671420E+04    0.38481E-03   -0.33450E-02  1170   0.163E-01    0.952E-02
DAV:   2    -0.122357138334E+04   -0.46691E-02   -0.57554E-03  1482   0.554E-02    0.123E+00
DAV:   3    -0.122356731873E+04    0.40646E-02   -0.47769E-03  1235   0.459E-02    0.246E-01
DAV:   4    -0.122356682214E+04    0.49659E-03   -0.61452E-04   962   0.190E-02    0.626E-02
DAV:   5    -0.122356677740E+04    0.44740E-04   -0.90268E-05   767   0.101E-02
 448 F= -.12541259E+04 E0= -.12540606E+04  d E =-.401167E-05
 curvature:  -1.31 expect dE=-0.122E-02 dE for cont linesearch -0.322E-04
 ZBRENT: interpolating
 opt :   0.4034  next Energy= -1254.125903 (dE=-0.242E-04)
 bond charge predicted
       N       E                     dE             d eps       ncg     rms          rms(c)
DAV:   1    -0.122356685043E+04   -0.28293E-04   -0.47545E-03  1131   0.612E-02    0.476E-02
DAV:   2    -0.122356792911E+04   -0.10787E-02   -0.14620E-03   936   0.259E-02    0.521E-01
DAV:   3    -0.122356696790E+04    0.96121E-03   -0.14167E-03   910   0.264E-02    0.134E-01
DAV:   4    -0.122356686004E+04    0.10785E-03   -0.12068E-04   715   0.835E-03    0.200E-02
DAV:   5    -0.122356687152E+04   -0.11483E-04   -0.41810E-05   624   0.454E-03
 449 F= -.12541259E+04 E0= -.12540605E+04  d E =-.233361E-04
 curvature:  -0.82 expect dE=-0.520E-03 dE for cont linesearch -0.409E-05
 ZBRENT: interpolating
 opt :   0.3135  next Energy= -1254.125909 (dE=-0.305E-04)
 bond charge predicted
       N       E                     dE             d eps       ncg     rms          rms(c)
DAV:   1    -0.122356690558E+04   -0.45536E-04   -0.19820E-03  1105   0.394E-02    0.215E-02
DAV:   2    -0.122356703211E+04   -0.12653E-03   -0.28383E-04   728   0.114E-02    0.157E-01
DAV:   3    -0.122356692548E+04    0.10663E-03   -0.28522E-04   728   0.115E-02    0.657E-02
DAV:   4    -0.122356691143E+04    0.14051E-04   -0.28636E-05   611   0.435E-03
 450 F= -.12541259E+04 E0= -.12540598E+04  d E =-.148714E-04
 curvature:  -1.42 expect dE=-0.690E-03 dE for cont linesearch -0.104E-07
 trial: gam= 0.38071 g(F)=  0.485E-03 g(S)=  0.000E+00 ort =-0.500E-05 (trialstep = 0.199E+00)
 search vector abs. value=  0.976E-03
 bond charge predicted
       N       E                     dE             d eps       ncg     rms          rms(c)
DAV:   1    -0.122356691166E+04    0.13824E-04   -0.29456E-03  1092   0.376E-02    0.274E-02
DAV:   2    -0.122356693481E+04   -0.23154E-04   -0.10062E-04   780   0.910E-03
 451 F= -.12541260E+04 E0= -.12540599E+04  d E =-.907605E-04
 trial-energy change:   -0.000091  1 .order   -0.000066   -0.000096   -0.000037
 step:   0.3216(harm=  0.3216)  dis= 0.00069  next Energy= -1254.125972 (dE=-0.777E-04)
 bond charge predicted
       N       E                     dE             d eps       ncg     rms          rms(c)
DAV:   1    -0.122356689677E+04    0.14885E-04   -0.11539E-03   845   0.241E-02    0.439E-02
DAV:   2    -0.122356713519E+04   -0.23842E-03   -0.24889E-04   767   0.118E-02    0.236E-01
DAV:   3    -0.122356708466E+04    0.50525E-04   -0.74491E-04   754   0.164E-02
 452 F= -.12541262E+04 E0= -.12540636E+04  d E =-.282281E-03
 curvature:  -0.32 expect dE=-0.122E-03 dE for cont linesearch -0.108E-09
 trial: gam= 0.82435 g(F)=  0.374E-03 g(S)=  0.000E+00 ort =-0.570E-06 (trialstep = 0.210E+00)
 search vector abs. value=  0.104E-02
 bond charge predicted
       N       E                     dE             d eps       ncg     rms          rms(c)
DAV:   1    -0.122356687087E+04    0.26432E-03   -0.35010E-03  1170   0.441E-02    0.671E-02
DAV:   2    -0.122356730851E+04   -0.43764E-03   -0.39629E-04   832   0.143E-02    0.299E-01
DAV:   3    -0.122356731544E+04   -0.69328E-05   -0.15269E-03   858   0.236E-02    0.337E-01
DAV:   4    -0.122356695670E+04    0.35874E-03   -0.56777E-04   715   0.143E-02    0.125E-01
DAV:   5    -0.122356688045E+04    0.76246E-04   -0.74969E-05   650   0.630E-03
 453 F= -.12541260E+04 E0= -.12540595E+04  d E =0.129226E-03
 trial-energy change:    0.000129  1 .order   -0.000047   -0.000079   -0.000015
 step:   0.2609(harm=  0.2609)  dis= 0.00064  next Energy= -1254.126225 (dE=-0.488E-04)
 bond charge predicted
       N       E                     dE             d eps       ncg     rms          rms(c)
DAV:   1    -0.122356685361E+04    0.10309E-03   -0.22762E-04   780   0.115E-02    0.597E-02
DAV:   2    -0.122356719151E+04   -0.33790E-03   -0.42315E-04   728   0.985E-03    0.282E-01
DAV:   3    -0.122356723614E+04   -0.44632E-04   -0.14036E-03   845   0.202E-02    0.260E-01
DAV:   4    -0.122356690112E+04    0.33502E-03   -0.53747E-04   702   0.127E-02    0.994E-02
DAV:   5    -0.122356685907E+04    0.42048E-04   -0.77695E-05   650   0.436E-03
 454 F= -.12541260E+04 E0= -.12540608E+04  d E =0.132502E-03
 curvature:  -0.36 expect dE=-0.566E-04 dE for cont linesearch -0.213E-05
 ZBRENT: increasing intervall
 opt :   0.3624  next Energy= -1254.126052 (dE= 0.124E-03)
 bond charge predicted
       N       E                     dE             d eps       ncg     rms          rms(c)
DAV:   1    -0.122356680349E+04    0.97635E-04   -0.79075E-04   819   0.210E-02    0.313E-02
DAV:   2    -0.122356688627E+04   -0.82783E-04   -0.66706E-05   689   0.789E-03
 455 F= -.12541261E+04 E0= -.12540594E+04  d E =0.690712E-04
 curvature:  -1.44 expect dE=-0.416E-03 dE for cont linesearch -0.729E-05
 ZBRENT: bracketing found
 ZBRENT: interpolating
 opt :   0.3136  next Energy= -1254.126109 (dE= 0.673E-04)
 bond charge predicted
       N       E                     dE             d eps       ncg     rms          rms(c)
DAV:   1    -0.122356685585E+04   -0.52363E-04   -0.32456E-04   806   0.142E-02    0.858E-02
DAV:   2    -0.122357507138E+04   -0.82155E-02   -0.92155E-03  1248   0.548E-02    0.172E+00
DAV:   3    -0.122356795500E+04    0.71164E-02   -0.69196E-03  1222   0.534E-02    0.284E-01
DAV:   4    -0.122356694258E+04    0.10124E-02   -0.10177E-03  1014   0.223E-02    0.782E-02
DAV:   5    -0.122356686572E+04    0.76860E-04   -0.18860E-04   663   0.825E-03
 456 F= -.12541261E+04 E0= -.12540608E+04  d E =0.107051E-03
 curvature:  -0.35 expect dE=-0.702E-04 dE for cont linesearch -0.617E-06
 ZBRENT: interpolating
 opt :   0.3317  next Energy= -1254.126070 (dE= 0.107E-03)
 bond charge predicted
       N       E                     dE             d eps       ncg     rms          rms(c)
DAV:   1    -0.122356680848E+04    0.13410E-03   -0.13166E-04   702   0.646E-03    0.243E-02
DAV:   2    -0.122356690173E+04   -0.93246E-04   -0.22252E-04   650   0.661E-03
 457 F= -.12541261E+04 E0= -.12540593E+04  d E =0.645729E-04
 curvature:  -0.22 expect dE=-0.601E-04 dE for cont linesearch -0.314E-06
 trial: gam= 0.81679 g(F)=  0.274E-03 g(S)=  0.000E+00 ort =-0.385E-04 (trialstep = 0.235E+00)
 search vector abs. value=  0.902E-03
 bond charge predicted
       N       E                     dE             d eps       ncg     rms          rms(c)
DAV:   1    -0.122356679047E+04    0.18017E-04   -0.32293E-03  1183   0.433E-02    0.744E-02
DAV:   2    -0.122357223878E+04   -0.54483E-02   -0.60925E-03  1209   0.453E-02    0.135E+00
DAV:   3    -0.122356739274E+04    0.48460E-02   -0.48721E-03  1157   0.453E-02    0.231E-01
DAV:   4    -0.122356685433E+04    0.53841E-03   -0.62984E-04   923   0.188E-02    0.458E-02
DAV:   5    -0.122356682048E+04    0.33852E-04   -0.10386E-04   663   0.738E-03
 458 F= -.12541261E+04 E0= -.12540608E+04  d E =0.268641E-04
 trial-energy change:    0.000027  1 .order   -0.000041   -0.000057   -0.000025
 step:   0.4216(harm=  0.4216)  dis= 0.00088  next Energy= -1254.126163 (dE=-0.511E-04)
 bond charge predicted
       N       E                     dE             d eps       ncg     rms          rms(c)
DAV:   1    -0.122356674497E+04    0.10936E-03   -0.19897E-03  1092   0.336E-02    0.362E-02
DAV:   2    -0.122356703645E+04   -0.29147E-03   -0.93370E-04   793   0.147E-02    0.259E-01
DAV:   3    -0.122356680958E+04    0.22687E-03   -0.96468E-04   754   0.158E-02    0.113E-01
DAV:   4    -0.122356675251E+04    0.57066E-04   -0.14269E-04   637   0.561E-03
 459 F= -.12541261E+04 E0= -.12540601E+04  d E =0.514163E-04
 curvature:  -0.79 expect dE=-0.237E-03 dE for cont linesearch -0.196E-05
 trial: gam= 0.93734 g(F)=  0.302E-03 g(S)=  0.000E+00 ort =-0.475E-04 (trialstep = 0.244E+00)
 search vector abs. value=  0.101E-02
 bond charge predicted
       N       E                     dE             d eps       ncg     rms          rms(c)
DAV:   1    -0.122356672789E+04    0.81689E-04   -0.34992E-03  1105   0.424E-02    0.488E-02
DAV:   2    -0.122356683230E+04   -0.10441E-03   -0.54989E-04   780   0.110E-02    0.149E-01
DAV:   3    -0.122356687206E+04   -0.39761E-04   -0.91295E-04   728   0.115E-02
 460 F= -.12541263E+04 E0= -.12540633E+04  d E =-.190637E-03
 trial-energy change:   -0.000191  1 .order   -0.000047   -0.000063   -0.000031
 step:   0.4876(harm=  0.4876)  dis= 0.00127  next Energy= -1254.126123 (dE=-0.628E-04)
 bond charge predicted
       N       E                     dE             d eps       ncg     rms          rms(c)
DAV:   1    -0.122356670435E+04    0.12794E-03   -0.37785E-03  1157   0.443E-02    0.805E-02
DAV:   2    -0.122356827197E+04   -0.15676E-02   -0.27040E-03   949   0.271E-02    0.509E-01
DAV:   3    -0.122356702358E+04    0.12484E-02   -0.40490E-03   962   0.349E-02    0.266E-01
DAV:   4    -0.122356686633E+04    0.15725E-03   -0.61199E-04   741   0.128E-02    0.172E-01
DAV:   5    -0.122356669643E+04    0.16990E-03   -0.12388E-04   663   0.630E-03    0.581E-02
DAV:   6    -0.122356670917E+04   -0.12743E-04   -0.47607E-05   663   0.565E-03
 461 F= -.12541262E+04 E0= -.12540607E+04  d E =-.987753E-04
 curvature:  -0.95 expect dE=-0.248E-03 dE for cont linesearch -0.138E-05
 trial: gam= 0.71354 g(F)=  0.261E-03 g(S)=  0.000E+00 ort = 0.381E-04 (trialstep = 0.293E+00)
 search vector abs. value=  0.827E-03
 bond charge predicted
       N       E                     dE             d eps       ncg     rms          rms(c)
DAV:   1    -0.122356668090E+04    0.15534E-04   -0.41864E-03  1118   0.508E-02    0.286E-02
DAV:   2    -0.122356677678E+04   -0.95885E-04   -0.18842E-04   793   0.111E-02
 462 F= -.12541263E+04 E0= -.12540588E+04  d E =-.109269E-03
 trial-energy change:   -0.000109  1 .order   -0.000058   -0.000084   -0.000033
 step:   0.4766(harm=  0.4766)  dis= 0.00113  next Energy= -1254.126228 (dE=-0.686E-04)
 bond charge predicted
       N       E                     dE             d eps       ncg     rms          rms(c)
DAV:   1    -0.122356671472E+04   -0.33824E-04   -0.19379E-03  1105   0.348E-02    0.896E-02
DAV:   2    -0.122357534429E+04   -0.86296E-02   -0.93653E-03  1274   0.551E-02    0.178E+00
DAV:   3    -0.122356799014E+04    0.73541E-02   -0.73940E-03  1235   0.545E-02    0.290E-01
DAV:   4    -0.122356682755E+04    0.11626E-02   -0.11375E-03  1027   0.237E-02    0.868E-02
DAV:   5    -0.122356671592E+04    0.11162E-03   -0.26339E-04   663   0.908E-03    0.861E-02
DAV:   6    -0.122356668083E+04    0.35096E-04   -0.18575E-04   637   0.526E-03
 463 F= -.12541262E+04 E0= -.12540603E+04  d E =-.395252E-04
 curvature:  -0.68 expect dE=-0.236E-03 dE for cont linesearch -0.485E-06
 trial: gam= 1.47096 g(F)=  0.344E-03 g(S)=  0.000E+00 ort = 0.242E-04 (trialstep = 0.124E+00)
 search vector abs. value=  0.221E-02
 bond charge predicted
       N       E                     dE             d eps       ncg     rms          rms(c)
DAV:   1    -0.122356668674E+04    0.29178E-04   -0.20542E-03  1079   0.344E-02    0.428E-02
DAV:   2    -0.122356684424E+04   -0.15749E-03   -0.89784E-04   767   0.107E-02    0.191E-01
DAV:   3    -0.122356685255E+04   -0.83093E-05   -0.13444E-03   754   0.148E-02    0.185E-01
DAV:   4    -0.122356670502E+04    0.14753E-03   -0.41214E-04   702   0.961E-03    0.682E-02
DAV:   5    -0.122356667865E+04    0.26374E-04   -0.11311E-04   637   0.350E-03
 464 F= -.12541262E+04 E0= -.12540605E+04  d E =-.321481E-04
 trial-energy change:   -0.000032  1 .order   -0.000040   -0.000047   -0.000032
 step:   0.3952(harm=  0.3952)  dis= 0.00155  next Energy= -1254.126274 (dE=-0.751E-04)
 bond charge predicted
       N       E                     dE             d eps       ncg     rms          rms(c)
DAV:   1    -0.122356666354E+04    0.41479E-04   -0.94001E-03  1131   0.745E-02    0.487E-02
DAV:   2    -0.122356674625E+04   -0.82711E-04   -0.37995E-04   845   0.145E-02
 465 F= -.12541264E+04 E0= -.12540613E+04  d E =-.175274E-03
 curvature:  -1.15 expect dE=-0.416E-03 dE for cont linesearch -0.139E-05
 trial: gam= 0.59791 g(F)=  0.363E-03 g(S)=  0.000E+00 ort = 0.517E-04 (trialstep = 0.178E+00)
 search vector abs. value=  0.121E-02
 bond charge predicted
       N       E                     dE             d eps       ncg     rms          rms(c)
DAV:   1    -0.122356676138E+04   -0.97843E-04   -0.28011E-03  1040   0.344E-02    0.135E-01
DAV:   2    -0.122357411337E+04   -0.73520E-02   -0.17061E-02  1443   0.724E-02    0.869E-01
DAV:   3    -0.122356704661E+04    0.70668E-02   -0.14948E-02  1300   0.684E-02    0.167E-01
DAV:   4    -0.122356695944E+04    0.87170E-04   -0.10229E-03   858   0.145E-02    0.194E-01
DAV:   5    -0.122356671801E+04    0.24143E-03   -0.68046E-04   689   0.107E-02    0.731E-02
DAV:   6    -0.122356673833E+04   -0.20313E-04   -0.47337E-04   702   0.870E-03
 466 F= -.12541264E+04 E0= -.12540602E+04  d E =-.258807E-04
 trial-energy change:   -0.000026  1 .order   -0.000058   -0.000070   -0.000045
 step:   0.5041(harm=  0.5041)  dis= 0.00151  next Energy= -1254.126473 (dE=-0.993E-04)
 reached required accuracy - stopping structural energy minimisation
