basalPlane                              
           1
    15.900000    0.000000    0.000000
    -7.950000   13.769804    0.000000
     0.000000    0.000000   32.380000
   C    Cr   H    Mo   S 
  10   1  10  50 100
Direct configuration=     1
   0.03368775  0.89100461  0.97063487
   0.93423593  0.84356907  0.98245723
   0.09181655  0.93369020  0.00649979
   0.02765162  0.91226920  0.04125702
   0.92934249  0.85614839  0.02606209
   0.94884669  0.07081598  0.96272674
   0.98480435  0.10559558  0.03242029
   0.90679419  0.05355924  0.00356784
   0.07334942  0.15440353  0.00971340
   0.05187400  0.13318312  0.96701757
   0.99997499  0.99620285  0.99956681
   0.86342194  0.82724980  0.04444235
   0.82996739  0.01129220  0.01107190
   0.90959229  0.04352088  0.93382887
   0.97783472  0.10644611  0.06580180
   0.14564612  0.19633336  0.02300090
   0.87251417  0.80709040  0.96167837
   0.06058745  0.89765587  0.93921399
   0.17073474  0.97561251  0.00724733
   0.04941158  0.93204096  0.07323982
   0.10495905  0.15795825  0.94213869
   0.60000000  0.60000000  0.65735022
   0.20000000  0.80000000  0.21911674
   0.20000000  0.60000000  0.65735022
   0.60000000  0.80000000  0.21911674
   0.20000000  0.60000000  0.21911674
   0.60000000  0.80000000  0.65735022
   0.20000000  0.40000000  0.21911674
   0.80000000  0.00000000  0.21911674
   0.20000000  0.20000000  0.65735022
   0.80000000  0.00000000  0.65735022
   0.20000000  0.20000000  0.21911674
   0.20000000  0.80000000  0.65735022
   0.20000000  0.40000000  0.65735022
   0.60000000  0.60000000  0.21911674
   0.40000000  0.60000000  0.21911674
   0.40000000  0.00000000  0.65735022
   0.60000000  0.40000000  0.65735022
   0.40000000  0.20000000  0.21911674
   0.60000000  0.40000000  0.21911674
   0.40000000  0.20000000  0.65735022
   0.40000000  0.40000000  0.21911674
   0.60000000  0.20000000  0.65735022
   0.40000000  0.40000000  0.65735022
   0.60000000  0.20000000  0.21911674
   0.40000000  0.80000000  0.65735022
   0.40000000  0.60000000  0.65735022
   0.60000000  0.00000000  0.65735022
   0.40000000  0.80000000  0.21911674
   0.60000000  0.00000000  0.21911674
   0.40000000  0.00000000  0.21911674
   0.80000000  0.20000000  0.21911674
   0.20000000  0.00000000  0.65735022
   0.20000000  0.00000000  0.21911674
   0.00000000  0.00000000  0.21911674
   0.80000000  0.80000000  0.65735022
   0.00000000  0.00000000  0.65735022
   0.80000000  0.80000000  0.21911674
   0.00000000  0.20000000  0.21911674
   0.00000000  0.20000000  0.65735022
   0.80000000  0.60000000  0.65735022
   0.00000000  0.40000000  0.21911674
   0.00000000  0.40000000  0.65735022
   0.00000000  0.60000000  0.21911674
   0.80000000  0.40000000  0.65735022
   0.00000000  0.60000000  0.65735022
   0.80000000  0.60000000  0.21911674
   0.80000000  0.40000000  0.21911674
   0.00000000  0.80000000  0.65735022
   0.00000000  0.80000000  0.21911674
   0.80000000  0.20000000  0.65735022
   0.93333333  0.06666667  0.16985794
   0.73333333  0.26666667  0.60809141
   0.73333333  0.26666667  0.70660902
   0.93333333  0.66666667  0.70660902
   0.93333333  0.66666667  0.60809141
   0.73333333  0.26666667  0.16985794
   0.73333333  0.26666667  0.26837554
   0.93333333  0.46666667  0.26837554
   0.73333333  0.06666667  0.60809141
   0.73333333  0.06666667  0.70660902
   0.93333333  0.06666667  0.70660902
   0.93333333  0.86666667  0.16985794
   0.73333333  0.06666667  0.16985794
   0.93333333  0.06666667  0.60809141
   0.73333333  0.06666667  0.26837554
   0.93333333  0.26666667  0.16985794
   0.93333333  0.26666667  0.70660902
   0.93333333  0.86666667  0.26837554
   0.73333333  0.46666667  0.26837554
   0.73333333  0.46666667  0.16985794
   0.73333333  0.86666667  0.16985794
   0.73333333  0.86666667  0.70660902
   0.73333333  0.86666667  0.26837554
   0.93333333  0.46666667  0.16985794
   0.73333333  0.86666667  0.60809141
   0.73333333  0.66666667  0.60809141
   0.73333333  0.66666667  0.70660902
   0.93333333  0.46666667  0.70660902
   0.73333333  0.66666667  0.16985794
   0.93333333  0.46666667  0.60809141
   0.73333333  0.66666667  0.26837554
   0.93333333  0.26666667  0.60809141
   0.93333333  0.26666667  0.26837554
   0.73333333  0.46666667  0.60809141
   0.73333333  0.46666667  0.70660902
   0.93333333  0.66666667  0.26837554
   0.93333333  0.06666667  0.26837554
   0.93333333  0.66666667  0.16985794
   0.53333333  0.86666667  0.60809141
   0.53333333  0.06666667  0.70660902
   0.53333333  0.86666667  0.16985794
   0.33333333  0.26666667  0.16985794
   0.33333333  0.26666667  0.26837554
   0.33333333  0.06666667  0.60809141
   0.33333333  0.06666667  0.70660902
   0.33333333  0.06666667  0.16985794
   0.33333333  0.06666667  0.26837554
   0.13333333  0.86666667  0.60809141
   0.13333333  0.86666667  0.70660902
   0.13333333  0.86666667  0.16985794
   0.13333333  0.86666667  0.26837554
   0.13333333  0.66666667  0.60809141
   0.13333333  0.66666667  0.70660902
   0.33333333  0.26666667  0.70660902
   0.13333333  0.66666667  0.16985794
   0.13333333  0.46666667  0.60809141
   0.13333333  0.46666667  0.70660902
   0.13333333  0.46666667  0.16985794
   0.13333333  0.46666667  0.26837554
   0.13333333  0.26666667  0.60809141
   0.13333333  0.26666667  0.70660902
   0.13333333  0.26666667  0.16985794
   0.13333333  0.26666667  0.26837554
   0.13333333  0.06666667  0.60809141
   0.13333333  0.06666667  0.70660902
   0.13333333  0.06666667  0.16985794
   0.13333333  0.06666667  0.26837554
   0.13333333  0.66666667  0.26837554
   0.33333333  0.26666667  0.60809141
   0.33333333  0.46666667  0.26837554
   0.33333333  0.46666667  0.16985794
   0.53333333  0.86666667  0.26837554
   0.53333333  0.66666667  0.60809141
   0.53333333  0.66666667  0.70660902
   0.53333333  0.66666667  0.16985794
   0.53333333  0.66666667  0.26837554
   0.53333333  0.46666667  0.60809141
   0.53333333  0.46666667  0.70660902
   0.53333333  0.46666667  0.16985794
   0.53333333  0.46666667  0.26837554
   0.53333333  0.26666667  0.60809141
   0.53333333  0.26666667  0.70660902
   0.53333333  0.26666667  0.16985794
   0.53333333  0.26666667  0.26837554
   0.53333333  0.06666667  0.60809141
   0.93333333  0.86666667  0.70660902
   0.53333333  0.06666667  0.16985794
   0.53333333  0.06666667  0.26837554
   0.33333333  0.86666667  0.60809141
   0.33333333  0.86666667  0.70660902
   0.33333333  0.86666667  0.16985794
   0.33333333  0.86666667  0.26837554
   0.33333333  0.66666667  0.60809141
   0.33333333  0.66666667  0.70660902
   0.33333333  0.66666667  0.16985794
   0.33333333  0.66666667  0.26837554
   0.33333333  0.46666667  0.60809141
   0.33333333  0.46666667  0.70660902
   0.53333333  0.86666667  0.70660902
   0.93333333  0.86666667  0.60809141
Direct configuration=     2
   0.03370102  0.89083543  0.97064889
   0.93427274  0.84347256  0.98245476
   0.09179383  0.93356567  0.00649548
   0.02765843  0.91219230  0.04127761
   0.92932224  0.85605042  0.02607099
   0.94887343  0.07090313  0.96270564
   0.98489966  0.10576662  0.03242494
   0.90680878  0.05363650  0.00358776
   0.07332666  0.15452140  0.00969384
   0.05189218  0.13334894  0.96703767
   0.99989664  0.99618059  0.99961301
   0.86341306  0.82726783  0.04445429
   0.82996168  0.01126127  0.01108410
   0.90959091  0.04349966  0.93383748
   0.97783512  0.10642224  0.06585940
   0.14562196  0.19632384  0.02299772
   0.87251362  0.80709581  0.96166636
   0.06059574  0.89767139  0.93921481
   0.17073018  0.97562460  0.00725967
   0.04939235  0.93206210  0.07329035
   0.10491563  0.15792809  0.94214226
   0.60001809  0.60002077  0.65735177
   0.19999739  0.79999952  0.21911399
   0.20000973  0.60000398  0.65735165
   0.59999811  0.80000046  0.21911285
   0.20000680  0.60000315  0.21911433
   0.60000401  0.80000248  0.65735182
   0.19999681  0.40000132  0.21911238
   0.79998580 -0.00000860  0.21910773
   0.20000263  0.20000009  0.65735338
   0.80000033  0.00000241  0.65735361
   0.20000551  0.20000814  0.21911245
   0.19999883  0.80000220  0.65735168
   0.19999824  0.39999641  0.65735180
   0.59999153  0.59999918  0.21911067
   0.39999905  0.60000487  0.21911320
   0.39997972 -0.00000149  0.65735174
   0.60000125  0.39999681  0.65735156
   0.39998973  0.19999619  0.21911639
   0.60000202  0.39999819  0.21911404
   0.39998739  0.19999381  0.65735080
   0.40000188  0.40000788  0.21911026
   0.60000201  0.20000378  0.65735148
   0.39997887  0.39998109  0.65735173
   0.60000305  0.20000305  0.21911364
   0.39999601  0.79999029  0.65735154
   0.39999499  0.60000449  0.65735177
   0.60001961 -0.00000177  0.65735180
   0.40000069  0.79999467  0.21911372
   0.59999576 -0.00000588  0.21910963
   0.39999997 -0.00000772  0.21911020
   0.80000694  0.19999330  0.21911518
   0.20000236  0.00000306  0.65735349
   0.19999877 -0.00001047  0.21911353
  -0.00000069 -0.00000580  0.21909321
   0.80000047  0.79999892  0.65735351
   0.00000000  0.00000009  0.65734452
   0.79999519  0.80000284  0.21911267
   0.00000517  0.20001151  0.21911072
  -0.00000249  0.20000014  0.65735349
   0.80000650  0.60001286  0.65735092
   0.00000663  0.40000451  0.21910986
   0.00000237  0.39998086  0.65735166
   0.00000798  0.60000509  0.21911052
   0.79999604  0.39999704  0.65735160
   0.00000282  0.60002045  0.65735165
   0.80001037  0.60001447  0.21911559
   0.79999573  0.39999595  0.21911309
  -0.00000186  0.79999860  0.65735338
   0.00000698  0.79999947  0.21910709
   0.80000646  0.19999345  0.65735088
   0.93334359  0.06667526  0.17069873
   0.73333354  0.26666664  0.60896733
   0.73333382  0.26666699  0.70573089
   0.93333394  0.66666561  0.70573125
   0.93333404  0.66666695  0.60896725
   0.73333442  0.26666939  0.17072468
   0.73333404  0.26666610  0.26751084
   0.93333073  0.46666588  0.26751099
   0.73333322  0.06666621  0.60896790
   0.73333279  0.06666679  0.70573063
   0.93333262  0.06666758  0.70572956
   0.93335011  0.86667013  0.17069442
   0.73333316  0.06666784  0.17072310
   0.93333308  0.06666669  0.60896867
   0.73333469  0.06666434  0.26751036
   0.93333359  0.26666841  0.17072008
   0.93333358  0.26666804  0.70573067
   0.93333512  0.86666771  0.26751159
   0.73333414  0.46666835  0.26751082
   0.73333653  0.46666709  0.17072454
   0.73333557  0.86666656  0.17071871
   0.73333264  0.86666677  0.70573027
   0.73333806  0.86666869  0.26751031
   0.93333345  0.46666935  0.17072374
   0.73333420  0.86666734  0.60896834
   0.73333319  0.66666699  0.60896736
   0.73333247  0.66666592  0.70573110
   0.93333348  0.46666626  0.70573149
   0.73333541  0.66666659  0.17072004
   0.93333287  0.46666627  0.60896720
   0.73333276  0.66666880  0.26751007
   0.93333363  0.26666695  0.60896784
   0.93333495  0.26666561  0.26751090
   0.73333353  0.46666649  0.60896680
   0.73333361  0.46666597  0.70573135
   0.93333379  0.66666742  0.26751155
   0.93333336  0.06666691  0.26750917
   0.93333568  0.66666726  0.17071801
   0.53333525  0.86666827  0.60896759
   0.53333374  0.06666651  0.70573113
   0.53333321  0.86666811  0.17072447
   0.33333512  0.26667074  0.17072301
   0.33333095  0.26666671  0.26751032
   0.33333368  0.06666638  0.60896794
   0.33333466  0.06666651  0.70573050
   0.33333360  0.06666248  0.17072234
   0.33333225  0.06666512  0.26751057
   0.13333328  0.86666719  0.60896819
   0.13333408  0.86666614  0.70573050
   0.13331975  0.86667164  0.17070654
   0.13333172  0.86666958  0.26751112
   0.13333261  0.66666703  0.60896735
   0.13333256  0.66666618  0.70573153
   0.33333451  0.26666789  0.70573036
   0.13333055  0.66666387  0.17072334
   0.13333230  0.46666534  0.60896778
   0.13333210  0.46666570  0.70573108
   0.13333162  0.46666968  0.17072408
   0.13333345  0.46666544  0.26751073
   0.13333319  0.26666610  0.60896839
   0.13333368  0.26666791  0.70573030
   0.13333031  0.26666245  0.17071473
   0.13333207  0.26666237  0.26750958
   0.13333371  0.06666672  0.60896865
   0.13333452  0.06666738  0.70572952
   0.13332146  0.06664614  0.17070055
   0.13333108  0.06666489  0.26751064
   0.13333412  0.66666862  0.26751031
   0.33333375  0.26666709  0.60896808
   0.33333226  0.46666441  0.26751038
   0.33333264  0.46666662  0.17072551
   0.53333627  0.86666818  0.26751129
   0.53333474  0.66666708  0.60896763
   0.53333401  0.66666668  0.70573118
   0.53333416  0.66666521  0.17072559
   0.53333615  0.66666709  0.26751039
   0.53333365  0.46666649  0.60896743
   0.53333343  0.46666674  0.70573121
   0.53333530  0.46666657  0.17072582
   0.53333479  0.46666620  0.26750976
   0.53333334  0.26666642  0.60896748
   0.53333404  0.26666672  0.70573069
   0.53333724  0.26666845  0.17072517
   0.53333206  0.26666604  0.26751072
   0.53333367  0.06666689  0.60896754
   0.93333286  0.86666556  0.70572966
   0.53333397  0.06666863  0.17072612
   0.53333418  0.06666914  0.26750978
   0.33333359  0.86666830  0.60896753
   0.33333388  0.86666793  0.70573130
   0.33333126  0.86666585  0.17072445
   0.33333047  0.86666660  0.26751045
   0.33333360  0.66666660  0.60896542
   0.33333319  0.66666631  0.70573356
   0.33332905  0.66666519  0.17072567
   0.33333236  0.66666590  0.26751202
   0.33333352  0.46666554  0.60896799
   0.33333341  0.46666600  0.70573081
   0.53333470  0.86666819  0.70573121
   0.93333331  0.86666641  0.60896853
Direct configuration=     3
   0.03370315  0.89080833  0.97065114
   0.93427864  0.84345710  0.98245436
   0.09179019  0.93354572  0.00649479
   0.02765952  0.91217997  0.04128091
   0.92931899  0.85603472  0.02607241
   0.94887772  0.07091709  0.96270226
   0.98491493  0.10579403  0.03242569
   0.90681112  0.05364887  0.00359096
   0.07332302  0.15454028  0.00969071
   0.05189509  0.13337550  0.96704089
   0.99988409  0.99617703  0.99962041
   0.86341164  0.82727071  0.04445620
   0.82996077  0.01125631  0.01108606
   0.90959069  0.04349626  0.93383885
   0.97783519  0.10641842  0.06586863
   0.14561809  0.19632232  0.02299720
   0.87251353  0.80709668  0.96166444
   0.06059707  0.89767387  0.93921494
   0.17072945  0.97562654  0.00726165
   0.04938927  0.93206549  0.07329845
   0.10490867  0.15792326  0.94214284
   0.60002099  0.60002410  0.65735202
   0.19999698  0.79999944  0.21911354
   0.20001129  0.60000462  0.65735187
   0.59999780  0.80000053  0.21911222
   0.20000788  0.60000365  0.21911394
   0.60000465  0.80000288  0.65735208
   0.19999629  0.40000153  0.21911168
   0.79998353 -0.00000998  0.21910629
   0.20000305  0.20000010  0.65735389
   0.80000039  0.00000279  0.65735416
   0.20000639  0.20000944  0.21911177
   0.19999864  0.80000255  0.65735192
   0.19999796  0.39999583  0.65735206
   0.59999017  0.59999905  0.21910970
   0.39999889  0.60000565  0.21911263
   0.39997647 -0.00000173  0.65735199
   0.60000145  0.39999630  0.65735177
   0.39998808  0.19999559  0.21911633
   0.60000234  0.39999789  0.21911360
   0.39998537  0.19999282  0.65735089
   0.40000218  0.40000915  0.21910922
   0.60000233  0.20000439  0.65735168
   0.39997549  0.39997806  0.65735198
   0.60000353  0.20000354  0.21911315
   0.39999537  0.79998874  0.65735176
   0.39999419  0.60000521  0.65735202
   0.60002276 -0.00000205  0.65735205
   0.40000081  0.79999381  0.21911323
   0.59999508 -0.00000682  0.21910849
   0.39999997 -0.00000895  0.21910915
   0.80000805  0.19999223  0.21911493
   0.20000274  0.00000355  0.65735401
   0.19999857 -0.00001215  0.21911302
  -0.00000080 -0.00000673  0.21908945
   0.80000055  0.79999875  0.65735404
   0.00000000  0.00000010  0.65734361
   0.79999442  0.80000329  0.21911201
   0.00000600  0.20001335  0.21910976
  -0.00000289  0.20000016  0.65735401
   0.80000754  0.60001492  0.65735103
   0.00000769  0.40000523  0.21910876
   0.00000275  0.39997779  0.65735190
   0.00000926  0.60000591  0.21910952
   0.79999541  0.39999657  0.65735182
   0.00000328  0.60002372  0.65735189
   0.80001203  0.60001679  0.21911541
   0.79999505  0.39999530  0.21911251
  -0.00000216  0.79999837  0.65735388
   0.00000810  0.79999938  0.21910554
   0.80000750  0.19999240  0.65735099
   0.93334523  0.06667664  0.17083343
   0.73333358  0.26666664  0.60910766
   0.73333390  0.26666705  0.70559021
   0.93333404  0.66666544  0.70559063
   0.93333415  0.66666699  0.60910756
   0.73333460  0.26666983  0.17086354
   0.73333415  0.26666600  0.26737232
   0.93333031  0.46666575  0.26737249
   0.73333320  0.06666614  0.60910832
   0.73333270  0.06666682  0.70558990
   0.93333250  0.06666773  0.70558866
   0.93335279  0.86667068  0.17082843
   0.73333314  0.06666803  0.17086170
   0.93333304  0.06666670  0.60910921
   0.73333491  0.06666397  0.26737176
   0.93333364  0.26666869  0.17085820
   0.93333362  0.26666826  0.70558995
   0.93333541  0.86666788  0.26737318
   0.73333427  0.46666862  0.26737229
   0.73333704  0.46666716  0.17086338
   0.73333592  0.86666654  0.17085661
   0.73333252  0.86666678  0.70558950
   0.73333882  0.86666902  0.26737169
   0.93333347  0.46666978  0.17086244
   0.73333434  0.86666744  0.60910883
   0.73333316  0.66666705  0.60910768
   0.73333233  0.66666581  0.70559045
   0.93333351  0.46666620  0.70559090
   0.73333574  0.66666658  0.17085816
   0.93333280  0.46666620  0.60910750
   0.73333266  0.66666914  0.26737141
   0.93333368  0.26666700  0.60910825
   0.93333521  0.26666544  0.26737238
   0.73333356  0.46666646  0.60910704
   0.73333365  0.46666586  0.70559074
   0.93333386  0.66666754  0.26737314
   0.93333336  0.06666695  0.26737038
   0.93333606  0.66666736  0.17085579
   0.53333556  0.86666853  0.60910796
   0.53333380  0.06666648  0.70559049
   0.53333318  0.86666834  0.17086329
   0.33333541  0.26667139  0.17086159
   0.33333056  0.26666672  0.26737171
   0.33333374  0.06666633  0.60910836
   0.33333487  0.06666649  0.70558976
   0.33333365  0.06666181  0.17086082
   0.33333208  0.06666488  0.26737200
   0.13333327  0.86666727  0.60910865
   0.13333420  0.86666606  0.70558976
   0.13331757  0.86667243  0.17084248
   0.13333146  0.86667005  0.26737264
   0.13333249  0.66666708  0.60910768
   0.13333243  0.66666611  0.70559095
   0.33333470  0.26666809  0.70558959
   0.13333010  0.66666342  0.17086198
   0.13333213  0.46666513  0.60910818
   0.13333190  0.46666554  0.70559043
   0.13333135  0.46667016  0.17086284
   0.13333347  0.46666524  0.26737219
   0.13333317  0.26666601  0.60910888
   0.13333373  0.26666811  0.70558952
   0.13332982  0.26666177  0.17085199
   0.13333187  0.26666168  0.26737085
   0.13333377  0.06666673  0.60910919
   0.13333471  0.06666749  0.70558862
   0.13331956  0.06664286  0.17083554
   0.13333072  0.06666461  0.26737208
   0.13333424  0.66666894  0.26737170
   0.33333382  0.26666715  0.60910853
   0.33333209  0.46666405  0.26737177
   0.33333253  0.46666661  0.17086450
   0.53333674  0.86666842  0.26737283
   0.53333496  0.66666715  0.60910801
   0.53333412  0.66666668  0.70559055
   0.53333429  0.66666498  0.17086459
   0.53333660  0.66666715  0.26737179
   0.53333370  0.46666647  0.60910777
   0.53333344  0.46666675  0.70559058
   0.53333562  0.46666655  0.17086486
   0.53333502  0.46666612  0.26737106
   0.53333335  0.26666638  0.60910783
   0.53333415  0.26666673  0.70558998
   0.53333786  0.26666873  0.17086411
   0.53333185  0.26666595  0.26737217
   0.53333373  0.06666693  0.60910790
   0.93333278  0.86666538  0.70558879
   0.53333408  0.06666895  0.17086520
   0.53333432  0.06666954  0.26737108
   0.33333363  0.86666857  0.60910789
   0.33333396  0.86666813  0.70559069
   0.33333093  0.86666572  0.17086327
   0.33333001  0.86666659  0.26737186
   0.33333364  0.66666659  0.60910544
   0.33333317  0.66666625  0.70559331
   0.33332837  0.66666496  0.17086468
   0.33333220  0.66666578  0.26737368
   0.33333355  0.46666536  0.60910842
   0.33333343  0.46666589  0.70559012
   0.53333491  0.86666843  0.70559058
   0.93333331  0.86666637  0.60910905
Direct configuration=     4
   0.03370301  0.89081006  0.97065100
   0.93427827  0.84345808  0.98245439
   0.09179042  0.93354699  0.00649484
   0.02765945  0.91218076  0.04128070
   0.92931920  0.85603572  0.02607232
   0.94887744  0.07091620  0.96270248
   0.98491395  0.10579228  0.03242564
   0.90681097  0.05364808  0.00359075
   0.07332325  0.15453908  0.00969091
   0.05189491  0.13337381  0.96704069
   0.99988489  0.99617725  0.99961994
   0.86341173  0.82727053  0.04445608
   0.82996083  0.01125663  0.01108593
   0.90959071  0.04349648  0.93383877
   0.97783519  0.10641866  0.06586804
   0.14561834  0.19632242  0.02299724
   0.87251353  0.80709663  0.96166456
   0.06059698  0.89767371  0.93921493
   0.17072950  0.97562641  0.00726152
   0.04938946  0.93206527  0.07329793
   0.10490911  0.15792357  0.94214280
   0.60002081  0.60002388  0.65735201
   0.19999700  0.79999945  0.21911357
   0.20001119  0.60000458  0.65735186
   0.59999782  0.80000053  0.21911226
   0.20000781  0.60000362  0.21911397
   0.60000461  0.80000286  0.65735206
   0.19999633  0.40000152  0.21911173
   0.79998368 -0.00000989  0.21910638
   0.20000302  0.20000010  0.65735386
   0.80000038  0.00000277  0.65735412
   0.20000633  0.20000936  0.21911181
   0.19999865  0.80000253  0.65735190
   0.19999797  0.39999587  0.65735204
   0.59999026  0.59999906  0.21910976
   0.39999890  0.60000560  0.21911267
   0.39997668 -0.00000171  0.65735197
   0.60000144  0.39999633  0.65735176
   0.39998819  0.19999562  0.21911633
   0.60000232  0.39999791  0.21911363
   0.39998549  0.19999288  0.65735089
   0.40000216  0.40000907  0.21910929
   0.60000231  0.20000435  0.65735167
   0.39997571  0.39997826  0.65735196
   0.60000350  0.20000351  0.21911318
   0.39999541  0.79998883  0.65735174
   0.39999424  0.60000517  0.65735201
   0.60002256 -0.00000203  0.65735204
   0.40000080  0.79999387  0.21911327
   0.59999512 -0.00000676  0.21910857
   0.39999997 -0.00000887  0.21910922
   0.80000798  0.19999230  0.21911495
   0.20000271  0.00000352  0.65735398
   0.19999858 -0.00001204  0.21911305
  -0.00000080 -0.00000667  0.21908969
   0.80000054  0.79999876  0.65735400
   0.00000000  0.00000010  0.65734367
   0.79999446  0.80000327  0.21911205
   0.00000595  0.20001323  0.21910982
  -0.00000286  0.20000016  0.65735398
   0.80000748  0.60001479  0.65735102
   0.00000762  0.40000519  0.21910883
   0.00000272  0.39997799  0.65735188
   0.00000918  0.60000585  0.21910958
   0.79999545  0.39999660  0.65735180
   0.00000325  0.60002351  0.65735187
   0.80001193  0.60001664  0.21911542
   0.79999509  0.39999534  0.21911255
  -0.00000214  0.79999838  0.65735385
   0.00000802  0.79999939  0.21910564
   0.80000743  0.19999247  0.65735098
   0.93334513  0.06667655  0.17082484
   0.73333357  0.26666664  0.60909871
   0.73333389  0.26666704  0.70559918
   0.93333403  0.66666546  0.70559959
   0.93333414  0.66666699  0.60909861
   0.73333458  0.26666980  0.17085468
   0.73333414  0.26666601  0.26738115
   0.93333034  0.46666576  0.26738132
   0.73333320  0.06666614  0.60909936
   0.73333270  0.06666681  0.70559888
   0.93333251  0.06666772  0.70559765
   0.93335262  0.86667065  0.17081988
   0.73333314  0.06666801  0.17085286
   0.93333304  0.06666670  0.60910024
   0.73333490  0.06666399  0.26738060
   0.93333363  0.26666867  0.17084939
   0.93333362  0.26666825  0.70559893
   0.93333539  0.86666787  0.26738201
   0.73333426  0.46666860  0.26738112
   0.73333701  0.46666715  0.17085452
   0.73333590  0.86666654  0.17084781
   0.73333253  0.86666678  0.70559848
   0.73333877  0.86666900  0.26738053
   0.93333347  0.46666975  0.17085360
   0.73333433  0.86666744  0.60909987
   0.73333316  0.66666704  0.60909873
   0.73333234  0.66666581  0.70559943
   0.93333351  0.46666620  0.70559987
   0.73333572  0.66666658  0.17084935
   0.93333280  0.46666621  0.60909855
   0.73333267  0.66666912  0.26738026
   0.93333368  0.26666700  0.60909929
   0.93333519  0.26666545  0.26738122
   0.73333356  0.46666646  0.60909810
   0.73333365  0.46666587  0.70559971
   0.93333386  0.66666754  0.26738197
   0.93333336  0.06666695  0.26737923
   0.93333604  0.66666735  0.17084700
   0.53333554  0.86666851  0.60909900
   0.53333380  0.06666649  0.70559946
   0.53333319  0.86666833  0.17085444
   0.33333539  0.26667135  0.17085275
   0.33333059  0.26666672  0.26738055
   0.33333374  0.06666634  0.60909941
   0.33333486  0.06666649  0.70559874
   0.33333364  0.06666185  0.17085199
   0.33333209  0.06666489  0.26738084
   0.13333327  0.86666727  0.60909969
   0.13333419  0.86666606  0.70559874
   0.13331771  0.86667238  0.17083381
   0.13333148  0.86667002  0.26738147
   0.13333250  0.66666708  0.60909873
   0.13333244  0.66666611  0.70559992
   0.33333469  0.26666808  0.70559857
   0.13333013  0.66666345  0.17085314
   0.13333214  0.46666514  0.60909923
   0.13333191  0.46666555  0.70559940
   0.13333136  0.46667013  0.17085399
   0.13333347  0.46666525  0.26738103
   0.13333317  0.26666601  0.60909992
   0.13333373  0.26666810  0.70559850
   0.13332986  0.26666182  0.17084324
   0.13333188  0.26666172  0.26737970
   0.13333376  0.06666672  0.60910022
   0.13333469  0.06666749  0.70559761
   0.13331968  0.06664306  0.17082693
   0.13333074  0.06666462  0.26738092
   0.13333423  0.66666892  0.26738054
   0.33333381  0.26666715  0.60909957
   0.33333210  0.46666407  0.26738062
   0.33333254  0.46666661  0.17085563
   0.53333671  0.86666841  0.26738166
   0.53333495  0.66666714  0.60909905
   0.53333411  0.66666668  0.70559952
   0.53333428  0.66666499  0.17085572
   0.53333657  0.66666715  0.26738063
   0.53333369  0.46666647  0.60909882
   0.53333344  0.46666675  0.70559955
   0.53333560  0.46666655  0.17085599
   0.53333501  0.46666613  0.26737991
   0.53333334  0.26666638  0.60909888
   0.53333415  0.26666673  0.70559895
   0.53333782  0.26666872  0.17085525
   0.53333186  0.26666595  0.26738101
   0.53333372  0.06666692  0.60909895
   0.93333278  0.86666539  0.70559777
   0.53333407  0.06666893  0.17085633
   0.53333431  0.06666952  0.26737992
   0.33333363  0.86666855  0.60909894
   0.33333396  0.86666812  0.70559965
   0.33333095  0.86666572  0.17085442
   0.33333004  0.86666659  0.26738070
   0.33333364  0.66666659  0.60909651
   0.33333317  0.66666625  0.70560225
   0.33332841  0.66666497  0.17085581
   0.33333221  0.66666579  0.26738250
   0.33333355  0.46666537  0.60909946
   0.33333343  0.46666590  0.70559910
   0.53333490  0.86666842  0.70559955
   0.93333331  0.86666638  0.60910008
Direct configuration=     5
   0.03370303  0.89080982  0.97065102
   0.93427832  0.84345795  0.98245439
   0.09179039  0.93354682  0.00649483
   0.02765946  0.91218065  0.04128073
   0.92931917  0.85603559  0.02607233
   0.94887748  0.07091633  0.96270245
   0.98491409  0.10579251  0.03242565
   0.90681099  0.05364819  0.00359078
   0.07332322  0.15453924  0.00969088
   0.05189493  0.13337404  0.96704072
   0.99988478  0.99617722  0.99962000
   0.86341172  0.82727055  0.04445610
   0.82996082  0.01125659  0.01108595
   0.90959071  0.04349645  0.93383878
   0.97783519  0.10641863  0.06586812
   0.14561830  0.19632240  0.02299723
   0.87251353  0.80709663  0.96166455
   0.06059700  0.89767374  0.93921493
   0.17072949  0.97562643  0.00726154
   0.04938944  0.93206530  0.07329800
   0.10490905  0.15792352  0.94214280
   0.60002083  0.60002391  0.65735201
   0.19999700  0.79999945  0.21911357
   0.20001120  0.60000458  0.65735186
   0.59999782  0.80000053  0.21911226
   0.20000782  0.60000362  0.21911397
   0.60000462  0.80000286  0.65735207
   0.19999632  0.40000152  0.21911172
   0.79998366 -0.00000990  0.21910637
   0.20000302  0.20000010  0.65735386
   0.80000038  0.00000277  0.65735413
   0.20000634  0.20000937  0.21911180
   0.19999865  0.80000253  0.65735191
   0.19999797  0.39999587  0.65735204
   0.59999025  0.59999906  0.21910975
   0.39999890  0.60000561  0.21911266
   0.39997665 -0.00000172  0.65735197
   0.60000144  0.39999633  0.65735176
   0.39998817  0.19999562  0.21911633
   0.60000232  0.39999791  0.21911363
   0.39998548  0.19999288  0.65735089
   0.40000217  0.40000908  0.21910928
   0.60000231  0.20000435  0.65735167
   0.39997568  0.39997823  0.65735196
   0.60000351  0.20000351  0.21911318
   0.39999541  0.79998882  0.65735174
   0.39999423  0.60000517  0.65735201
   0.60002258 -0.00000204  0.65735204
   0.40000080  0.79999386  0.21911326
   0.59999512 -0.00000677  0.21910856
   0.39999997 -0.00000889  0.21910921
   0.80000799  0.19999229  0.21911495
   0.20000272  0.00000352  0.65735398
   0.19999858 -0.00001206  0.21911305
  -0.00000080 -0.00000668  0.21908965
   0.80000054  0.79999876  0.65735401
   0.00000000  0.00000010  0.65734366
   0.79999446  0.80000327  0.21911205
   0.00000595  0.20001325  0.21910981
  -0.00000287  0.20000016  0.65735398
   0.80000749  0.60001481  0.65735102
   0.00000763  0.40000519  0.21910882
   0.00000273  0.39997796  0.65735188
   0.00000919  0.60000586  0.21910957
   0.79999544  0.39999659  0.65735181
   0.00000325  0.60002354  0.65735187
   0.80001194  0.60001666  0.21911542
   0.79999508  0.39999533  0.21911254
  -0.00000214  0.79999838  0.65735386
   0.00000803  0.79999938  0.21910563
   0.80000744  0.19999246  0.65735099
   0.93334514  0.06667656  0.17082601
   0.73333357  0.26666664  0.60909992
   0.73333389  0.26666704  0.70559796
   0.93333404  0.66666545  0.70559838
   0.93333414  0.66666699  0.60909982
   0.73333459  0.26666980  0.17085588
   0.73333415  0.26666601  0.26737995
   0.93333033  0.46666576  0.26738012
   0.73333320  0.06666614  0.60910058
   0.73333270  0.06666681  0.70559766
   0.93333251  0.06666772  0.70559643
   0.93335265  0.86667065  0.17082105
   0.73333314  0.06666802  0.17085406
   0.93333304  0.06666670  0.60910146
   0.73333490  0.06666399  0.26737940
   0.93333363  0.26666868  0.17085059
   0.93333362  0.26666825  0.70559771
   0.93333539  0.86666787  0.26738081
   0.73333426  0.46666861  0.26737992
   0.73333702  0.46666715  0.17085573
   0.73333590  0.86666654  0.17084901
   0.73333253  0.86666678  0.70559726
   0.73333878  0.86666900  0.26737933
   0.93333347  0.46666976  0.17085480
   0.73333433  0.86666744  0.60910109