  93  93   0   0
  0.3967126E+02  0.9570947E-09  0.1276126E-08  0.3488026E-08  0.5000000E-15
  1.000000000000000E-004
  CAR 
 basalPlane                              
      2.32357994    -19.29434159  301      0.01298257      1.00000000
    -19.294  0.0000E+00  0.0000E+00
    -19.222  0.0000E+00  0.0000E+00
    -19.150  0.0000E+00  0.0000E+00
    -19.078  0.0000E+00  0.0000E+00
    -19.006  0.0000E+00  0.0000E+00
    -18.934  0.0000E+00  0.0000E+00
    -18.862  0.1387E-17  0.9992E-19
    -18.790  0.3339E-14  0.2407E-15
    -18.718  0.2918E-11  0.2105E-12
    -18.646  0.9242E-09  0.6681E-10
    -18.574  0.1069E-06  0.7771E-08
    -18.502  0.4562E-05  0.3365E-06
    -18.430  0.7266E-04  0.5572E-05
    -18.358  0.4379E-03  0.3713E-04
    -18.286  0.1011E-02  0.1099E-03
    -18.213  0.8993E-03  0.1747E-03
    -18.141  0.3125E-03  0.1973E-03
    -18.069  0.1102E-03  0.2052E-03
    -17.997  0.4302E-03  0.2362E-03
    -17.925  0.1004E-02  0.3086E-03
    -17.853  0.9081E-03  0.3740E-03
    -17.781  0.3163E-03  0.3968E-03
    -17.709  0.4210E-04  0.3998E-03
    -17.637  0.2113E-05  0.4000E-03
    -17.565  0.3948E-07  0.4000E-03
    -17.493  0.2713E-09  0.4000E-03
    -17.421  0.6799E-12  0.4000E-03
    -17.349  0.6169E-15  0.4000E-03
    -17.277  0.0000E+00  0.4000E-03
    -17.205  0.0000E+00  0.4000E-03
    -17.133  0.0000E+00  0.4000E-03
    -17.060  0.0000E+00  0.4000E-03
    -16.988  0.0000E+00  0.4000E-03
    -16.916  0.0000E+00  0.4000E-03
    -16.844  0.0000E+00  0.4000E-03
    -16.772  0.0000E+00  0.4000E-03
    -16.700  0.0000E+00  0.4000E-03
    -16.628  0.0000E+00  0.4000E-03
    -16.556  0.0000E+00  0.4000E-03
    -16.484  0.0000E+00  0.4000E-03
    -16.412  0.0000E+00  0.4000E-03
    -16.340  0.1233E-16  0.4000E-03
    -16.268  0.2488E-13  0.4000E-03
    -16.196  0.1798E-10  0.4000E-03
    -16.124  0.4723E-08  0.4000E-03
    -16.052  0.4543E-06  0.4000E-03
    -15.980  0.1617E-04  0.4012E-03
    -15.908  0.2156E-03  0.4167E-03
    -15.835  0.1091E-02  0.4954E-03
    -15.763  0.2122E-02  0.6483E-03
    -15.691  0.1592E-02  0.7630E-03
    -15.619  0.4605E-03  0.7962E-03
    -15.547  0.5080E-04  0.7998E-03
    -15.475  0.2111E-05  0.8000E-03
    -15.403  0.3269E-07  0.8000E-03
    -15.331  0.2062E-07  0.8000E-03
    -15.259  0.1685E-05  0.8001E-03
    -15.187  0.5146E-04  0.8038E-03
    -15.115  0.5901E-03  0.8464E-03
    -15.043  0.2575E-02  0.1032E-02
    -14.971  0.4321E-02  0.1343E-02
    -14.899  0.2852E-02  0.1549E-02
    -14.827  0.1304E-02  0.1643E-02
    -14.755  0.2698E-02  0.1837E-02
    -14.683  0.4700E-02  0.2176E-02
    -14.610  0.5156E-02  0.2547E-02
    -14.538  0.6554E-02  0.3020E-02
    -14.466  0.5666E-02  0.3428E-02
    -14.394  0.2092E-02  0.3579E-02
    -14.322  0.5529E-03  0.3618E-02
    -14.250  0.1684E-02  0.3740E-02
    -14.178  0.4602E-02  0.4071E-02
    -14.106  0.7835E-02  0.4636E-02
    -14.034  0.1262E-01  0.5545E-02
    -13.962  0.1408E-01  0.6560E-02
    -13.890  0.9480E-02  0.7243E-02
    -13.818  0.8898E-02  0.7884E-02
    -13.746  0.1283E-01  0.8809E-02
    -13.674  0.1323E-01  0.9762E-02
    -13.602  0.9054E-02  0.1041E-01
    -13.530  0.4179E-02  0.1072E-01
    -13.458  0.1048E-02  0.1079E-01
    -13.385  0.1140E-03  0.1080E-01
    -13.313  0.4846E-05  0.1080E-01
    -13.241  0.7736E-07  0.1080E-01
    -13.169  0.4553E-09  0.1080E-01
    -13.097  0.9774E-12  0.1080E-01
    -13.025  0.7605E-15  0.1080E-01
    -12.953  0.0000E+00  0.1080E-01
    -12.881  0.0000E+00  0.1080E-01
    -12.809  0.0000E+00  0.1080E-01
    -12.737  0.0000E+00  0.1080E-01
    -12.665  0.0000E+00  0.1080E-01
    -12.593  0.0000E+00  0.1080E-01
    -12.521  0.0000E+00  0.1080E-01
    -12.449  0.0000E+00  0.1080E-01
    -12.377  0.0000E+00  0.1080E-01
    -12.305  0.0000E+00  0.1080E-01
    -12.232  0.0000E+00  0.1080E-01
    -12.160  0.0000E+00  0.1080E-01
    -12.088  0.0000E+00  0.1080E-01
    -12.016  0.0000E+00  0.1080E-01
    -11.944  0.0000E+00  0.1080E-01
    -11.872  0.0000E+00  0.1080E-01
    -11.800  0.0000E+00  0.1080E-01
    -11.728  0.0000E+00  0.1080E-01
    -11.656  0.0000E+00  0.1080E-01
    -11.584  0.0000E+00  0.1080E-01
    -11.512  0.0000E+00  0.1080E-01
    -11.440  0.0000E+00  0.1080E-01
    -11.368  0.0000E+00  0.1080E-01
    -11.296  0.0000E+00  0.1080E-01
    -11.224  0.0000E+00  0.1080E-01
    -11.152  0.0000E+00  0.1080E-01
    -11.080  0.0000E+00  0.1080E-01
    -11.007  0.0000E+00  0.1080E-01
    -10.935  0.0000E+00  0.1080E-01
    -10.863  0.0000E+00  0.1080E-01
    -10.791  0.0000E+00  0.1080E-01
    -10.719  0.0000E+00  0.1080E-01
    -10.647  0.0000E+00  0.1080E-01
    -10.575  0.0000E+00  0.1080E-01
    -10.503  0.0000E+00  0.1080E-01
    -10.431  0.0000E+00  0.1080E-01
    -10.359  0.0000E+00  0.1080E-01
    -10.287  0.0000E+00  0.1080E-01
    -10.215  0.0000E+00  0.1080E-01
    -10.143  0.2142E-16  0.1080E-01
    -10.071  0.3697E-13  0.1080E-01
     -9.999  0.2329E-10  0.1080E-01
     -9.927  0.5386E-08  0.1080E-01
     -9.855  0.4634E-06  0.1080E-01
     -9.782  0.1513E-04  0.1080E-01
     -9.710  0.1923E-03  0.1081E-01
     -9.638  0.9835E-03  0.1089E-01
     -9.566  0.2180E-02  0.1104E-01
     -9.494  0.2678E-02  0.1124E-01
     -9.422  0.2773E-02  0.1144E-01
     -9.350  0.2414E-02  0.1161E-01
     -9.278  0.1648E-02  0.1173E-01
     -9.206  0.8299E-03  0.1179E-01
     -9.134  0.4972E-03  0.1182E-01
     -9.062  0.9199E-03  0.1189E-01
     -8.990  0.1009E-02  0.1196E-01
     -8.918  0.4347E-03  0.1199E-01
     -8.846  0.7175E-04  0.1200E-01
     -8.774  0.4480E-05  0.1200E-01
     -8.702  0.1044E-06  0.1200E-01
     -8.630  0.8977E-09  0.1200E-01
     -8.557  0.2818E-11  0.1200E-01
     -8.485  0.3208E-14  0.1200E-01
     -8.413  0.1233E-17  0.1200E-01
     -8.341  0.0000E+00  0.1200E-01
     -8.269  0.0000E+00  0.1200E-01
     -8.197  0.0000E+00  0.1200E-01
     -8.125  0.0000E+00  0.1200E-01
     -8.053  0.0000E+00  0.1200E-01
     -7.981  0.7673E-16  0.1200E-01
     -7.909  0.1217E-12  0.1200E-01
     -7.837  0.6981E-10  0.1200E-01
     -7.765  0.1458E-07  0.1200E-01
     -7.693  0.1117E-05  0.1200E-01
     -7.621  0.3177E-04  0.1200E-01
     -7.549  0.3401E-03  0.1203E-01
     -7.477  0.1404E-02  0.1213E-01
     -7.404  0.2439E-02  0.1230E-01
     -7.332  0.2555E-02  0.1249E-01
     -7.260  0.2461E-02  0.1267E-01
     -7.188  0.1516E-02  0.1277E-01
     -7.116  0.1051E-02  0.1285E-01
     -7.044  0.3904E-02  0.1313E-01
     -6.972  0.9871E-02  0.1384E-01
     -6.900  0.1162E-01  0.1468E-01
     -6.828  0.7257E-02  0.1520E-01
     -6.756  0.7347E-02  0.1573E-01
     -6.684  0.1261E-01  0.1664E-01
     -6.612  0.1301E-01  0.1758E-01
     -6.540  0.8961E-02  0.1822E-01
     -6.468  0.5248E-02  0.1860E-01
     -6.396  0.2576E-02  0.1879E-01
     -6.324  0.1468E-02  0.1889E-01
     -6.252  0.1037E-02  0.1897E-01
     -6.179  0.5547E-03  0.1901E-01
     -6.107  0.9965E-03  0.1908E-01
     -6.035  0.2138E-02  0.1923E-01
     -5.963  0.2814E-02  0.1944E-01
     -5.891  0.4951E-02  0.1979E-01
     -5.819  0.7689E-02  0.2035E-01
     -5.747  0.6577E-02  0.2082E-01
     -5.675  0.6149E-02  0.2127E-01
     -5.603  0.1436E-01  0.2230E-01
     -5.531  0.2388E-01  0.2402E-01
     -5.459  0.1922E-01  0.2541E-01
     -5.387  0.9086E-02  0.2606E-01
     -5.315  0.6026E-02  0.2649E-01
     -5.243  0.6753E-02  0.2698E-01
     -5.171  0.5594E-02  0.2738E-01
     -5.099  0.2568E-02  0.2757E-01
     -5.027  0.1992E-02  0.2771E-01
     -4.954  0.6304E-02  0.2817E-01
     -4.882  0.1081E-01  0.2895E-01
     -4.810  0.8935E-02  0.2959E-01
     -4.738  0.7166E-02  0.3011E-01
     -4.666  0.8182E-02  0.3070E-01
     -4.594  0.8131E-02  0.3128E-01
     -4.522  0.6326E-02  0.3174E-01
     -4.450  0.3547E-02  0.3199E-01
     -4.378  0.3318E-02  0.3223E-01
     -4.306  0.5532E-02  0.3263E-01
     -4.234  0.6508E-02  0.3310E-01
     -4.162  0.5992E-02  0.3353E-01
     -4.090  0.5438E-02  0.3392E-01
     -4.018  0.4412E-02  0.3424E-01
     -3.946  0.1856E-02  0.3438E-01
     -3.874  0.3307E-03  0.3440E-01
     -3.801  0.2670E-03  0.3442E-01
     -3.729  0.1621E-02  0.3454E-01
     -3.657  0.4467E-02  0.3486E-01
     -3.585  0.7176E-02  0.3537E-01
     -3.513  0.1118E-01  0.3618E-01
     -3.441  0.1478E-01  0.3725E-01
     -3.369  0.1342E-01  0.3821E-01
     -3.297  0.1034E-01  0.3896E-01
     -3.225  0.8365E-02  0.3956E-01
     -3.153  0.6981E-02  0.4006E-01
     -3.081  0.8308E-02  0.4066E-01
     -3.009  0.1099E-01  0.4145E-01
     -2.937  0.9818E-02  0.4216E-01
     -2.865  0.5594E-02  0.4257E-01
     -2.793  0.3462E-02  0.4281E-01
     -2.721  0.4665E-02  0.4315E-01
     -2.649  0.7386E-02  0.4368E-01
     -2.576  0.7735E-02  0.4424E-01
     -2.504  0.5884E-02  0.4466E-01
     -2.432  0.5003E-02  0.4502E-01
     -2.360  0.7330E-02  0.4555E-01
     -2.288  0.8176E-02  0.4614E-01
     -2.216  0.6610E-02  0.4662E-01
     -2.144  0.5084E-02  0.4698E-01
     -2.072  0.2503E-02  0.4717E-01
     -2.000  0.1177E-02  0.4725E-01
     -1.928  0.2792E-02  0.4745E-01
     -1.856  0.4363E-02  0.4777E-01
     -1.784  0.3018E-02  0.4798E-01
     -1.712  0.2096E-02  0.4813E-01
     -1.640  0.2203E-02  0.4829E-01
     -1.568  0.1204E-02  0.4838E-01
     -1.496  0.2586E-03  0.4840E-01
     -1.424  0.2115E-04  0.4840E-01
     -1.351  0.6487E-06  0.4840E-01
     -1.279  0.7373E-08  0.4840E-01
     -1.207  0.3072E-10  0.4840E-01
     -1.135  0.4655E-13  0.4840E-01
     -1.063  0.2588E-16  0.4840E-01
     -0.991  0.0000E+00  0.4840E-01
     -0.919  0.0000E+00  0.4840E-01
     -0.847  0.0000E+00  0.4840E-01
     -0.775  0.4622E-18  0.4840E-01
     -0.703  0.1299E-14  0.4840E-01
     -0.631  0.1293E-11  0.4840E-01
     -0.559  0.4665E-09  0.4840E-01
     -0.487  0.6140E-07  0.4840E-01
     -0.415  0.2976E-05  0.4840E-01
     -0.343  0.5377E-04  0.4840E-01
     -0.271  0.3671E-03  0.4843E-01
     -0.199  0.9658E-03  0.4850E-01
     -0.126  0.1091E-02  0.4858E-01
     -0.054  0.1151E-02  0.4866E-01
      0.018  0.2088E-02  0.4881E-01
      0.090  0.3093E-02  0.4903E-01
      0.162  0.4369E-02  0.4935E-01
      0.234  0.4538E-02  0.4968E-01
      0.306  0.3900E-02  0.4996E-01
      0.378  0.6369E-02  0.5042E-01
      0.450  0.1205E-01  0.5129E-01
      0.522  0.1688E-01  0.5250E-01
      0.594  0.1507E-01  0.5359E-01
      0.666  0.1342E-01  0.5455E-01
      0.738  0.1100E-01  0.5535E-01
      0.810  0.5096E-02  0.5571E-01
      0.882  0.1614E-02  0.5583E-01
      0.954  0.3059E-02  0.5605E-01
      1.027  0.7892E-02  0.5662E-01
      1.099  0.1129E-01  0.5743E-01
      1.171  0.1125E-01  0.5824E-01
      1.243  0.1034E-01  0.5899E-01
      1.315  0.8417E-02  0.5960E-01
      1.387  0.4341E-02  0.5991E-01
      1.459  0.1126E-02  0.5999E-01
      1.531  0.1327E-03  0.6000E-01
      1.603  0.6671E-05  0.6000E-01
      1.675  0.1358E-06  0.6000E-01
      1.747  0.1074E-08  0.6000E-01
      1.819  0.3205E-11  0.6000E-01
      1.891  0.3542E-14  0.6000E-01
      1.963  0.1233E-17  0.6000E-01
      2.035  0.0000E+00  0.6000E-01
      2.107  0.0000E+00  0.6000E-01
      2.179  0.0000E+00  0.6000E-01
      2.252  0.0000E+00  0.6000E-01
      2.324  0.0000E+00  0.6000E-01
