 running on   36 total cores
 distrk:  each k-point on   36 cores,    1 groups
 distr:  one band on    3 cores,   12 groups
 using from now: INCAR     
 vasp.5.4.1 05Feb16 (build Apr 21 2017 13:36:42) gamma-only                     
  
 POSCAR found :  5 types and      93 ions
 scaLAPACK will be used
 LDA part: xc-table for Pade appr. of Perdew
 POSCAR found :  5 types and      93 ions
 POSCAR, INCAR and KPOINTS ok, starting setup
 FFT: planning ...
 WAVECAR not read
 entering main loop
       N       E                     dE             d eps       ncg     rms          rms(c)
DAV:   1     0.436618944767E+04    0.43662E+04   -0.18026E+05   612   0.112E+03
DAV:   2    -0.229249538169E+02   -0.43891E+04   -0.42232E+04   984   0.265E+02
DAV:   3    -0.678024237160E+03   -0.65510E+03   -0.64578E+03   708   0.113E+02
DAV:   4    -0.713758517466E+03   -0.35734E+02   -0.35500E+02   888   0.332E+01
DAV:   5    -0.714993070599E+03   -0.12346E+01   -0.12270E+01   924   0.536E+00    0.123E+02
DAV:   6    -0.699952180006E+03    0.15041E+02   -0.60038E+02   828   0.300E+01    0.768E+01
DAV:   7    -0.709975146331E+03   -0.10023E+02   -0.83499E+02   900   0.625E+01    0.439E+01
DAV:   8    -0.668909787409E+03    0.41065E+02   -0.14475E+02   804   0.131E+01    0.276E+01
DAV:   9    -0.659071401406E+03    0.98384E+01   -0.68750E+01   840   0.113E+01    0.193E+01
DAV:  10    -0.661658072471E+03   -0.25867E+01   -0.74047E+01   912   0.580E+00    0.233E+01
DAV:  11    -0.658990254386E+03    0.26678E+01   -0.36721E+01   840   0.286E+00    0.143E+01
DAV:  12    -0.662334714564E+03   -0.33445E+01   -0.30749E+01   876   0.327E+00    0.201E+01
DAV:  13    -0.661619846953E+03    0.71487E+00   -0.19849E+00   912   0.204E+00    0.175E+01
DAV:  14    -0.663794511884E+03   -0.21747E+01   -0.62258E+00   828   0.136E+00    0.181E+01
DAV:  15    -0.662507079891E+03    0.12874E+01   -0.55181E+00   828   0.162E+00    0.140E+01
DAV:  16    -0.662264467872E+03    0.24261E+00   -0.17515E-01   852   0.502E-01    0.128E+01
DAV:  17    -0.661716251031E+03    0.54822E+00   -0.36848E-02   876   0.327E-01    0.125E+01
DAV:  18    -0.660503259704E+03    0.12130E+01   -0.13177E-01   900   0.669E-01    0.117E+01
DAV:  19    -0.659656204470E+03    0.84706E+00   -0.86800E-02   864   0.403E-01    0.109E+01
DAV:  20    -0.659788782448E+03   -0.13258E+00   -0.75972E-03   756   0.118E-01    0.110E+01
DAV:  21    -0.659778282865E+03    0.10500E-01   -0.43512E-04   660   0.255E-02    0.110E+01
DAV:  22    -0.659886251672E+03   -0.10797E+00   -0.60613E-04   756   0.417E-02    0.110E+01
DAV:  23    -0.660263096378E+03   -0.37684E+00   -0.59160E-03   804   0.138E-01    0.112E+01
DAV:  24    -0.658629955697E+03    0.16331E+01   -0.22114E-01   840   0.614E-01    0.470E+00
DAV:  25    -0.658547547761E+03    0.82408E-01   -0.23822E-02   768   0.243E-01    0.374E+00
DAV:  26    -0.658542287562E+03    0.52602E-02   -0.70748E-03   852   0.121E-01    0.422E+00
DAV:  27    -0.658649428586E+03   -0.10714E+00   -0.32817E-02   744   0.150E-01    0.509E+00
DAV:  28    -0.658655847293E+03   -0.64187E-02   -0.64760E-02   804   0.118E-01    0.457E+00
DAV:  29    -0.658590775559E+03    0.65072E-01   -0.26582E-02   852   0.189E-01    0.383E+00
DAV:  30    -0.658678299286E+03   -0.87524E-01   -0.16241E-01   792   0.134E-01    0.464E+00
DAV:  31    -0.658659364428E+03    0.18935E-01   -0.13872E-01   768   0.175E-01    0.463E+00
DAV:  32    -0.658661050149E+03   -0.16857E-02   -0.20194E-02   900   0.156E-01    0.492E+00
DAV:  33    -0.658568844259E+03    0.92206E-01   -0.14224E-02   744   0.203E-01    0.494E+00
DAV:  34    -0.658514576940E+03    0.54267E-01   -0.10723E-02   792   0.115E-01    0.479E+00
DAV:  35    -0.658519232112E+03   -0.46552E-02   -0.72660E-03   816   0.108E-01    0.483E+00
DAV:  36    -0.658524348094E+03   -0.51160E-02   -0.44836E-03   780   0.695E-02    0.474E+00
DAV:  37    -0.658517127253E+03    0.72208E-02   -0.21044E-03   672   0.472E-02    0.452E+00
DAV:  38    -0.658511183414E+03    0.59438E-02   -0.17663E-03   768   0.567E-02    0.432E+00
DAV:  39    -0.658495890971E+03    0.15292E-01   -0.11106E-03   660   0.360E-02    0.413E+00
DAV:  40    -0.658461219032E+03    0.34672E-01   -0.24658E-03   732   0.548E-02    0.380E+00
DAV:  41    -0.658401343608E+03    0.59875E-01   -0.90702E-03   744   0.106E-01    0.326E+00
DAV:  42    -0.658368954784E+03    0.32389E-01   -0.59681E-03   816   0.735E-02    0.293E+00
DAV:  43    -0.658361812247E+03    0.71425E-02   -0.81152E-04   684   0.292E-02    0.286E+00
DAV:  44    -0.658340242345E+03    0.21570E-01   -0.99249E-04   660   0.371E-02    0.255E+00
DAV:  45    -0.658284654367E+03    0.55588E-01   -0.19309E-02   756   0.115E-01    0.161E+00
DAV:  46    -0.658274499849E+03    0.10155E-01   -0.43456E-03   840   0.679E-02    0.171E+00
DAV:  47    -0.658256611155E+03    0.17889E-01   -0.17994E-02   744   0.738E-02    0.125E+00
DAV:  48    -0.658248156063E+03    0.84551E-02   -0.23889E-03   696   0.437E-02    0.130E+00
DAV:  49    -0.658232637455E+03    0.15519E-01   -0.27624E-03   744   0.514E-02    0.848E-01
DAV:  50    -0.658231251287E+03    0.13862E-02   -0.77405E-04   684   0.332E-02    0.892E-01
DAV:  51    -0.658232293000E+03   -0.10417E-02   -0.14327E-03   744   0.503E-02    0.855E-01
DAV:  52    -0.658234531608E+03   -0.22386E-02   -0.14484E-03   684   0.473E-02    0.137E+00
DAV:  53    -0.658232561742E+03    0.19699E-02   -0.19167E-04   492   0.231E-02    0.943E-01
DAV:  54    -0.658228729257E+03    0.38325E-02   -0.23991E-04   492   0.285E-02    0.125E+00
DAV:  55    -0.658232640624E+03   -0.39114E-02   -0.16694E-04   432   0.147E-02    0.134E+00
DAV:  56    -0.658219516515E+03    0.13124E-01   -0.11784E-03   672   0.286E-02    0.730E-01
DAV:  57    -0.658217975389E+03    0.15411E-02   -0.12687E-03   660   0.423E-02    0.954E-01
DAV:  58    -0.658219378506E+03   -0.14031E-02   -0.68531E-04   552   0.293E-02    0.114E+00
DAV:  59    -0.658220228106E+03   -0.84960E-03   -0.16287E-04   420   0.138E-02    0.123E+00
DAV:  60    -0.658220822072E+03   -0.59397E-03   -0.48012E-05   396   0.112E-02    0.118E+00
DAV:  61    -0.658242654581E+03   -0.21833E-01   -0.77078E-04   648   0.382E-02    0.303E+00
DAV:  62    -0.658228746739E+03    0.13908E-01   -0.74301E-04   636   0.488E-02    0.111E+00
DAV:  63    -0.658238574770E+03   -0.98280E-02   -0.76428E-04   612   0.435E-02    0.272E+00
DAV:  64    -0.658228025721E+03    0.10549E-01   -0.48283E-04   516   0.332E-02    0.132E+00
DAV:  65    -0.658232237445E+03   -0.42117E-02   -0.41639E-04   480   0.319E-02    0.232E+00
DAV:  66    -0.658394921942E+03   -0.16268E+00   -0.68641E-01   756   0.149E-01    0.859E+00
DAV:  67    -0.658373673732E+03    0.21248E-01   -0.50899E-03   792   0.105E-01    0.702E+00
DAV:  68    -0.658458537676E+03   -0.84864E-01   -0.15032E-02   732   0.509E-02    0.990E+00
DAV:  69    -0.658359178997E+03    0.99359E-01   -0.12699E-02   720   0.633E-02    0.630E+00
DAV:  70    -0.658235245450E+03    0.12393E+00   -0.22369E-01   804   0.987E-02    0.224E+00
DAV:  71    -0.659855076437E+03   -0.16198E+01   -0.13154E+01   756   0.643E-01    0.176E+01
DAV:  72    -0.659422145765E+03    0.43293E+00   -0.44718E-02   768   0.280E-01    0.174E+01
DAV:  73    -0.658367065882E+03    0.10551E+01   -0.36531E+00   744   0.279E-01    0.551E+00
DAV:  74    -0.658244559663E+03    0.12251E+00   -0.39519E-01   816   0.234E-01    0.563E+00
DAV:  75    -0.658495337995E+03   -0.25078E+00   -0.59611E-01   744   0.114E-01    0.109E+01
DAV:  76    -0.658280421234E+03    0.21492E+00   -0.71221E-02   768   0.824E-02    0.595E+00
DAV:  77    -0.658205886655E+03    0.74535E-01   -0.12443E-01   780   0.795E-02    0.428E+00
DAV:  78    -0.658265488967E+03   -0.59602E-01   -0.16013E-01   660   0.535E-02    0.673E+00
DAV:  79    -0.658269494507E+03   -0.40055E-02   -0.49936E-03   648   0.524E-02    0.628E+00
DAV:  80    -0.658273781995E+03   -0.42875E-02   -0.86172E-04   420   0.225E-02    0.665E+00
DAV:  81    -0.658298343968E+03   -0.24562E-01   -0.78327E-04   600   0.251E-02    0.720E+00
DAV:  82    -0.658300045340E+03   -0.17014E-02   -0.19879E-04   468   0.194E-02    0.710E+00
DAV:  83    -0.658313366366E+03   -0.13321E-01   -0.19612E-04   444   0.144E-02    0.746E+00
DAV:  84    -0.658318385128E+03   -0.50188E-02   -0.61449E-05   420   0.107E-02    0.750E+00
DAV:  85    -0.658318123847E+03    0.26128E-03   -0.85875E-06   336   0.543E-03    0.749E+00
DAV:  86    -0.658281642748E+03    0.36481E-01   -0.37964E-04   588   0.245E-02    0.643E+00
DAV:  87    -0.658278531138E+03    0.31116E-02   -0.38090E-04   492   0.250E-02    0.667E+00
DAV:  88    -0.658261421107E+03    0.17110E-01   -0.14949E-04   444   0.133E-02    0.605E+00
DAV:  89    -0.658239938316E+03    0.21483E-01   -0.87664E-04   516   0.209E-02    0.551E+00
DAV:  90    -0.658226275680E+03    0.13663E-01   -0.64907E-04   504   0.201E-02    0.517E+00
DAV:  91    -0.658180042281E+03    0.46233E-01   -0.72499E-02   624   0.263E-02    0.291E+00
DAV:  92    -0.658176452126E+03    0.35902E-02   -0.55254E-03   636   0.509E-02    0.356E+00
DAV:  93    -0.658169720885E+03    0.67312E-02   -0.49363E-04   456   0.236E-02    0.287E+00
DAV:  94    -0.658162606423E+03    0.71145E-02   -0.62947E-04   480   0.201E-02    0.269E+00
DAV:  95    -0.658157297006E+03    0.53094E-02   -0.15927E-04   468   0.157E-02    0.233E+00
DAV:  96    -0.658150058601E+03    0.72384E-02   -0.30425E-04   492   0.169E-02    0.181E+00
DAV:  97    -0.658147519427E+03    0.25392E-02   -0.14514E-04   420   0.165E-02    0.173E+00
DAV:  98    -0.658146759554E+03    0.75987E-03   -0.48150E-05   372   0.876E-03    0.166E+00
DAV:  99    -0.658146206878E+03    0.55268E-03   -0.58961E-05   360   0.702E-03    0.162E+00
DAV: 100    -0.658144639056E+03    0.15678E-02   -0.47608E-05   360   0.688E-03    0.147E+00
DAV: 101    -0.658144274544E+03    0.36451E-03   -0.54984E-05   372   0.799E-03    0.149E+00
DAV: 102    -0.658142320138E+03    0.19544E-02   -0.71019E-05   360   0.685E-03    0.127E+00
DAV: 103    -0.658140674877E+03    0.16453E-02   -0.99048E-05   396   0.100E-02    0.117E+00
DAV: 104    -0.658138832812E+03    0.18421E-02   -0.60223E-05   444   0.807E-03    0.974E-01
DAV: 105    -0.658137227488E+03    0.16053E-02   -0.10919E-04   396   0.102E-02    0.845E-01
DAV: 106    -0.658135956417E+03    0.12711E-02   -0.99506E-05   432   0.976E-03    0.713E-01
DAV: 107    -0.658135639495E+03    0.31692E-03   -0.70629E-05   396   0.944E-03    0.716E-01
DAV: 108    -0.658135558091E+03    0.81404E-04   -0.24128E-05   348   0.486E-03
   1 F= -.67303336E+03 E0= -.67296051E+03  d E =-.673033E+03
 curvature:   0.00 expect dE= 0.000E+00 dE for cont linesearch  0.000E+00
 trial: gam= 0.00000 g(F)=  0.152E+00 g(S)=  0.000E+00 ort = 0.000E+00 (trialstep = 0.100E+01)
 search vector abs. value=  0.152E+00
 bond charge predicted
       N       E                     dE             d eps       ncg     rms          rms(c)
DAV:   1    -0.658156286086E+03   -0.20647E-01   -0.11319E+01   612   0.496E+00    0.353E+00
DAV:   2    -0.659199900361E+03   -0.10436E+01   -0.81975E+00   828   0.292E+00    0.958E+00
DAV:   3    -0.658234984303E+03    0.96492E+00   -0.12120E+01   816   0.251E+00    0.246E+00
DAV:   4    -0.658241964946E+03   -0.69806E-02   -0.92292E-01   876   0.493E-01    0.268E+00
DAV:   5    -0.658206676443E+03    0.35289E-01   -0.34305E-01   876   0.275E-01    0.137E+00
DAV:   6    -0.658201867980E+03    0.48085E-02   -0.30421E-01   864   0.305E-01    0.176E+00
DAV:   7    -0.658185867623E+03    0.16000E-01   -0.25316E-02   876   0.193E-01    0.563E-01
DAV:   8    -0.658190365049E+03   -0.44974E-02   -0.16232E-02   828   0.179E-01    0.157E+00
DAV:   9    -0.658180702208E+03    0.96628E-02   -0.56467E-03   804   0.103E-01    0.583E-01
DAV:  10    -0.658179521049E+03    0.11812E-02   -0.31012E-03   768   0.713E-02    0.740E-01
DAV:  11    -0.658178180143E+03    0.13409E-02   -0.24940E-03   600   0.325E-02    0.518E-01
DAV:  12    -0.658177694585E+03    0.48556E-03   -0.22292E-03   540   0.229E-02    0.494E-01
DAV:  13    -0.658177434758E+03    0.25983E-03   -0.11739E-03   432   0.141E-02    0.388E-01
DAV:  14    -0.658177533900E+03   -0.99142E-04   -0.61063E-04   420   0.101E-02
   2 F= -.67309456E+03 E0= -.67303037E+03  d E =-.612084E-01
 trial-energy change:   -0.061208  1 .order   -0.065227   -0.152238    0.021784
 step:   0.8579(harm=  0.8748)  dis= 0.00857  next Energy=  -673.096123 (dE=-0.628E-01)
 bond charge predicted
       N       E                     dE             d eps       ncg     rms          rms(c)
DAV:   1    -0.658180744938E+03   -0.33102E-02   -0.22899E-01   624   0.707E-01    0.410E-01
DAV:   2    -0.658183365938E+03   -0.26210E-02   -0.19865E-02   780   0.189E-01    0.671E-01
DAV:   3    -0.658191462940E+03   -0.80970E-02   -0.42090E-02   876   0.156E-01    0.963E-01
DAV:   4    -0.658182879053E+03    0.85839E-02   -0.18371E-02   744   0.112E-01    0.338E-01
DAV:   5    -0.658182502605E+03    0.37645E-03   -0.32979E-03   552   0.430E-02    0.399E-01
DAV:   6    -0.658181783359E+03    0.71925E-03   -0.28232E-03   636   0.384E-02    0.161E-01
DAV:   7    -0.658182772781E+03   -0.98942E-03   -0.43173E-03   516   0.313E-02    0.491E-01
DAV:   8    -0.658181747340E+03    0.10254E-02   -0.36570E-03   504   0.343E-02    0.172E-01
DAV:   9    -0.658181786304E+03   -0.38964E-04   -0.20956E-03   408   0.220E-02    0.292E-01
DAV:  10    -0.658181557841E+03    0.22846E-03   -0.15246E-03   384   0.130E-02    0.128E-01
DAV:  11    -0.658181588471E+03   -0.30630E-04   -0.83571E-04   384   0.107E-02
   3 F= -.67309580E+03 E0= -.67303241E+03  d E =-.624455E-01
 curvature:  -0.43 expect dE=-0.608E-02 dE for cont linesearch -0.864E-05
 trial: gam= 0.08155 g(F)=  0.142E-01 g(S)=  0.000E+00 ort = 0.175E-02 (trialstep = 0.972E+00)
 search vector abs. value=  0.155E-01
 bond charge predicted
       N       E                     dE             d eps       ncg     rms          rms(c)
DAV:   1    -0.658167270560E+03    0.14287E-01   -0.14183E+00   624   0.161E+00    0.655E-01
DAV:   2    -0.658182144678E+03   -0.14874E-01   -0.68539E-02   804   0.413E-01    0.189E+00
DAV:   3    -0.658185612274E+03   -0.34676E-02   -0.54914E-02   840   0.222E-01    0.998E-01
DAV:   4    -0.658175934501E+03    0.96778E-02   -0.12198E-02   756   0.109E-01    0.774E-01
DAV:   5    -0.658172413703E+03    0.35208E-02   -0.58038E-03   648   0.746E-02    0.497E-01
DAV:   6    -0.658179080971E+03   -0.66673E-02   -0.91201E-03   816   0.121E-01    0.155E+00
DAV:   7    -0.658173733280E+03    0.53477E-02   -0.65281E-03   792   0.116E-01    0.488E-01
DAV:   8    -0.658171236645E+03    0.24966E-02   -0.16640E-03   756   0.526E-02    0.168E-01
DAV:   9    -0.658171025466E+03    0.21118E-03   -0.37304E-04   480   0.284E-02    0.264E-01
DAV:  10    -0.658170742284E+03    0.28318E-03   -0.28718E-04   384   0.167E-02    0.797E-02
DAV:  11    -0.658170715441E+03    0.26843E-04   -0.25948E-04   396   0.138E-02
   4 F= -.67308948E+03 E0= -.67302699E+03  d E =0.631864E-02
 trial-energy change:    0.006319  1 .order    0.006312   -0.013902    0.026525
 step:   0.3341(harm=  0.3341)  dis= 0.00222  next Energy=  -673.098191 (dE=-0.239E-02)
 bond charge predicted
       N       E                     dE             d eps       ncg     rms          rms(c)
DAV:   1    -0.658180903026E+03   -0.10161E-01   -0.60932E-01   624   0.106E+00    0.395E-01
DAV:   2    -0.658183142147E+03   -0.22391E-02   -0.25305E-02   780   0.253E-01    0.423E-01
DAV:   3    -0.658186683678E+03   -0.35415E-02   -0.65214E-03   708   0.888E-02    0.105E+00
DAV:   4    -0.658186344101E+03    0.33958E-03   -0.15330E-02   708   0.110E-01    0.612E-01
DAV:   5    -0.658182975278E+03    0.33688E-02   -0.35634E-03   588   0.581E-02    0.259E-01
DAV:   6    -0.658182589515E+03    0.38576E-03   -0.45950E-04   504   0.243E-02    0.215E-01
DAV:   7    -0.658182668599E+03   -0.79084E-04   -0.63577E-04   540   0.326E-02
   5 F= -.67309844E+03 E0= -.67303124E+03  d E =-.263476E-02
 curvature:  -0.18 expect dE=-0.131E-02 dE for cont linesearch -0.668E-05
 trial: gam= 0.58017 g(F)=  0.727E-02 g(S)=  0.000E+00 ort =-0.756E-03 (trialstep = 0.844E+00)
 search vector abs. value=  0.116E-01
 bond charge predicted
       N       E                     dE             d eps       ncg     rms          rms(c)
DAV:   1    -0.658176564566E+03    0.60249E-02   -0.61205E-01   624   0.119E+00    0.556E-01
DAV:   2    -0.658183216288E+03   -0.66517E-02   -0.38943E-02   828   0.337E-01    0.738E-01
DAV:   3    -0.658208535364E+03   -0.25319E-01   -0.69747E-02   912   0.233E-01    0.343E+00
DAV:   4    -0.658190317263E+03    0.18218E-01   -0.26395E-02   816   0.168E-01    0.597E-01
DAV:   5    -0.658181858122E+03    0.84591E-02   -0.50774E-03   648   0.752E-02    0.709E-01
DAV:   6    -0.658179534478E+03    0.23236E-02   -0.21916E-03   684   0.568E-02    0.210E-01
DAV:   7    -0.658180765224E+03   -0.12307E-02   -0.16427E-03   516   0.401E-02    0.699E-01
DAV:   8    -0.658179503293E+03    0.12619E-02   -0.12474E-03   480   0.325E-02    0.299E-01
DAV:   9    -0.658179307256E+03    0.19604E-03   -0.13624E-03   444   0.259E-02    0.415E-01
DAV:  10    -0.658178812481E+03    0.49477E-03   -0.79510E-04   408   0.177E-02    0.195E-01
DAV:  11    -0.658178722075E+03    0.90406E-04   -0.62187E-04   444   0.159E-02
   6 F= -.67309869E+03 E0= -.67303270E+03  d E =-.252797E-03
 trial-energy change:   -0.000253  1 .order   -0.000671   -0.005768    0.004427
 step:   0.4257(harm=  0.4776)  dis= 0.00116  next Energy=  -673.099836 (dE=-0.140E-02)
 bond charge predicted
       N       E                     dE             d eps       ncg     rms          rms(c)
DAV:   1    -0.658181237679E+03   -0.24252E-02   -0.15086E-01   624   0.590E-01    0.268E-01
DAV:   2    -0.658181773347E+03   -0.53567E-03   -0.67969E-03   780   0.141E-01    0.192E-01
DAV:   3    -0.658184420261E+03   -0.26469E-02   -0.67167E-03   612   0.787E-02    0.556E-01
DAV:   4    -0.658181852296E+03    0.25680E-02   -0.55635E-03   540   0.686E-02    0.161E-01
DAV:   5    -0.658181841486E+03    0.10810E-04   -0.30805E-04   396   0.176E-02
   7 F= -.67309972E+03 E0= -.67303666E+03  d E =-.128137E-02
 curvature:  -0.40 expect dE=-0.565E-03 dE for cont linesearch -0.271E-07
 trial: gam= 0.08731 g(F)=  0.142E-02 g(S)=  0.000E+00 ort = 0.281E-04 (trialstep = 0.760E+00)
 search vector abs. value=  0.152E-02
 bond charge predicted
       N       E                     dE             d eps       ncg     rms          rms(c)
DAV:   1    -0.658180408252E+03    0.14440E-02   -0.97152E-02   624   0.317E-01    0.114E-01
DAV:   2    -0.658180859567E+03   -0.45131E-03   -0.69359E-03   780   0.768E-02    0.232E-01
DAV:   3    -0.658180806046E+03    0.53521E-04   -0.60656E-03   504   0.207E-02    0.158E-01
DAV:   4    -0.658180746404E+03    0.59642E-04   -0.43365E-03   492   0.190E-02    0.158E-01
DAV:   5    -0.658180863402E+03   -0.11700E-03   -0.33216E-03   480   0.242E-02    0.205E-01
DAV:   6    -0.658180638944E+03    0.22446E-03   -0.11657E-03   456   0.249E-02    0.827E-02
DAV:   7    -0.658180608363E+03    0.30581E-04   -0.52722E-04   384   0.166E-02
   8 F= -.67309878E+03 E0= -.67303552E+03  d E =0.933654E-03
 trial-energy change:    0.000934  1 .order    0.000691   -0.001083    0.002466
 step:   0.2321(harm=  0.2321)  dis= 0.00063  next Energy=  -673.099882 (dE=-0.165E-03)
 bond charge predicted
       N       E                     dE             d eps       ncg     rms          rms(c)
DAV:   1    -0.658181663560E+03   -0.10246E-02   -0.47426E-02   612   0.219E-01    0.103E-01
DAV:   2    -0.658182492360E+03   -0.82880E-03   -0.24461E-03   540   0.578E-02    0.374E-01
DAV:   3    -0.658182484615E+03    0.77445E-05   -0.32034E-03   540   0.548E-02    0.312E-01
DAV:   4    -0.658181753208E+03    0.73141E-03   -0.87245E-04   492   0.293E-02    0.372E-02
DAV:   5    -0.658181716193E+03    0.37016E-04   -0.96925E-05   396   0.101E-02
   9 F= -.67309968E+03 E0= -.67303650E+03  d E =0.341588E-04
 curvature:  -0.12 expect dE=-0.379E-04 dE for cont linesearch -0.517E-05
 ZBRENT: interpolating
 opt :   0.1972  next Energy=  -673.099687 (dE= 0.298E-04)
 bond charge predicted
       N       E                     dE             d eps       ncg     rms          rms(c)
DAV:   1    -0.658181723104E+03    0.30104E-04   -0.31913E-04   468   0.158E-02    0.476E-02
DAV:   2    -0.658181877543E+03   -0.15444E-03   -0.10326E-03   396   0.128E-02    0.181E-01
DAV:   3    -0.658181917498E+03   -0.39955E-04   -0.16110E-03   456   0.214E-02    0.186E-01
DAV:   4    -0.658181772921E+03    0.14458E-03   -0.61583E-04   396   0.160E-02    0.803E-02
DAV:   5    -0.658181728007E+03    0.44914E-04   -0.19841E-04   384   0.659E-03
  10 F= -.67309968E+03 E0= -.67303573E+03  d E =0.360526E-04
 curvature:  -0.10 expect dE=-0.226E-04 dE for cont linesearch -0.137E-07
 trial: gam= 0.17959 g(F)=  0.215E-03 g(S)=  0.000E+00 ort =-0.141E-04 (trialstep = 0.648E+00)
 search vector abs. value=  0.259E-03
 reached required accuracy - stopping structural energy minimisation
V:   5    -0.658181320042E+03    0.95514E-04   -0.70786E-04   444   0.234E-02
   8 F= -.67309837E+03 E0= -.67303501E+03  d E =-.357669E-02
 curvature:  -0.47 expect dE=-0.170E-02 dE for cont linesearch -0.703E-06
 trial: gam= 0.36808 g(F)=  0.359E-02 g(S)=  0.000E+00 ort = 0.122E-03 (trialstep = 0.791E+00)
 search vector abs. value=  0.505E-02
 bond charge predicted
       N       E                     dE             d eps       ncg     rms          rms(c)
DAV:   1    -0.658179894287E+03    0.15213E-02   -0.30616E-01   600   0.607E-01    0.252E-01
DAV:   2    -0.658204461083E+03   -0.24567E-01   -0.43023E-02   852   0.222E-01    0.300E+00
DAV:   3    -0.658188420097E+03    0.16041E-01   -0.27554E-02   768   0.143E-01    0.484E-01
DAV:   4    -0.658182018801E+03    0.64013E-02   -0.42357E-03   636   0.639E-02    0.500E-01
DAV:   5    -0.658180890024E+03    0.11288E-02   -0.23695E-03   528   0.344E-02    0.221E-01
DAV:   6    -0.658180789553E+03    0.10047E-03   -0.17035E-03   516   0.260E-02    0.290E-01
DAV:   7    -0.658180857793E+03   -0.68240E-04   -0.26895E-03   516   0.233E-02    0.285E-01
DAV:   8    -0.658180545027E+03    0.31277E-03   -0.19360E-03   492   0.216E-02    0.157E-01
DAV:   9    -0.658180418429E+03    0.12660E-03   -0.12864E-03   396   0.173E-02    0.141E-01
DAV:  10    -0.658180309919E+03    0.10851E-03   -0.67226E-04   384   0.130E-02    0.306E-02
DAV:  11    -0.658180321077E+03   -0.11158E-04   -0.35615E-04   384   0.101E-02
   9 F= -.67309836E+03 E0= -.67303445E+03  d E =0.125205E-04
 trial-energy change:    0.000013  1 .order   -0.000241   -0.002878    0.002397
 step:   0.4318(harm=  0.4318)  dis= 0.00204  next Energy=  -673.099154 (dE=-0.785E-03)
 bond charge predicted
       N       E                     dE             d eps       ncg     rms          rms(c)
DAV:   1    -0.658181241213E+03   -0.93129E-03   -0.63593E-02   600   0.276E-01    0.127E-01
DAV:   2    -0.658185876574E+03   -0.46354E-02   -0.13183E-02   816   0.121E-01    0.697E-01
DAV:   3    -0.658181660018E+03    0.42166E-02   -0.99302E-03   636   0.827E-02    0.148E-01
DAV:   4    -0.658181531548E+03    0.12847E-03   -0.12815E-03   480   0.231E-02    0.197E-01
DAV:   5    -0.658181447960E+03    0.83588E-04   -0.13531E-03   444   0.182E-02    0.133E-01
DAV:   6    -0.658181365751E+03    0.82209E-04   -0.10596E-03   444   0.157E-02    0.113E-01
DAV:   7    -0.658181368481E+03   -0.27293E-05   -0.16155E-03   360   0.145E-02    0.111E-01
DAV:   8    -0.658181323955E+03    0.44525E-04   -0.93266E-04   384   0.133E-02
  10 F= -.67309891E+03 E0= -.67303506E+03  d E =-.539465E-03
 curvature:  -0.30 expect dE=-0.559E-03 dE for cont linesearch -0.137E-05
 trial: gam= 0.50793 g(F)=  0.186E-02 g(S)=  0.000E+00 ort =-0.152E-03 (trialstep = 0.719E+00)
 search vector abs. value=  0.301E-02
 bond charge predicted
       N       E                     dE             d eps       ncg     rms          rms(c)
DAV:   1    -0.658181829658E+03   -0.46118E-03   -0.13261E-01   600   0.409E-01    0.153E-01
DAV:   2    -0.658193743579E+03   -0.11914E-01   -0.19676E-02   840   0.151E-01    0.196E+00
DAV:   3    -0.658185017371E+03    0.87262E-02   -0.12710E-02   696   0.103E-01    0.340E-01
DAV:   4    -0.658182356741E+03    0.26606E-02   -0.18831E-03   552   0.422E-02    0.205E-01
DAV:   5    -0.658182157556E+03    0.19919E-03   -0.12759E-03   408   0.200E-02    0.152E-01
DAV:   6    -0.658182067766E+03    0.89790E-04   -0.99340E-04   384   0.152E-02
  11 F= -.67309966E+03 E0= -.67303489E+03  d E =-.748131E-03
 trial-energy change:   -0.000748  1 .order   -0.000708   -0.001285   -0.000131
 step:   0.8010(harm=  0.8010)  dis= 0.00216  next Energy=  -673.099624 (dE=-0.715E-03)
 bond charge predicted
       N       E                     dE             d eps       ncg     rms          rms(c)
DAV:   1    -0.658182071917E+03    0.85639E-04   -0.30368E-03   528   0.475E-02    0.132E-01
DAV:   2    -0.658182926385E+03   -0.85447E-03   -0.10068E-02   432   0.258E-02    0.423E-01
DAV:   3    -0.658182721105E+03    0.20528E-03   -0.14059E-02   468   0.398E-02    0.300E-01
DAV:   4    -0.658182230870E+03    0.49023E-03   -0.56554E-03   432   0.259E-02    0.163E-01
DAV:   5    -0.658182060021E+03    0.17085E-03   -0.27583E-03   372   0.135E-02    0.829E-02
DAV:   6    -0.658182001024E+03    0.58998E-04   -0.87847E-04   348   0.112E-02
  12 F= -.67309959E+03 E0= -.67303515E+03  d E =-.682414E-03
 curvature:  -0.68 expect dE=-0.625E-03 dE for cont linesearch -0.189E-05
 trial: gam= 0.59029 g(F)=  0.926E-03 g(S)=  0.000E+00 ort =-0.918E-04 (trialstep = 0.736E+00)
 search vector abs. value=  0.187E-02
 bond charge predicted
       N       E                     dE             d eps       ncg     rms          rms(c)
DAV:   1    -0.658182544847E+03   -0.48483E-03   -0.87679E-02   600   0.317E-01    0.165E-01
DAV:   2    -0.658202815596E+03   -0.20271E-01   -0.24834E-02   852   0.167E-01    0.272E+00
DAV:   3    -0.658188823809E+03    0.13992E-01   -0.17573E-02   720   0.126E-01    0.420E-01
DAV:   4    -0.658183247335E+03    0.55765E-02   -0.28511E-03   588   0.568E-02    0.241E-01
DAV:   5    -0.658182852766E+03    0.39457E-03   -0.92413E-04   408   0.244E-02    0.177E-01
DAV:   6    -0.658182720414E+03    0.13235E-03   -0.91294E-04   384   0.166E-02    0.111E-01
DAV:   7    -0.658182770410E+03   -0.49996E-04   -0.13623E-03   372   0.131E-02    0.175E-01
DAV:   8    -0.658182681845E+03    0.88565E-04   -0.89718E-04   432   0.151E-02
  13 F= -.67309992E+03 E0= -.67303625E+03  d E =-.324456E-03
 trial-energy change:   -0.000324  1 .order   -0.000300   -0.000641    0.000041
 step:   0.6917(harm=  0.6917)  dis= 0.00143  next Energy=  -673.099893 (dE=-0.302E-03)
 bond charge predicted
       N       E                     dE             d eps       ncg     rms          rms(c)
DAV:   1    -0.658182685184E+03    0.85225E-04   -0.84899E-04   444   0.216E-02    0.156E-01
DAV:   2    -0.658185818523E+03   -0.31333E-02   -0.77775E-03   492   0.501E-02    0.899E-01
DAV:   3    -0.658185393177E+03    0.42535E-03   -0.14644E-02   564   0.905E-02    0.503E-01
DAV:   4    -0.658183194363E+03    0.21988E-02   -0.19959E-03   492   0.392E-02    0.247E-01
DAV:   5    -0.658182835595E+03    0.35877E-03   -0.35647E-04   420   0.178E-02    0.184E-01
DAV:   6    -0.658182682088E+03    0.15351E-03   -0.38256E-04   360   0.162E-02    0.868E-02
DAV:   7    -0.658182622038E+03    0.60050E-04   -0.20756E-04   360   0.117E-02
  14 F= -.67309988E+03 E0= -.67303649E+03  d E =-.285868E-03
 curvature:  -0.74 expect dE=-0.604E-03 dE for cont linesearch -0.113E-10
 trial: gam= 0.87271 g(F)=  0.816E-03 g(S)=  0.000E+00 ort = 0.169E-06 (trialstep = 0.606E+00)
 search vector abs. value=  0.224E-02
 bond charge predicted
       N       E                     dE             d eps       ncg     rms          rms(c)
DAV:   1    -0.658182842025E+03   -0.15994E-03   -0.69715E-02   600   0.299E-01    0.106E-01
DAV:   2    -0.658185837950E+03   -0.29959E-02   -0.60716E-03   780   0.970E-02    0.851E-01
DAV:   3    -0.658183526452E+03    0.23115E-02   -0.40352E-03   576   0.605E-02    0.209E-01
DAV:   4    -0.658183025530E+03    0.50092E-03   -0.32530E-04   396   0.212E-02    0.905E-02
DAV:   5    -0.658182993228E+03    0.32302E-04   -0.22100E-04   372   0.127E-02
  15 F= -.67310009E+03 E0= -.67303666E+03  d E =-.216212E-03
 trial-energy change:   -0.000216  1 .order   -0.000232   -0.000495    0.000031
 step:   0.5707(harm=  0.5707)  dis= 0.00151  next Energy=  -673.100110 (dE=-0.233E-03)
 bond charge predicted
       N       E                     dE             d eps       ncg     rms          rms(c)
DAV:   1    -0.658182965344E+03    0.60186E-04   -0.70930E-04   432   0.217E-02    0.706E-02
DAV:   2    -0.658183197835E+03   -0.23249E-03   -0.20973E-03   396   0.139E-02    0.230E-01
DAV:   3    -0.658183117228E+03    0.80606E-04   -0.30278E-03   396   0.148E-02    0.143E-01
DAV:   4    -0.658183047180E+03    0.70049E-04   -0.15996E-03   372   0.155E-02    0.122E-01
DAV:   5    -0.658182995675E+03    0.51504E-04   -0.77853E-04   348   0.903E-03
  16 F= -.67310010E+03 E0= -.67303593E+03  d E =-.227681E-03
 curvature:  -0.78 expect dE=-0.215E-03 dE for cont linesearch -0.664E-06
 trial: gam= 0.33931 g(F)=  0.275E-03 g(S)=  0.000E+00 ort =-0.436E-04 (trialstep = 0.599E+00)
 search vector abs. value=  0.503E-03
 bond charge predicted
       N       E                     dE             d eps       ncg     rms          rms(c)
DAV:   1    -0.658182896239E+03    0.15094E-03   -0.11596E-02   588   0.140E-01    0.669E-02
DAV:   2    -0.658183494099E+03   -0.59786E-03   -0.23585E-03   528   0.428E-02    0.362E-01
DAV:   3    -0.658183268401E+03    0.22570E-03   -0.27570E-03   468   0.375E-02    0.202E-01
DAV:   4    -0.658183000983E+03    0.26742E-03   -0.56042E-04   408   0.220E-02    0.118E-01
DAV:   5    -0.658182921758E+03    0.79226E-04   -0.13079E-04   348   0.922E-03
  17 F= -.67310016E+03 E0= -.67303614E+03  d E =-.543178E-04
 trial-energy change:   -0.000054  1 .order   -0.000092   -0.000156   -0.000027
 step:   0.7273(harm=  0.7273)  dis= 0.00109  next Energy=  -673.100199 (dE=-0.947E-04)
 bond charge predicted
       N       E                     dE             d eps       ncg     rms          rms(c)
DAV:   1    -0.658182886983E+03    0.11400E-03   -0.53412E-04   516   0.309E-02    0.521E-02
DAV:   2    -0.658183029294E+03   -0.14231E-03   -0.31225E-04   348   0.140E-02    0.176E-01
DAV:   3    -0.658183090531E+03   -0.61237E-04   -0.74876E-04   420   0.208E-02
  18 F= -.67310036E+03 E0= -.67303372E+03  d E =-.250574E-03
 curvature:  -0.70 expect dE=-0.381E-03 dE for cont linesearch -0.972E-06
 trial: gam= 1.65704 g(F)=  0.542E-03 g(S)=  0.000E+00 ort =-0.264E-04 (trialstep = 0.171E+00)
 search vector abs. value=  0.184E-02
 bond charge predicted
       N       E                     dE             d eps       ncg     rms          rms(c)
DAV:   1    -0.658182861075E+03    0.16822E-03   -0.37861E-03   600   0.794E-02    0.784E-02
DAV:   2    -0.658183502730E+03   -0.64166E-03   -0.11283E-03   492   0.280E-02    0.387E-01
DAV:   3    -0.658183453908E+03    0.48822E-04   -0.26690E-03   504   0.406E-02    0.279E-01
DAV:   4    -0.658182984938E+03    0.46897E-03   -0.89970E-04   420   0.263E-02    0.145E-01
DAV:   5    -0.658182857585E+03    0.12735E-03   -0.14270E-04   360   0.106E-02    0.593E-02
DAV:   6    -0.658182830683E+03    0.26903E-04   -0.52818E-05   348   0.882E-03
  19 F= -.67310021E+03 E0= -.67303598E+03  d E =0.144913E-03
 trial-energy change:    0.000145  1 .order   -0.000064   -0.000085   -0.000043
 step:   0.3476(harm=  0.3476)  dis= 0.00103  next Energy=  -673.100442 (dE=-0.866E-04)
 bond charge predicted
       N       E                     dE             d eps       ncg     rms          rms(c)
DAV:   1    -0.658182711116E+03    0.14647E-03   -0.35963E-03   576   0.776E-02    0.360E-02
DAV:   2    -0.658183053054E+03   -0.34194E-03   -0.65470E-04   516   0.311E-02    0.221E-01
DAV:   3    -0.658182735106E+03    0.31795E-03   -0.61884E-04   420   0.254E-02    0.607E-02
DAV:   4    -0.658182714291E+03    0.20815E-04   -0.35717E-05   324   0.731E-03
  20 F= -.67310021E+03 E0= -.67303656E+03  d E =0.142750E-03
 curvature:  -0.64 expect dE=-0.221E-03 dE for cont linesearch -0.109E-05
 trial: gam= 0.32242 g(F)=  0.345E-03 g(S)=  0.000E+00 ort = 0.558E-04 (trialstep = 0.207E+00)
 search vector abs. value=  0.572E-03
 bond charge predicted
       N       E                     dE             d eps       ncg     rms          rms(c)
DAV:   1    -0.658182743915E+03   -0.88096E-05   -0.19247E-03   576   0.521E-02    0.316E-02
DAV:   2    -0.658182894039E+03   -0.15012E-03   -0.37004E-04   456   0.198E-02    0.162E-01
DAV:   3    -0.658182806783E+03    0.87255E-04   -0.49845E-04   420   0.191E-02
  21 F= -.67310034E+03 E0= -.67303503E+03  d E =-.126037E-03
 trial-energy change:   -0.000126  1 .order   -0.000065   -0.000075   -0.000055
 step:   0.7775(harm=  0.7775)  dis= 0.00111  next Energy=  -673.100353 (dE=-0.141E-03)
 bond charge predicted
       N       E                     dE             d eps       ncg     rms          rms(c)
DAV:   1    -0.658182705805E+03    0.18823E-03   -0.14622E-02   600   0.144E-01    0.734E-02
DAV:   2    -0.658183005355E+03   -0.29955E-03   -0.89443E-04   504   0.366E-02    0.247E-01
DAV:   3    -0.658183167860E+03   -0.16251E-03   -0.15382E-03   468   0.330E-02    0.251E-01
DAV:   4    -0.658182831863E+03    0.33600E-03   -0.77442E-04   432   0.257E-02    0.118E-01
DAV:   5    -0.658182778569E+03    0.53294E-04   -0.83329E-05   348   0.973E-03
  22 F= -.67310040E+03 E0= -.67303707E+03  d E =-.190907E-03
 curvature:  -0.61 expect dE=-0.375E-03 dE for cont linesearch -0.540E-07
 trial: gam= 1.93142 g(F)=  0.612E-03 g(S)=  0.000E+00 ort =-0.710E-05 (trialstep = 0.675E-01)
 search vector abs. value=  0.272E-02
 bond charge predicted
       N       E                     dE             d eps       ncg     rms          rms(c)
DAV:   1    -0.658182746629E+03    0.85234E-04   -0.90876E-04   576   0.373E-02    0.456E-02
DAV:   2    -0.658182864213E+03   -0.11758E-03   -0.75363E-05   324   0.111E-02    0.155E-01
DAV:   3    -0.658182758221E+03    0.10599E-03   -0.80648E-05   336   0.103E-02    0.535E-02
DAV:   4    -0.658182815390E+03   -0.57169E-04   -0.12115E-04   324   0.845E-03
  23 F= -.67310046E+03 E0= -.67303783E+03  d E =-.528348E-04
 trial-energy change:   -0.000053  1 .order   -0.000035   -0.000040   -0.000030
 step:   0.2595(harm=  0.2595)  dis= 0.00075  next Energy=  -673.100481 (dE=-0.776E-04)
 bond charge predicted
       N       E                     dE             d eps       ncg     rms          rms(c)
DAV:   1    -0.658182746295E+03    0.11925E-04   -0.73866E-03   576   0.103E-01    0.425E-02
DAV:   2    -0.658183400611E+03   -0.65432E-03   -0.10942E-03   528   0.399E-02    0.310E-01
DAV:   3    -0.658182793483E+03    0.60713E-03   -0.83045E-04   444   0.302E-02    0.342E-02
DAV:   4    -0.658182795406E+03   -0.19235E-05   -0.70033E-05   348   0.107E-02
  24 F= -.67310048E+03 E0= -.67303706E+03  d E =-.785570E-04
 curvature:  -0.59 expect dE=-0.331E-03 dE for cont linesearch -0.256E-04
 ZBRENT: increasing intervall
 opt :   0.6434  next Energy=  -673.100576 (dE=-0.173E-03)
 bond charge predicted
       N       E                     dE             d eps       ncg     rms          rms(c)
DAV:   1    -0.658182663653E+03    0.12983E-03   -0.29201E-02   600   0.204E-01    0.689E-02
DAV:   2    -0.658183223708E+03   -0.56006E-03   -0.20528E-03   720   0.613E-02    0.279E-01
DAV:   3    -0.658182818816E+03    0.40489E-03   -0.14472E-03   480   0.349E-02    0.123E-01
DAV:   4    -0.658182767424E+03    0.51392E-04   -0.15406E-04   348   0.141E-02
  25 F= -.67310055E+03 E0= -.67303767E+03  d E =-.142644E-03
 curvature:  -2.16 expect dE=-0.180E-02 dE for cont linesearch -0.998E-06
 trial: gam= 0.77160 g(F)=  0.830E-03 g(S)=  0.000E+00 ort = 0.354E-04 (trialstep = 0.183E+00)
 search vector abs. value=  0.250E-02
 bond charge predicted
       N       E                     dE             d eps       ncg     rms          rms(c)
DAV:   1    -0.658182867692E+03   -0.48875E-04   -0.61399E-03   576   0.885E-02    0.505E-02
DAV:   2    -0.658183189594E+03   -0.32190E-03   -0.68443E-04   516   0.303E-02    0.244E-01
DAV:   3    -0.658182977620E+03    0.21197E-03   -0.87596E-04   420   0.280E-02    0.134E-01
DAV:   4    -0.658182869532E+03    0.10809E-03   -0.11405E-04   348   0.126E-02    0.263E-02
DAV:   5    -0.658182868839E+03    0.69308E-06   -0.10700E-04   312   0.592E-03
  26 F= -.67310063E+03 E0= -.67303701E+03  d E =-.847885E-04
 trial-energy change:   -0.000085  1 .order   -0.000131   -0.000157   -0.000106
 step:   0.5645(harm=  0.5645)  dis= 0.00150  next Energy=  -673.100788 (dE=-0.242E-03)
 bond charge predicted
       N       E                     dE             d eps       ncg     rms          rms(c)
DAV:   1    -0.658182955834E+03   -0.86302E-04   -0.26851E-02   600   0.184E-01    0.585E-02
DAV:   2    -0.658183337515E+03   -0.38168E-03   -0.17140E-03   588   0.522E-02    0.235E-01
DAV:   3    -0.658183101691E+03    0.23582E-03   -0.11789E-03   456   0.303E-02    0.120E-01
DAV:   4    -0.658183041854E+03    0.59838E-04   -0.16544E-04   348   0.139E-02
  27 F= -.67310077E+03 E0= -.67303786E+03  d E =-.223553E-03
 curvature:  -0.82 expect dE=-0.638E-03 dE for cont linesearch -0.233E-07
 trial: gam= 0.93464 g(F)=  0.774E-03 g(S)=  0.000E+00 ort = 0.840E-05 (trialstep = 0.218E+00)
 search vector abs. value=  0.298E-02
 bond charge predicted
       N       E                     dE             d eps       ncg     rms          rms(c)
DAV:   1    -0.658183230179E+03   -0.12849E-03   -0.10541E-02   588   0.124E-01    0.635E-02
DAV:   2    -0.658184218996E+03   -0.98882E-03   -0.16855E-03   516   0.462E-02    0.459E-01
DAV:   3    -0.658183437516E+03    0.78148E-03   -0.18237E-03   480   0.412E-02    0.155E-01
DAV:   4    -0.658183241673E+03    0.19584E-03   -0.12385E-04   336   0.134E-02    0.388E-02
DAV:   5    -0.658183238538E+03    0.31349E-05   -0.10670E-04   348   0.812E-03
  28 F= -.67310086E+03 E0= -.67303745E+03  d E =-.938940E-04
 trial-energy change:   -0.000094  1 .order   -0.000133   -0.000170   -0.000096
 step:   0.4986(harm=  0.4986)  dis= 0.00154  next Energy=  -673.100965 (dE=-0.195E-03)
 bond charge predicted
       N       E                     dE             d eps       ncg     rms          rms(c)
DAV:   1    -0.658183374034E+03   -0.13236E-03   -0.17424E-02   600   0.159E-01    0.502E-02
DAV:   2    -0.658183582091E+03   -0.20806E-03   -0.99481E-04   504   0.412E-02    0.186E-01
DAV:   3    -0.658183505395E+03    0.76696E-04   -0.84497E-04   432   0.270E-02
  29 F= -.67310100E+03 E0= -.67303887E+03  d E =-.228668E-03
 curvature:  -0.95 expect dE=-0.590E-03 dE for cont linesearch -0.115E-05
 trial: gam= 0.67853 g(F)=  0.622E-03 g(S)=  0.000E+00 ort =-0.601E-04 (trialstep = 0.274E+00)
 search vector abs. value=  0.191E-02
 bond charge predicted
       N       E                     dE             d eps       ncg     rms          rms(c)
DAV:   1    -0.658183615657E+03   -0.33566E-04   -0.10412E-02   600   0.125E-01    0.600E-02
DAV:   2    -0.658183700010E+03   -0.84353E-04   -0.73123E-04   528   0.343E-02
  30 F= -.67310110E+03 E0= -.67303732E+03  d E =-.974951E-04
 trial-energy change:   -0.000097  1 .order   -0.000112   -0.000159   -0.000065
 step:   0.4627(harm=  0.4627)  dis= 0.00105  next Energy=  -673.101133 (dE=-0.134E-03)
 bond charge predicted
       N       E                     dE             d eps       ncg     rms          rms(c)
DAV:   1    -0.658183776225E+03   -0.16057E-03   -0.57205E-03   588   0.885E-02    0.887E-02
DAV:   2    -0.658185047080E+03   -0.12709E-02   -0.35541E-03   540   0.448E-02    0.522E-01
DAV:   3    -0.658184339485E+03    0.70759E-03   -0.47928E-03   540   0.535E-02    0.264E-01
DAV:   4    -0.658183787244E+03    0.55224E-03   -0.85614E-04   420   0.228E-02    0.778E-02
DAV:   5    -0.658183754885E+03    0.32359E-04   -0.50973E-04   360   0.929E-03
  31 F= -.67310108E+03 E0= -.67303764E+03  d E =-.856174E-04
 curvature:  -0.76 expect dE=-0.396E-03 dE for cont linesearch -0.128E-04
 ZBRENT: increasing intervall
 opt :   0.8401  next Energy=  -673.101130 (dE=-0.132E-03)
 bond charge predicted
       N       E                     dE             d eps       ncg     rms          rms(c)
DAV:   1    -0.658183825155E+03   -0.37911E-04   -0.19344E-02   600   0.170E-01    0.599E-02
DAV:   2    -0.658183926053E+03   -0.10090E-03   -0.66252E-04   516   0.390E-02    0.118E-01
DAV:   3    -0.658183891101E+03    0.34953E-04   -0.27647E-04   360   0.164E-02
  32 F= -.67310109E+03 E0= -.67303773E+03  d E =-.887152E-04
 curvature:  -2.73 expect dE=-0.372E-02 dE for cont linesearch -0.425E-04
 ZBRENT: bracketing found
 ZBRENT: interpolating
 opt :   0.6551  next Energy=  -673.101103 (dE=-0.105E-03)
 bond charge predicted
       N       E                     dE             d eps       ncg     rms          rms(c)
DAV:   1    -0.658183905221E+03    0.20832E-04   -0.51378E-03   600   0.886E-02    0.143E-01
DAV:   2    -0.658192504318E+03   -0.85991E-02   -0.23977E-02   744   0.131E-01    0.792E-01
DAV:   3    -0.658184122386E+03    0.83819E-02   -0.17818E-02   648   0.116E-01    0.184E-01
DAV:   4    -0.658183944829E+03    0.17756E-03   -0.65819E-04   432   0.210E-02    0.150E-01
DAV:   5    -0.658183865611E+03    0.79219E-04   -0.45247E-04   348   0.168E-02
  33 F= -.67310113E+03 E0= -.67303685E+03  d E =-.128420E-03
 curvature:  -1.02 expect dE=-0.107E-02 dE for cont linesearch -0.181E-07
 trial: gam= 1.52007 g(F)=  0.105E-02 g(S)=  0.000E+00 ort = 0.581E-05 (trialstep = 0.122E+00)
 search vector abs. value=  0.548E-02
 bond charge predicted
       N       E                     dE             d eps       ncg     rms          rms(c)
DAV:   1    -0.658183934647E+03    0.10182E-04   -0.58504E-03   576   0.897E-02    0.611E-02
DAV:   2    -0.658184555320E+03   -0.62067E-03   -0.17541E-03   528   0.336E-02    0.371E-01
DAV:   3    -0.658184317226E+03    0.23809E-03   -0.24291E-03   480   0.375E-02    0.209E-01
DAV:   4    -0.658184024063E+03    0.29316E-03   -0.44823E-04   384   0.200E-02    0.107E-01
DAV:   5    -0.658183941667E+03    0.82396E-04   -0.10325E-04   348   0.894E-03
  34 F= -.67310118E+03 E0= -.67303761E+03  d E =-.516712E-04
 trial-energy change:   -0.000052  1 .order   -0.000101   -0.000129   -0.000074
 step:   0.2856(harm=  0.2856)  dis= 0.00125  next Energy=  -673.101277 (dE=-0.151E-03)
 bond charge predicted
       N       E                     dE             d eps       ncg     rms          rms(c)
DAV:   1    -0.658184034664E+03   -0.10600E-04   -0.10026E-02   588   0.118E-01    0.755E-02
DAV:   2    -0.658184329831E+03   -0.29517E-03   -0.71666E-04   516   0.349E-02    0.244E-01
DAV:   3    -0.658184530381E+03   -0.20055E-03   -0.14309E-03   456   0.322E-02    0.307E-01
DAV:   4    -0.658184189556E+03    0.34082E-03   -0.76489E-04   432   0.250E-02    0.126E-01
DAV:   5    -0.658184112063E+03    0.77493E-04   -0.10239E-04   348   0.117E-02
  35 F= -.67310132E+03 E0= -.67303669E+03  d E =-.189609E-03
 curvature:  -0.74 expect dE=-0.472E-03 dE for cont linesearch -0.192E-04
 ZBRENT: increasing intervall
 opt :   0.6125  next Energy=  -673.101365 (dE=-0.239E-03)
 bond charge predicted
       N       E                     dE             d eps       ncg     rms          rms(c)
DAV:   1    -0.658183967294E+03    0.22226E-03   -0.40321E-02   600   0.235E-01    0.746E-02
DAV:   2    -0.658184092070E+03   -0.12478E-03   -0.13906E-03   768   0.536E-02    0.114E-01
DAV:   3    -0.658184148211E+03   -0.56141E-04   -0.59485E-04   480   0.213E-02
  36 F= -.67310129E+03 E0= -.67303563E+03  d E =-.161443E-03
 curvature:  -1.89 expect dE=-0.403E-02 dE for cont linesearch -0.932E-04
 ZBRENT: bracketing found
 ZBRENT: interpolating
 opt :   0.4230  next Energy=  -673.101342 (dE=-0.216E-03)
 bond charge predicted
       N       E                     dE             d eps       ncg     rms          rms(c)
DAV:   1    -0.658184137530E+03   -0.45461E-04   -0.14497E-02   612   0.140E-01    0.146E-01
DAV:   2    -0.658204923137E+03   -0.20786E-01   -0.21760E-02   816   0.133E-01    0.277E+00
DAV:   3    -0.658190416586E+03    0.14507E-01   -0.17564E-02   744   0.128E-01    0.415E-01
DAV:   4    -0.658184630071E+03    0.57865E-02   -0.27430E-03   576   0.568E-02    0.217E-01
DAV:   5    -0.658184255377E+03    0.37469E-03   -0.10533E-03   408   0.248E-02    0.141E-01
DAV:   6    -0.658184185360E+03    0.70016E-04   -0.80797E-04   360   0.166E-02
  37 F= -.67310136E+03 E0= -.67303734E+03  d E =-.235776E-03
 curvature:  -0.52 expect dE=-0.533E-03 dE for cont linesearch -0.108E-06
 trial: gam= 0.82442 g(F)=  0.102E-02 g(S)=  0.000E+00 ort =-0.335E-04 (trialstep = 0.182E+00)
 search vector abs. value=  0.468E-02
 bond charge predicted
       N       E                     dE             d eps       ncg     rms          rms(c)
DAV:   1    -0.658184167888E+03    0.87488E-04   -0.10224E-02   588   0.117E-01    0.569E-02
DAV:   2    -0.658184769877E+03   -0.60199E-03   -0.21550E-03   540   0.420E-02    0.368E-01
DAV:   3    -0.658184413303E+03    0.35657E-03   -0.21861E-03   456   0.348E-02    0.154E-01
DAV:   4    -0.658184256334E+03    0.15697E-03   -0.39347E-04   384   0.197E-02    0.125E-01
DAV:   5    -0.658184174645E+03    0.81689E-04   -0.10961E-04   348   0.890E-03
  38 F= -.67310139E+03 E0= -.67303722E+03  d E =-.288620E-04
 trial-energy change:   -0.000029  1 .order   -0.000149   -0.000180   -0.000119
 step:   0.5347(harm=  0.5347)  dis= 0.00208  next Energy=  -673.101626 (dE=-0.264E-03)
 bond charge predicted
       N       E                     dE             d eps       ncg     rms          rms(c)
DAV:   1    -0.658184210526E+03    0.45808E-04   -0.36434E-02   600   0.222E-01    0.113E-01
DAV:   2    -0.658184743068E+03   -0.53254E-03   -0.24154E-03   792   0.601E-02    0.313E-01
DAV:   3    -0.658185345696E+03   -0.60263E-03   -0.36662E-03   504   0.438E-02    0.473E-01
DAV:   4    -0.658184579886E+03    0.76581E-03   -0.19073E-03   456   0.354E-02    0.171E-01
DAV:   5    -0.658184404639E+03    0.17525E-03   -0.25959E-04   360   0.152E-02    0.156E-01
DAV:   6    -0.658184288434E+03    0.11620E-03   -0.10865E-04   384   0.120E-02    0.572E-02
DAV:   7    -0.658184297276E+03   -0.88416E-05   -0.61573E-05   336   0.104E-02
  39 F= -.67310159E+03 E0= -.67303711E+03  d E =-.228485E-03
 curvature:  -1.27 expect dE=-0.709E-03 dE for cont linesearch -0.403E-04
 ZBRENT: increasing intervall
 opt :   1.2394  next Energy=  -673.101676 (dE=-0.313E-03)
 bond charge predicted
       N       E                     dE             d eps       ncg     rms          rms(c)
DAV:   1    -0.658183691283E+03    0.59715E-03   -0.14565E-01   600   0.445E-01    0.155E-01
DAV:   2    -0.658184209788E+03   -0.51851E-03   -0.60293E-03   828   0.100E-01    0.232E-01
DAV:   3    -0.658185438855E+03   -0.12291E-02   -0.63189E-03   528   0.506E-02    0.580E-01
DAV:   4    -0.658184470111E+03    0.96874E-03   -0.42214E-03   528   0.470E-02    0.220E-01
DAV:   5    -0.658184118287E+03    0.35182E-03   -0.48032E-04   384   0.206E-02    0.160E-01
DAV:   6    -0.658183981820E+03    0.13647E-03   -0.19722E-04   396   0.133E-02    0.648E-02
DAV:   7    -0.658184006564E+03   -0.24744E-04   -0.11635E-04   384   0.128E-02
  40 F= -.67310146E+03 E0= -.67303665E+03  d E =-.936545E-04
 curvature:  -2.67 expect dE=-0.636E-02 dE for cont linesearch -0.130E-03
 ZBRENT: bracketing found
 ZBRENT: interpolating
 opt :   0.8499  next Energy=  -673.101652 (dE=-0.289E-03)
 bond charge predicted
       N       E                     dE             d eps       ncg     rms          rms(c)
DAV:   1    -0.658184110587E+03   -0.12877E-03   -0.45159E-02   600   0.247E-01    0.844E-02
DAV:   2    -0.658184655335E+03   -0.54475E-03   -0.23298E-03   792   0.686E-02    0.260E-01
DAV:   3    -0.658184503870E+03    0.15147E-03   -0.19669E-03   480   0.401E-02    0.250E-01
DAV:   4    -0.658184250950E+03    0.25292E-03   -0.51427E-04   432   0.243E-02    0.855E-02
DAV:   5    -0.658184195036E+03    0.55915E-04   -0.84806E-05   324   0.931E-03
  41 F= -.67310156E+03 E0= -.67303721E+03  d E =-.195670E-03
 curvature:  -1.25 expect dE=-0.159E-02 dE for cont linesearch -0.139E-04
 ZBRENT: interpolating
 opt :   0.7327  next Energy=  -673.101571 (dE=-0.209E-03)
 bond charge predicted
       N       E                     dE             d eps       ncg     rms          rms(c)
DAV:   1    -0.658184218224E+03    0.32726E-04   -0.40082E-03   576   0.737E-02    0.538E-02
DAV:   2    -0.658184442261E+03   -0.22404E-03   -0.12983E-03   480   0.260E-02    0.195E-01
DAV:   3    -0.658184417045E+03    0.25216E-04   -0.18655E-03   420   0.279E-02    0.187E-01
DAV:   4    -0.658184242190E+03    0.17485E-03   -0.54138E-04   420   0.171E-02    0.497E-02
DAV:   5    -0.658184225390E+03    0.16801E-04   -0.29773E-04   348   0.610E-03
  42 F= -.67310156E+03 E0= -.67303755E+03  d E =-.200158E-03
 curvature:  -1.20 expect dE=-0.124E-02 dE for cont linesearch -0.164E-06
 trial: gam= 0.88909 g(F)=  0.103E-02 g(S)=  0.000E+00 ort =-0.253E-04 (trialstep = 0.292E+00)
 search vector abs. value=  0.469E-02
 bond charge predicted
       N       E                     dE             d eps       ncg     rms          rms(c)
DAV:   1    -0.658184186692E+03    0.55498E-04   -0.26736E-02   600   0.195E-01    0.620E-02
DAV:   2    -0.658184304916E+03   -0.11822E-03   -0.12755E-03   612   0.480E-02    0.115E-01
DAV:   3    -0.658184392417E+03   -0.87501E-04   -0.96863E-04   432   0.206E-02
  43 F= -.67310188E+03 E0= -.67303994E+03  d E =-.317591E-03
 trial-energy change:   -0.000318  1 .order   -0.000192   -0.000295   -0.000089
 step:   0.4194(harm=  0.4194)  dis= 0.00165  next Energy=  -673.101774 (dE=-0.211E-03)
 bond charge predicted
       N       E                     dE             d eps       ncg     rms          rms(c)
DAV:   1    -0.658184289744E+03    0.15172E-04   -0.55664E-03   600   0.903E-02    0.144E-01
DAV:   2    -0.658192691147E+03   -0.84014E-02   -0.21239E-02   756   0.124E-01    0.847E-01
DAV:   3    -0.658184766135E+03    0.79250E-02   -0.16559E-02   672   0.112E-01    0.201E-01
DAV:   4    -0.658184490177E+03    0.27596E-03   -0.68757E-04   444   0.255E-02    0.209E-01
DAV:   5    -0.658184282985E+03    0.20719E-03   -0.42942E-04   360   0.200E-02    0.953E-02
DAV:   6    -0.658184243981E+03    0.39005E-04   -0.29089E-04   360   0.165E-02
  44 F= -.67310180E+03 E0= -.67303852E+03  d E =-.234955E-03
 curvature:  -0.97 expect dE=-0.854E-03 dE for cont linesearch -0.299E-06
 trial: gam= 0.85898 g(F)=  0.876E-03 g(S)=  0.000E+00 ort =-0.379E-04 (trialstep = 0.318E+00)
 search vector abs. value=  0.427E-02
 bond charge predicted
       N       E                     dE             d eps       ncg     rms          rms(c)
DAV:   1    -0.658184054413E+03    0.22857E-03   -0.29664E-02   600   0.208E-01    0.799E-02
DAV:   2    -0.658185918463E+03   -0.18640E-02   -0.40915E-03   792   0.708E-02    0.660E-01
DAV:   3    -0.658184463532E+03    0.14549E-02   -0.32181E-03   528   0.495E-02    0.168E-01
DAV:   4    -0.658184158726E+03    0.30481E-03   -0.32530E-04   348   0.173E-02    0.891E-02
DAV:   5    -0.658184133786E+03    0.24940E-04   -0.42578E-04   360   0.116E-02
  45 F= -.67310196E+03 E0= -.67303815E+03  d E =-.167191E-03
 trial-energy change:   -0.000167  1 .order   -0.000234   -0.000268   -0.000200
 step:   1.2459(harm=  1.2459)  dis= 0.00474  next Energy=  -673.102323 (dE=-0.525E-03)
 bond charge predicted
       N       E                     dE             d eps       ncg     rms          rms(c)
DAV:   1    -0.658182998765E+03    0.11600E-02   -0.25276E-01   600   0.606E-01    0.184E-01
DAV:   2    -0.658183615855E+03   -0.61709E-03   -0.80020E-03   792   0.129E-01    0.179E-01
DAV:   3    -0.658185095249E+03   -0.14794E-02   -0.60036E-03   588   0.592E-02    0.620E-01
DAV:   4    -0.658183899497E+03    0.11958E-02   -0.44075E-03   564   0.506E-02    0.212E-01
DAV:   5    -0.658183554097E+03    0.34540E-03   -0.65013E-04   444   0.213E-02    0.140E-01
DAV:   6    -0.658183523134E+03    0.30963E-04   -0.74307E-04   420   0.147E-02
  46 F= -.67310217E+03 E0= -.67303778E+03  d E =-.369799E-03
 curvature:  -3.15 expect dE=-0.101E-01 dE for cont linesearch -0.642E-11
 trial: gam= 3.11101 g(F)=  0.320E-02 g(S)=  0.000E+00 ort = 0.932E-07 (trialstep = 0.483E-01)
 search vector abs. value=  0.445E-01
 bond charge predicted
       N       E                     dE             d eps       ncg     rms          rms(c)
DAV:   1    -0.658183464616E+03    0.89482E-04   -0.70387E-03   588   0.995E-02    0.918E-02
DAV:   2    -0.658184515263E+03   -0.10506E-02   -0.31296E-03   504   0.441E-02    0.436E-01
DAV:   3    -0.658184233696E+03    0.28157E-03   -0.47455E-03   516   0.523E-02    0.362E-01
DAV:   4    -0.658183692471E+03    0.54123E-03   -0.12278E-03   420   0.275E-02    0.165E-01
DAV:   5    -0.658183497833E+03    0.19464E-03   -0.28529E-04   372   0.136E-02    0.769E-02
DAV:   6    -0.658183458091E+03    0.39742E-04   -0.93273E-05   360   0.115E-02
  47 F= -.67310223E+03 E0= -.67303834E+03  d E =-.637922E-04
 trial-energy change:   -0.000064  1 .order   -0.000133   -0.000154   -0.000112
 step:   0.1772(harm=  0.1772)  dis= 0.00213  next Energy=  -673.102450 (dE=-0.283E-03)
 bond charge predicted
       N       E                     dE             d eps       ncg     rms          rms(c)
DAV:   1    -0.658183205706E+03    0.29213E-03   -0.50521E-02   600   0.268E-01    0.915E-02
DAV:   2    -0.658184090803E+03   -0.88510E-03   -0.29492E-03   804   0.729E-02    0.354E-01
DAV:   3    -0.658183673067E+03    0.41774E-03   -0.26519E-03   540   0.471E-02    0.254E-01
DAV:   4    -0.658183437723E+03    0.23534E-03   -0.50916E-04   432   0.233E-02    0.133E-01
DAV:   5    -0.658183354676E+03    0.83047E-04   -0.75608E-05   348   0.109E-02
  48 F= -.67310247E+03 E0= -.67303903E+03  d E =-.304883E-03
 curvature:  -1.23 expect dE=-0.211E-02 dE for cont linesearch -0.375E-04
 ZBRENT: increasing intervall
 opt :   0.4349  next Energy=  -673.102472 (dE=-0.305E-03)
 bond charge predicted
       N       E                     dE             d eps       ncg     rms          rms(c)
DAV:   1    -0.658182296345E+03    0.11414E-02   -0.20118E-01   600   0.534E-01    0.182E-01
DAV:   2    -0.658185270687E+03   -0.29743E-02   -0.98495E-03   864   0.136E-01    0.527E-01
DAV:   3    -0.658183666328E+03    0.16044E-02   -0.10834E-02   720   0.988E-02    0.485E-01
DAV:   4    -0.658182949559E+03    0.71677E-03   -0.17701E-03   540   0.417E-02    0.202E-01
DAV:   5    -0.658182692289E+03    0.25727E-03   -0.25344E-04   444   0.209E-02    0.129E-01
DAV:   6    -0.658182708282E+03   -0.15993E-04   -0.47166E-04   468   0.200E-02
  49 F= -.67310252E+03 E0= -.67303780E+03  d E =-.349340E-03
 curvature:  -0.00 expect dE=-0.299E-05 dE for cont linesearch -0.237E-07
 ZBRENT: bracketing found
 ZBRENT: interpolating
 opt :   0.3214  next Energy=  -673.102569 (dE=-0.401E-03)
 bond charge predicted
       N       E                     dE             d eps       ncg     rms          rms(c)
DAV:   1    -0.658182925448E+03   -0.23316E-03   -0.40473E-02   600   0.238E-01    0.111E-01
DAV:   2    -0.658185698506E+03   -0.27731E-02   -0.83924E-03   840   0.970E-02    0.595E-01
DAV:   3    -0.658183453324E+03    0.22452E-02   -0.73401E-03   540   0.693E-02    0.217E-01
DAV:   4    -0.658183257386E+03    0.19594E-03   -0.67017E-04   408   0.237E-02    0.203E-01
DAV:   5    -0.658183101710E+03    0.15568E-03   -0.38222E-04   408   0.150E-02    0.103E-01
DAV:   6    -0.658183036200E+03    0.65510E-04   -0.31894E-04   408   0.142E-02
  50 F= -.67310254E+03 E0= -.67303915E+03  d E =-.372725E-03
 curvature:  -2.76 expect dE=-0.426E-02 dE for cont linesearch -0.159E-04
 ZBRENT: interpolating
 opt :   0.2238  next Energy=  -673.102572 (dE=-0.405E-03)
 bond charge predicted
       N       E                     dE             d eps       ncg     rms          rms(c)
DAV:   1    -0.658183184448E+03   -0.82738E-04   -0.28911E-02   600   0.203E-01    0.717E-02
DAV:   2    -0.658183490632E+03   -0.30618E-03   -0.12629E-03   684   0.480E-02    0.233E-01
DAV:   3    -0.658183512750E+03   -0.22118E-04   -0.12391E-03   444   0.279E-02    0.227E-01
DAV:   4    -0.658183383306E+03    0.12944E-03   -0.70648E-04   420   0.250E-02    0.154E-01
DAV:   5    -0.658183257831E+03    0.12548E-03   -0.94107E-05   324   0.110E-02    0.715E-02
DAV:   6    -0.658183236906E+03    0.20924E-04   -0.50429E-05   348   0.869E-03
  51 F= -.67310248E+03 E0= -.67303898E+03  d E =-.311811E-03
 curvature:  -5.60 expect dE=-0.717E-02 dE for cont linesearch -0.230E-04
 ZBRENT: interpolating
 opt :   0.2685  next Energy=  -673.102489 (dE=-0.321E-03)
 bond charge predicted
       N       E                     dE             d eps       ncg     rms          rms(c)
DAV:   1    -0.658183110759E+03    0.14707E-03   -0.64009E-03   576   0.946E-02    0.544E-02
DAV:   2    -0.658183479782E+03   -0.36902E-03   -0.68541E-04   516   0.325E-02    0.259E-01
DAV:   3    -0.658183366249E+03    0.11353E-03   -0.11374E-03   456   0.310E-02    0.204E-01
DAV:   4    -0.658183203272E+03    0.16298E-03   -0.33536E-04   384   0.179E-02    0.103E-01
DAV:   5    -0.658183140613E+03    0.62659E-04   -0.45526E-05   348   0.829E-03
  52 F= -.67310250E+03 E0= -.67303848E+03  d E =-.335374E-03
 curvature:  -2.33 expect dE=-0.338E-02 dE for cont linesearch -0.190E-05
 trial: gam= 0.09393 g(F)=  0.145E-02 g(S)=  0.000E+00 ort = 0.191E-03 (trialstep = 0.923E-01)
 search vector abs. value=  0.188E-02
 bond charge predicted
       N       E                     dE             d eps       ncg     rms          rms(c)
DAV:   1    -0.658183280670E+03   -0.77398E-04   -0.14926E-03   564   0.472E-02    0.330E-02
DAV:   2    -0.658183341809E+03   -0.61139E-04   -0.71799E-05   360   0.125E-02
  53 F= -.67310266E+03 E0= -.67303872E+03  d E =-.153269E-03
 ZBRENT: can't locate minimum, use default step
 trial-energy change:   -0.000153  1 .order   -0.000122   -0.000136   -0.000108
 step:   0.3692(harm=  0.4501)  dis= 0.00088  next Energy=  -673.102834 (dE=-0.331E-03)
 bond charge predicted
       N       E                     dE             d eps       ncg     rms          rms(c)
DAV:   1    -0.658183579215E+03   -0.29854E-03   -0.13489E-02   588   0.140E-01    0.472E-02
DAV:   2    -0.658183668720E+03   -0.89506E-04   -0.69783E-04   504   0.350E-02
  54 F= -.67310284E+03 E0= -.67303835E+03  d E =-.336717E-03
 curvature:  -0.27 expect dE=-0.207E-03 dE for cont linesearch -0.801E-05
 ZBRENT: extrapolating
 opt :   0.4389  next Energy=  -673.102848 (dE=-0.345E-03)
 bond charge predicted
       N       E                     dE             d eps       ncg     rms          rms(c)
DAV:   1    -0.658183684742E+03   -0.10553E-03   -0.12496E-03   576   0.401E-02    0.810E-02
DAV:   2    -0.658187744794E+03   -0.40601E-02   -0.58441E-03   540   0.640E-02    0.106E+00
DAV:   3    -0.658184638551E+03    0.31062E-02   -0.54394E-03   540   0.654E-02    0.208E-01
DAV:   4    -0.658183898470E+03    0.74008E-03   -0.62142E-04   444   0.244E-02    0.187E-01
DAV:   5    -0.658183689445E+03    0.20903E-03   -0.36172E-04   420   0.142E-02    0.514E-02
DAV:   6    -0.658183713127E+03   -0.23683E-04   -0.17759E-04   336   0.904E-03
  55 F= -.67310285E+03 E0= -.67303861E+03  d E =-.345134E-03
 curvature:  -0.28 expect dE=-0.262E-03 dE for cont linesearch -0.743E-06
 trial: gam= 0.58962 g(F)=  0.941E-03 g(S)=  0.000E+00 ort = 0.708E-04 (trialstep = 0.162E+00)
 search vector abs. value=  0.168E-02
 bond charge predicted
       N       E                     dE             d eps       ncg     rms          rms(c)
DAV:   1    -0.658183891751E+03   -0.20231E-03   -0.35565E-03   576   0.736E-02    0.317E-02
DAV:   2    -0.658184170625E+03   -0.27887E-03   -0.59346E-04   504   0.289E-02    0.205E-01
DAV:   3    -0.658183894697E+03    0.27593E-03   -0.38631E-04   420   0.217E-02    0.381E-02
DAV:   4    -0.658183887142E+03    0.75554E-05   -0.18938E-05   324   0.652E-03
  56 F= -.67310288E+03 E0= -.67303931E+03  d E =-.340220E-04
 trial-energy change:   -0.000034  1 .order   -0.000129   -0.000159   -0.000098
 step:   0.4248(harm=  0.4248)  dis= 0.00087  next Energy=  -673.103057 (dE=-0.209E-03)
 bond charge predicted
       N       E                     dE             d eps       ncg     rms          rms(c)
DAV:   1    -0.658184205690E+03   -0.31099E-03   -0.93678E-03   576   0.119E-01    0.640E-02
DAV:   2    -0.658184507034E+03   -0.30134E-03   -0.91425E-04   564   0.348E-02    0.232E-01
DAV:   3    -0.658184493771E+03    0.13263E-04   -0.15190E-03   468   0.337E-02    0.226E-01
DAV:   4    -0.658184306354E+03    0.18742E-03   -0.47850E-04   396   0.213E-02    0.105E-01
DAV:   5    -0.658184248489E+03    0.57865E-04   -0.48428E-05   360   0.950E-03
  57 F= -.67310302E+03 E0= -.67303916E+03  d E =-.167693E-03
 curvature:  -0.36 expect dE=-0.104E-03 dE for cont linesearch -0.878E-05
 ZBRENT: extrapolating
 opt :   0.5550  next Energy=  -673.103029 (dE=-0.181E-03)
 bond charge predicted
       N       E                     dE             d eps       ncg     rms          rms(c)
DAV:   1    -0.658184324489E+03   -0.18134E-04   -0.22853E-03   576   0.594E-02    0.380E-02
DAV:   2    -0.658184449227E+03   -0.12474E-03   -0.26706E-04   408   0.184E-02    0.162E-01
DAV:   3    -0.658184429606E+03    0.19621E-04   -0.43576E-04   420   0.195E-02
  58 F= -.67310308E+03 E0= -.67304095E+03  d E =-.236267E-03
 curvature:  -0.54 expect dE=-0.235E-03 dE for cont linesearch -0.344E-05
 ZBRENT: bracketing found
 ZBRENT: interpolating
 opt :   0.5109  next Energy=  -673.103086 (dE=-0.239E-03)
 bond charge predicted
       N       E                     dE             d eps       ncg     rms          rms(c)
DAV:   1    -0.658184320181E+03    0.12905E-03   -0.42548E-04   456   0.253E-02    0.682E-02
DAV:   2    -0.658185360499E+03   -0.10403E-02   -0.15835E-03   480   0.350E-02    0.413E-01
DAV:   3    -0.658184657072E+03    0.70343E-03   -0.25924E-03   480   0.435E-02    0.219E-01
DAV:   4    -0.658184445442E+03    0.21163E-03   -0.35633E-04   384   0.185E-02    0.141E-01
DAV:   5    -0.658184326478E+03    0.11896E-03   -0.65046E-05   348   0.889E-03    0.552E-02
DAV:   6    -0.658184311982E+03    0.14496E-04   -0.38303E-05   348   0.739E-03
  59 F= -.67310300E+03 E0= -.67303945E+03  d E =-.156733E-03
 curvature:  -0.36 expect dE=-0.148E-03 dE for cont linesearch -0.480E-06
 trial: gam= 0.38911 g(F)=  0.412E-03 g(S)=  0.000E+00 ort =-0.474E-04 (trialstep = 0.231E+00)
 search vector abs. value=  0.629E-03
 bond charge predicted
       N       E                     dE             d eps       ncg     rms          rms(c)
DAV:   1    -0.658184460859E+03   -0.13438E-03   -0.30082E-03   576   0.621E-02    0.280E-02
DAV:   2    -0.658184530888E+03   -0.70029E-04   -0.18085E-04   456   0.177E-02
  60 F= -.67310311E+03 E0= -.67304031E+03  d E =-.107013E-03
 trial-energy change:   -0.000107  1 .order   -0.000066   -0.000091   -0.000041
 step:   0.4205(harm=  0.4205)  dis= 0.00055  next Energy=  -673.103087 (dE=-0.826E-04)
 bond charge predicted
       N       E                     dE             d eps       ncg     rms          rms(c)
DAV:   1    -0.658184615620E+03   -0.15476E-03   -0.22526E-03   612   0.533E-02    0.866E-02
DAV:   2    -0.658188409496E+03   -0.37939E-02   -0.81690E-03   612   0.766E-02    0.647E-01
DAV:   3    -0.658184854754E+03    0.35547E-02   -0.63838E-03   540   0.723E-02    0.108E-01
DAV:   4    -0.658184712077E+03    0.14268E-03   -0.30812E-04   408   0.175E-02    0.146E-01
DAV:   5    -0.658184603618E+03    0.10846E-03   -0.17913E-04   336   0.134E-02    0.452E-02
DAV:   6    -0.658184606991E+03   -0.33728E-05   -0.12457E-04   336   0.106E-02
  61 F= -.67310310E+03 E0= -.67303945E+03  d E =-.918387E-04
 curvature:  -0.34 expect dE=-0.829E-04 dE for cont linesearch -0.280E-05
 ZBRENT: increasing intervall
 opt :   0.7984  next Energy=  -673.103084 (dE=-0.797E-04)
 bond charge predicted
       N       E                     dE             d eps       ncg     rms          rms(c)
DAV:   1    -0.658184691990E+03   -0.88372E-04   -0.79504E-03   576   0.101E-01    0.391E-02
DAV:   2    -0.658184896170E+03   -0.20418E-03   -0.81660E-04   504   0.308E-02    0.192E-01
DAV:   3    -0.658184784511E+03    0.11166E-03   -0.75384E-04   432   0.228E-02    0.105E-01
DAV:   4    -0.658184719116E+03    0.65395E-04   -0.96713E-05   348   0.106E-02
  62 F= -.67310303E+03 E0= -.67303917E+03  d E =-.216349E-04
 curvature:   1.46 expect dE= 0.128E-02 dE for cont linesearch  0.164E-03
 ZBRENT: bracketing found
 ZBRENT: interpolating
 opt :   0.5013  next Energy=  -673.103099 (dE=-0.948E-04)
 bond charge predicted
       N       E                     dE             d eps       ncg     rms          rms(c)
DAV:   1    -0.658184600905E+03    0.18361E-03   -0.50650E-03   576   0.796E-02    0.447E-02
DAV:   2    -0.658184776125E+03   -0.17522E-03   -0.64526E-04   504   0.257E-02    0.186E-01
DAV:   3    -0.658184808912E+03   -0.32787E-04   -0.91969E-04   444   0.246E-02
  63 F= -.67310326E+03 E0= -.67304177E+03  d E =-.254744E-03
 curvature:  -0.03 expect dE=-0.844E-05 dE for cont linesearch -0.616E-07
 trial: gam= 0.80048 g(F)=  0.325E-03 g(S)=  0.000E+00 ort =-0.386E-04 (trialstep = 0.270E+00)
 search vector abs. value=  0.666E-03
 bond charge predicted
       N       E                     dE             d eps       ncg     rms          rms(c)
DAV:   1    -0.658184775257E+03    0.86796E-06   -0.34264E-03   600   0.757E-02    0.693E-02
DAV:   2    -0.658185634760E+03   -0.85950E-03   -0.12897E-03   516   0.353E-02    0.388E-01
DAV:   3    -0.658185147930E+03    0.48683E-03   -0.23623E-03   480   0.437E-02    0.239E-01
DAV:   4    -0.658184905313E+03    0.24262E-03   -0.47061E-04   396   0.205E-02    0.144E-01
DAV:   5    -0.658184774788E+03    0.13052E-03   -0.78870E-05   348   0.102E-02    0.503E-02
DAV:   6    -0.658184766064E+03    0.87246E-05   -0.35542E-05   348   0.820E-03
  64 F= -.67310313E+03 E0= -.67303967E+03  d E =0.126265E-03
 trial-energy change:    0.000126  1 .order   -0.000053   -0.000079   -0.000026
 step:   0.4020(harm=  0.4020)  dis= 0.00050  next Energy=  -673.103318 (dE=-0.590E-04)
 bond charge predicted
       N       E                     dE             d eps       ncg     rms          rms(c)
DAV:   1    -0.658184786655E+03   -0.11867E-04   -0.77240E-04   588   0.364E-02    0.220E-02
DAV:   2    -0.658184910453E+03   -0.12380E-03   -0.18203E-04   408   0.161E-02    0.150E-01
DAV:   3    -0.658184796424E+03    0.11403E-03   -0.22475E-04   408   0.155E-02    0.531E-02
DAV:   4    -0.658184782901E+03    0.13524E-04   -0.16795E-05   324   0.550E-03
  65 F= -.67310311E+03 E0= -.67303919E+03  d E =0.150348E-03
 curvature:  -0.46 expect dE=-0.139E-03 dE for cont linesearch -0.978E-11
 trial: gam= 0.72660 g(F)=  0.304E-03 g(S)=  0.000E+00 ort =-0.120E-06 (trialstep = 0.296E+00)
 search vector abs. value=  0.655E-03
 bond charge predicted
       N       E                     dE             d eps       ncg     rms          rms(c)
DAV:   1    -0.658184805410E+03   -0.89854E-05   -0.43431E-03   576   0.813E-02    0.272E-02
DAV:   2    -0.658184825928E+03   -0.20519E-04   -0.20974E-04   444   0.189E-02
  66 F= -.67310319E+03 E0= -.67303887E+03  d E =-.805930E-04
 trial-energy change:   -0.000081  1 .order   -0.000065   -0.000090   -0.000040
 step:   0.5379(harm=  0.5379)  dis= 0.00080  next Energy=  -673.103191 (dE=-0.818E-04)
 bond charge predicted
       N       E                     dE             d eps       ncg     rms          rms(c)
DAV:   1    -0.658184838321E+03   -0.32912E-04   -0.31319E-03   576   0.686E-02    0.786E-02
DAV:   2    -0.658189171276E+03   -0.43330E-02   -0.55885E-03   552   0.660E-02    0.110E+00
DAV:   3    -0.658185825018E+03    0.33463E-02   -0.52396E-03   564   0.676E-02    0.210E-01
DAV:   4    -0.658184980572E+03    0.84445E-03   -0.55470E-04   432   0.252E-02    0.137E-01
DAV:   5    -0.658184851361E+03    0.12921E-03   -0.32827E-04   396   0.136E-02    0.653E-02
DAV:   6    -0.658184848182E+03    0.31793E-05   -0.18819E-04   324   0.830E-03
  67 F= -.67310324E+03 E0= -.67303919E+03  d E =-.133606E-03
 curvature:  -0.58 expect dE=-0.161E-03 dE for cont linesearch -0.137E-05
 trial: gam= 0.77972 g(F)=  0.277E-03 g(S)=  0.000E+00 ort = 0.394E-04 (trialstep = 0.306E+00)
 search vector abs. value=  0.737E-03
 bond charge predicted
       N       E                     dE             d eps       ncg     rms          rms(c)
DAV:   1    -0.658184791108E+03    0.60253E-04   -0.46960E-03   576   0.828E-02    0.549E-02
DAV:   2    -0.658185175580E+03   -0.38447E-03   -0.13660E-03   504   0.313E-02    0.244E-01
DAV:   3    -0.658184975316E+03    0.20026E-03   -0.19421E-03   444   0.338E-02    0.180E-01
DAV:   4    -0.658184814262E+03    0.16105E-03   -0.47730E-04   420   0.163E-02    0.537E-02
DAV:   5    -0.658184792840E+03    0.21422E-04   -0.27714E-04   324   0.684E-03
  68 F= -.67310329E+03 E0= -.67303941E+03  d E =-.488375E-04
 trial-energy change:   -0.000049  1 .order   -0.000078   -0.000094   -0.000062
 step:   0.8981(harm=  0.8981)  dis= 0.00116  next Energy=  -673.103381 (dE=-0.138E-03)
 reached required accuracy - stopping structural energy minimisation
