 vasp.5.4.1 05Feb16 (build Apr 21 2017 13:36:42) gamma-only                     
  
 executed on           IFC91_ompi date 2020.09.14  23:52:59
 running on   36 total cores
 distrk:  each k-point on   36 cores,    1 groups
 distr:  one band on NCORES_PER_BAND=   3 cores,   12 groups


--------------------------------------------------------------------------------------------------------


 INCAR:
 POTCAR:    PAW_PBE C 08Apr2002                   
 POTCAR:    PAW_PBE Cr 06Sep2000                  
 POTCAR:    PAW_PBE H 15Jun2001                   
 POTCAR:    PAW_PBE Mo 08Apr2002                  
 POTCAR:    PAW_PBE S 06Sep2000                   
 POTCAR:    PAW_PBE C 08Apr2002                   
   VRHFIN =C: s2p2                                                              
   LEXCH  = PE                                                                  
   EATOM  =   147.1560 eV,   10.8157 Ry                                         
                                                                                
   TITEL  = PAW_PBE C 08Apr2002                                                 
   LULTRA =        F    use ultrasoft PP ?                                      
   IUNSCR =        1    unscreen: 0-lin 1-nonlin 2-no                           
   RPACOR =    1.200    partial core radius                                     
   POMASS =   12.011; ZVAL   =    4.000    mass and valenz                      
   RCORE  =    1.500    outmost cutoff radius                                   
   RWIGS  =    1.630; RWIGS  =    0.863    wigner-seitz radius (au A)           
   ENMAX  =  400.000; ENMIN  =  300.000 eV                                      
   ICORE  =        2    local potential                                         
   LCOR   =        T    correct aug charges                                     
   LPAW   =        T    paw PP                                                  
   EAUG   =  644.873                                                            
   DEXC   =    0.000                                                            
   RMAX   =    1.529    core radius for proj-oper                               
   RAUG   =    1.300    factor for augmentation sphere                          
   RDEP   =    1.501    radius for radial grids                                 
   RDEPT  =    1.300    core radius for aug-charge                              
                                                                                
   Atomic configuration                                                         
    4 entries                                                                   
     n  l   j            E        occ.                                          
     1  0  0.50      -273.3789   2.0000                                         
     2  0  0.50       -13.7508   2.0000                                         
     2  1  0.50        -5.2854   2.0000                                         
     3  2  1.50        -5.4423   0.0000                                         
   Description                                                                  
     l       E           TYP  RCUT    TYP  RCUT                                 
     0    -13.7508458     23  1.200                                             
     0     -8.2022199     23  1.200                                             
     1     -5.2854383     23  1.500                                             
     1     34.0145650     23  1.500                                             
     2     -5.4423304      7  1.500                                             
  local pseudopotential read in
  partial core-charges read in
  partial kinetic energy density read in
  atomic valenz-charges read in
  non local Contribution for L=           0  read in
    real space projection operators read in
  non local Contribution for L=           0  read in
    real space projection operators read in
  non local Contribution for L=           1  read in
    real space projection operators read in
  non local Contribution for L=           1  read in
    real space projection operators read in
    PAW grid and wavefunctions read in
 
   number of l-projection  operators is LMAX  =           4
   number of lm-projection operators is LMMAX =           8
 
 POTCAR:    PAW_PBE Cr 06Sep2000                  
   VRHFIN =Cr : d5 s1                                                           
   LEXCH  = PE                                                                  
   EATOM  =   276.8859 eV,   20.3505 Ry                                         
                                                                                
   TITEL  = PAW_PBE Cr 06Sep2000                                                
   LULTRA =        F    use ultrasoft PP ?                                      
   IUNSCR =        1    unscreen: 0-lin 1-nonlin 2-no                           
   RPACOR =    2.080    partial core radius                                     
   POMASS =   51.996; ZVAL   =    6.000    mass and valenz                      
   RCORE  =    2.500    outmost cutoff radius                                   
   RWIGS  =    2.500; RWIGS  =    1.323    wigner-seitz radius (au A)           
   ENMAX  =  227.080; ENMIN  =  170.310 eV                                      
   RCLOC  =    1.721    cutoff for local pot                                    
   LCOR   =        T    correct aug charges                                     
   LPAW   =        T    paw PP                                                  
   EAUG   =  402.108                                                            
   DEXC   =    0.000                                                            
   RMAX   =    2.552    core radius for proj-oper                               
   RAUG   =    1.300    factor for augmentation sphere                          
   RDEP   =    2.609    radius for radial grids                                 
   RDEPT  =    2.065    core radius for aug-charge                              
                                                                                
   Atomic configuration                                                         
    9 entries                                                                   
     n  l   j            E        occ.                                          
     1  0  0.50     -5880.4963   2.0000                                         
     2  0  0.50      -667.0865   2.0000                                         
     2  1  1.50      -560.6250   6.0000                                         
     3  0  0.50       -73.9860   2.0000                                         
     3  1  1.50       -45.4378   6.0000                                         
     3  2  2.50        -2.9137   5.0000                                         
     4  0  0.50        -4.0071   1.0000                                         
     4  1  0.50        -1.2789   0.0000                                         
     4  3  2.50        -1.3606   0.0000                                         
   Description                                                                  
     l       E           TYP  RCUT    TYP  RCUT                                 
     2     -2.9136677     23  2.500                                             
     2     -4.2742503     23  2.500                                             
     0     -4.0071322     23  2.500                                             
     0      9.4498801     23  2.500                                             
     1     -5.4423304     23  2.500                                             
     1     27.2116520     23  2.500                                             
  local pseudopotential read in
  partial core-charges read in
  partial kinetic energy density read in
  atomic valenz-charges read in
  non local Contribution for L=           2  read in
    real space projection operators read in
  non local Contribution for L=           2  read in
    real space projection operators read in
  non local Contribution for L=           0  read in
    real space projection operators read in
  non local Contribution for L=           0  read in
    real space projection operators read in
  non local Contribution for L=           1  read in
    real space projection operators read in
  non local Contribution for L=           1  read in
    real space projection operators read in
    PAW grid and wavefunctions read in
 
   number of l-projection  operators is LMAX  =           6
   number of lm-projection operators is LMMAX =          18
 
 POTCAR:    PAW_PBE H 15Jun2001                   
   VRHFIN =H: ultrasoft test                                                    
   LEXCH  = PE                                                                  
   EATOM  =    12.4884 eV,    0.9179 Ry                                         
                                                                                
   TITEL  = PAW_PBE H 15Jun2001                                                 
   LULTRA =        F    use ultrasoft PP ?                                      
   IUNSCR =        0    unscreen: 0-lin 1-nonlin 2-no                           
   RPACOR =    0.000    partial core radius                                     
   POMASS =    1.000; ZVAL   =    1.000    mass and valenz                      
   RCORE  =    1.100    outmost cutoff radius                                   
   RWIGS  =    0.700; RWIGS  =    0.370    wigner-seitz radius (au A)           
   ENMAX  =  250.000; ENMIN  =  200.000 eV                                      
   RCLOC  =    0.701    cutoff for local pot                                    
   LCOR   =        T    correct aug charges                                     
   LPAW   =        T    paw PP                                                  
   EAUG   =  400.000                                                            
   RMAX   =    1.123    core radius for proj-oper                               
   RAUG   =    1.200    factor for augmentation sphere                          
   RDEP   =    1.112    radius for radial grids                                 
   RDEPT  =    0.926    core radius for aug-charge                              
                                                                                
   Atomic configuration                                                         
    2 entries                                                                   
     n  l   j            E        occ.                                          
     1  0  0.50        -6.4927   1.0000                                         
     2  1  0.50        -3.4015   0.0000                                         
   Description                                                                  
     l       E           TYP  RCUT    TYP  RCUT                                 
     0     -6.4927494     23  1.100                                             
     0      6.8029130     23  1.100                                             
     1     -4.0817478     23  1.100                                             
  local pseudopotential read in
  atomic valenz-charges read in
  non local Contribution for L=           0  read in
    real space projection operators read in
  non local Contribution for L=           0  read in
    real space projection operators read in
  non local Contribution for L=           1  read in
    real space projection operators read in
    PAW grid and wavefunctions read in
 
   number of l-projection  operators is LMAX  =           3
   number of lm-projection operators is LMMAX =           5
 
 POTCAR:    PAW_PBE Mo 08Apr2002                  
   VRHFIN =Mo: 4p5s4d                                                           
   LEXCH  = PE                                                                  
   EATOM  =   217.5176 eV,   15.9871 Ry                                         
                                                                                
   TITEL  = PAW_PBE Mo 08Apr2002                                                
   LULTRA =        F    use ultrasoft PP ?                                      
   IUNSCR =        1    unscreen: 0-lin 1-nonlin 2-no                           
   RPACOR =    2.200    partial core radius                                     
   POMASS =   95.940; ZVAL   =    6.000    mass and valenz                      
   RCORE  =    2.750    outmost cutoff radius                                   
   RWIGS  =    2.750; RWIGS  =    1.455    wigner-seitz radius (au A)           
   ENMAX  =  224.584; ENMIN  =  168.438 eV                                      
   RCLOC  =    2.111    cutoff for local pot                                    
   LCOR   =        T    correct aug charges                                     
   LPAW   =        T    paw PP                                                  
   EAUG   =  345.278                                                            
   DEXC   =    0.000                                                            
   RMAX   =    2.821    core radius for proj-oper                               
   RAUG   =    1.300    factor for augmentation sphere                          
   RDEP   =    2.815    radius for radial grids                                 
   RDEPT  =    2.211    core radius for aug-charge                              
                                                                                
   Atomic configuration                                                         
   12 entries                                                                   
     n  l   j            E        occ.                                          
     1  0  0.50    -19819.0341   2.0000                                         
     2  0  0.50     -2799.0127   2.0000                                         
     2  1  1.50     -2502.0276   6.0000                                         
     3  0  0.50      -476.4448   2.0000                                         
     3  1  1.50      -379.1496   6.0000                                         
     3  2  2.50      -220.9367  10.0000                                         
     4  0  0.50       -64.3378   2.0000                                         
     4  1  1.50       -38.4773   6.0000                                         
     4  2  2.50        -3.7535   5.0000                                         
     5  0  0.50        -4.0862   1.0000                                         
     5  1  0.50        -2.7701   0.0000                                         
     4  3  2.50        -1.3606   0.0000                                         
   Description                                                                  
     l       E           TYP  RCUT    TYP  RCUT                                 
     2     -3.7534765     23  2.500                                             
     2     -5.1140591     23  2.500                                             
     0     -4.0861560     23  2.600                                             
     0     13.6058260     23  2.600                                             
     1      5.4423304     23  2.750                                             
     1     27.2116520     23  2.750                                             
  local pseudopotential read in
  partial core-charges read in
  partial kinetic energy density read in
  atomic valenz-charges read in
  non local Contribution for L=           2  read in
    real space projection operators read in
  non local Contribution for L=           2  read in
    real space projection operators read in
  non local Contribution for L=           0  read in
    real space projection operators read in
  non local Contribution for L=           0  read in
    real space projection operators read in
  non local Contribution for L=           1  read in
    real space projection operators read in
  non local Contribution for L=           1  read in
    real space projection operators read in
    PAW grid and wavefunctions read in
 
   number of l-projection  operators is LMAX  =           6
   number of lm-projection operators is LMMAX =          18
 
 POTCAR:    PAW_PBE S 06Sep2000                   
   VRHFIN =S : s2p4                                                             
   LEXCH  = PE                                                                  
   EATOM  =   276.8230 eV,   20.3459 Ry                                         
                                                                                
   TITEL  = PAW_PBE S 06Sep2000                                                 
   LULTRA =        F    use ultrasoft PP ?                                      
   IUNSCR =        1    unscreen: 0-lin 1-nonlin 2-no                           
   RPACOR =    1.500    partial core radius                                     
   POMASS =   32.066; ZVAL   =    6.000    mass and valenz                      
   RCORE  =    1.900    outmost cutoff radius                                   
   RWIGS  =    2.200; RWIGS  =    1.164    wigner-seitz radius (au A)           
   ENMAX  =  258.689; ENMIN  =  194.016 eV                                      
   ICORE  =        2    local potential                                         
   LCOR   =        T    correct aug charges                                     
   LPAW   =        T    paw PP                                                  
   EAUG   =  335.092                                                            
   DEXC   =    0.000                                                            
   RMAX   =    1.942    core radius for proj-oper                               
   RAUG   =    1.300    factor for augmentation sphere                          
   RDEP   =    1.954    radius for radial grids                                 
   RDEPT  =    1.744    core radius for aug-charge                              
                                                                                
   Atomic configuration                                                         
    6 entries                                                                   
     n  l   j            E        occ.                                          
     1  0  0.50     -2405.8406   2.0000                                         
     2  0  0.50      -211.7007   2.0000                                         
     2  1  1.50      -156.4958   6.0000                                         
     3  0  0.50       -17.2562   2.0000                                         
     3  1  0.50        -7.0085   4.0000                                         
     3  2  1.50        -6.8029   0.0000                                         
   Description                                                                  
     l       E           TYP  RCUT    TYP  RCUT                                 
     0    -17.2561641     23  1.900                                             
     0    -15.8743224     23  1.900                                             
     1     -7.0085400     23  1.900                                             
     1     -2.7779785     23  1.900                                             
     2     -6.8029130     23  1.900                                             
  local pseudopotential read in
  partial core-charges read in
  partial kinetic energy density read in
  atomic valenz-charges read in
  non local Contribution for L=           0  read in
    real space projection operators read in
  non local Contribution for L=           0  read in
    real space projection operators read in
  non local Contribution for L=           1  read in
    real space projection operators read in
  non local Contribution for L=           1  read in
    real space projection operators read in
    PAW grid and wavefunctions read in
 
   number of l-projection  operators is LMAX  =           4
   number of lm-projection operators is LMMAX =           8
 
 Optimization of the real space projectors (new method)

 maximal supplied QI-value         = 25.13
 optimisation between [QCUT,QGAM] = [ 10.05, 20.36] = [ 28.30,116.06] Ry 
 Optimized for a Real-space Cutoff    1.51 Angstroem

   l    n(q)    QCUT    max X(q) W(low)/X(q) W(high)/X(q)  e(spline) 
   0      9    10.053   115.676    0.19E-03    0.21E-03    0.38E-06
   0      9    10.053    87.132    0.19E-03    0.21E-03    0.38E-06
   1      9    10.053     4.429    0.87E-04    0.11E-03    0.39E-06
   1      9    10.053     2.733    0.59E-04    0.62E-04    0.43E-06
 Optimization of the real space projectors (new method)

 maximal supplied QI-value         = 15.12
 optimisation between [QCUT,QGAM] = [ 10.13, 20.41] = [ 28.73,116.64] Ry 
 Optimized for a Real-space Cutoff    1.55 Angstroem

   l    n(q)    QCUT    max X(q) W(low)/X(q) W(high)/X(q)  e(spline) 
   2      9    10.129    94.395    0.23E-03    0.29E-03    0.30E-06
   2      9    10.129    88.078    0.23E-03    0.29E-03    0.30E-06
   0      9    10.129    50.173    0.57E-04    0.58E-04    0.11E-06
   0      9    10.129    24.906    0.50E-04    0.51E-04    0.96E-07
   1      9    10.129    12.133    0.24E-03    0.21E-04    0.16E-06
   1      9    10.129     7.290    0.17E-03    0.12E-04    0.12E-06
 Optimization of the real space projectors (new method)

 maximal supplied QI-value         = 34.20
 optimisation between [QCUT,QGAM] = [  9.92, 20.18] = [ 27.55,114.04] Ry 
 Optimized for a Real-space Cutoff    1.34 Angstroem

   l    n(q)    QCUT    max X(q) W(low)/X(q) W(high)/X(q)  e(spline) 
   0      8     9.919    19.460    0.16E-03    0.20E-03    0.36E-06
   0      8     9.919    12.209    0.16E-03    0.20E-03    0.35E-06
   1      8     9.919     4.655    0.19E-03    0.46E-03    0.40E-06
 Optimization of the real space projectors (new method)

 maximal supplied QI-value         = 13.61
 optimisation between [QCUT,QGAM] = [ 10.20, 20.41] = [ 29.16,116.64] Ry 
 Optimized for a Real-space Cutoff    1.65 Angstroem

   l    n(q)    QCUT    max X(q) W(low)/X(q) W(high)/X(q)  e(spline) 
   2      9    10.205    80.908    0.21E-03    0.30E-03    0.60E-06
   2      9    10.205    79.000    0.21E-03    0.30E-03    0.60E-06
   0     10    10.205    52.066    0.39E-04    0.38E-04    0.19E-06
   0     10    10.205    24.514    0.33E-04    0.32E-04    0.16E-06
   1     10    10.205    16.033    0.64E-04    0.17E-03    0.19E-06
   1     10    10.205    11.179    0.49E-04    0.13E-03    0.15E-06
 Optimization of the real space projectors (new method)

 maximal supplied QI-value         = 19.84
 optimisation between [QCUT,QGAM] = [ 10.12, 20.44] = [ 28.68,116.96] Ry 
 Optimized for a Real-space Cutoff    1.42 Angstroem

   l    n(q)    QCUT    max X(q) W(low)/X(q) W(high)/X(q)  e(spline) 
   0      9    10.119   187.594    0.52E-04    0.93E-04    0.64E-07
   0      9    10.119   164.243    0.51E-04    0.92E-04    0.63E-07
   1      8    10.119    67.533    0.16E-03    0.17E-03    0.23E-06
   1      8    10.119    50.729    0.16E-03    0.16E-03    0.23E-06
  PAW_PBE C 08Apr2002                   :
 energy of atom  1       EATOM= -147.1560
 kinetic energy error for atom=    0.0288 (will be added to EATOM!!)
  PAW_PBE Cr 06Sep2000                  :
 energy of atom  2       EATOM= -276.8859
 kinetic energy error for atom=    0.0018 (will be added to EATOM!!)
  PAW_PBE H 15Jun2001                   :
 energy of atom  3       EATOM=  -12.4884
 kinetic energy error for atom=    0.0098 (will be added to EATOM!!)
  PAW_PBE Mo 08Apr2002                  :
 energy of atom  4       EATOM= -217.5176
 kinetic energy error for atom=    0.0025 (will be added to EATOM!!)
  PAW_PBE S 06Sep2000                   :
 energy of atom  5       EATOM= -276.8230
 kinetic energy error for atom=    0.0046 (will be added to EATOM!!)
 
 
 POSCAR:  C Cr  H Mo  S                          
  positions in cartesian coordinates
  No initial velocities read in
 exchange correlation table for  LEXCH =        8
   RHO(1)=    0.500       N(1)  =     2000
   RHO(2)=  100.500       N(2)  =     4000

 VTST: version 3.1, (03/28/14)

 CHAIN: initializing optimizer
 
 OPT: Using VASP Conjugate-Gradient optimizer
 CHAIN: Read ICHAIN            0
 
 POSCAR:  C Cr  H Mo  S                          
  positions in cartesian coordinates
  No initial velocities read in
 


--------------------------------------------------------------------------------------------------------


 ion  position               nearest neighbor table
   1  0.943  0.942  0.470-  18 1.09   2 1.42   3 1.43  11 2.20
   2  0.058  0.980  0.501-  17 1.09   1 1.42   5 1.43  11 2.18
   3  0.897  0.032  0.465-  19 1.09   1 1.43   4 1.44  11 2.15
   4  0.985  0.127  0.492-  20 1.09   3 1.44   5 1.44  11 2.09
   5  0.084  0.095  0.515-  12 1.09   2 1.43   4 1.44  11 2.11
   6  0.717  0.824  0.562-  16 1.09  10 1.44   8 1.44  11 2.11
   7  0.723  0.007  0.570-  15 1.09   9 1.43   8 1.44  11 2.15
   8  0.796  0.938  0.582-  13 1.09   7 1.44   6 1.44  11 2.10
   9  0.600  0.937  0.543-  14 1.09  10 1.42   7 1.43  11 2.20
  10  0.596  0.824  0.538-  21 1.09   9 1.42   6 1.44  11 2.18
  11  0.838  0.969  0.523-   4 2.09   8 2.10   5 2.11   6 2.11   3 2.15   7 2.15  10 2.18   2 2.18
                             1 2.20   9 2.20
  12  0.167  0.148  0.537-   5 1.09
  13  0.891  0.965  0.603-   8 1.09
  14  0.528  0.966  0.527-   9 1.09
  15  0.757  0.098  0.579-   7 1.09
  16  0.741  0.750  0.565-   6 1.09
  17  0.111  0.929  0.512-   2 1.09
  18  0.893  0.857  0.455-   1 1.09
  19  0.811  0.028  0.444-   3 1.09
  20  0.980  0.211  0.495-   4 1.09
  21  0.518  0.753  0.518-  10 1.09
  22  0.556  0.083  0.250-  46 2.42  67 2.42  48 2.42  66 2.42  76 2.42  78 2.42  23 3.19  27 3.19
                            37 3.19  43 3.19  29 3.19  38 3.19
  23  0.556  0.333  0.250-  52 2.42  76 2.42  65 2.42  78 2.42  80 2.42  82 2.42  22 3.19  25 3.19
                            29 3.19  42 3.19  32 3.19  43 3.19
  24  0.444  0.417  0.750-  90 2.42  87 2.42  84 2.42  89 2.42  81 2.42  83 2.42  26 3.19  39 3.19
                            31 3.19  41 3.19  33 3.19  44 3.19
  25  0.556  0.583  0.250-  59 2.42  80 2.42  61 2.42  82 2.42  86 2.42  88 2.42  23 3.19  27 3.19
                            32 3.19  40 3.19  34 3.19  42 3.19
  26  0.444  0.667  0.750-  69 2.42  92 2.42  68 2.42  55 2.42  87 2.42  89 2.42  24 3.19  28 3.19
                            33 3.19  45 3.19  35 3.19  41 3.19
  27  0.556  0.833  0.250-  63 2.42  86 2.42  75 2.42  88 2.42  67 2.42  66 2.42  22 3.19  25 3.19
                            34 3.19  38 3.19  37 3.19  40 3.19
  28  0.444  0.917  0.750-  71 2.42  77 2.42  73 2.42  79 2.42  92 2.42  55 2.42  26 3.19  39 3.19
                            35 3.19  36 3.19  30 3.19  45 3.19
  29  0.889  0.333  0.250-  91 2.42  46 2.42  85 2.42  48 2.42  52 2.42  65 2.42  32 3.19  37 3.19
                            23 3.19  42 3.19  22 3.19  40 3.19
  30  0.778  0.167  0.750-  77 2.42  53 2.42  79 2.42  56 2.42  47 2.42  49 2.42  31 3.19  35 3.19
                            39 3.19  44 3.19  28 3.19  41 3.19
  31  0.778  0.417  0.750-  81 2.42  60 2.42  83 2.42  62 2.42  53 2.42  56 2.42  30 3.19  33 3.19
                            24 3.19  41 3.19  39 3.19  45 3.19
  32  0.889  0.583  0.250-  74 2.42  52 2.42  54 2.42  65 2.42  59 2.42  61 2.42  29 3.19  34 3.19
                            25 3.19  40 3.19  23 3.19  38 3.19
  33  0.778  0.667  0.750-  87 2.42  64 2.42  89 2.42  93 2.42  60 2.42  62 2.42  31 3.19  35 3.19
                            26 3.19  45 3.19  24 3.19  36 3.19
  34  0.889  0.833  0.250-  70 2.42  59 2.42  72 2.42  61 2.42  63 2.42  75 2.42  32 3.19  37 3.19
                            27 3.19  38 3.19  25 3.19  43 3.19
  35  0.778  0.917  0.750-  92 2.42  47 2.42  55 2.42  49 2.42  64 2.42  93 2.42  30 3.19  33 3.19
                            28 3.19  36 3.19  26 3.19  44 3.19
  36  0.111  0.917  0.750-  64 2.42  57 2.42  93 2.42  50 2.42  71 2.42  73 2.42  44 3.19  45 3.19
                            28 3.19  35 3.19  33 3.19  39 3.19
  37  0.889  0.083  0.250-  58 2.42  63 2.42  51 2.42  75 2.42  46 2.42  48 2.42  29 3.19  34 3.19
                            22 3.19  43 3.19  27 3.19  42 3.19
  38  0.222  0.833  0.250-  67 2.42  74 2.42  66 2.42  54 2.42  70 2.42  72 2.42  40 3.19  43 3.19
                            27 3.19  34 3.19  32 3.19  22 3.19
  39  0.444  0.167  0.750-  57 2.42  81 2.42  50 2.42  83 2.42  77 2.42  79 2.42  24 3.19  28 3.19
                            30 3.19  44 3.19  31 3.19  36 3.19
  40  0.222  0.583  0.250-  86 2.42  91 2.42  88 2.42  85 2.42  74 2.42  54 2.42  38 3.19  42 3.19
                            25 3.19  32 3.19  29 3.19  27 3.19
  41  0.111  0.417  0.750-  53 2.42  69 2.42  56 2.42  68 2.42  90 2.42  84 2.42  44 3.19  45 3.19
                            24 3.19  31 3.19  30 3.19  26 3.19
  42  0.222  0.333  0.250-  80 2.42  58 2.42  82 2.42  51 2.42  91 2.42  85 2.42  40 3.19  43 3.19
                            23 3.19  29 3.19  25 3.19  37 3.19
  43  0.222  0.083  0.250-  76 2.42  70 2.42  78 2.42  72 2.42  58 2.42  51 2.42  38 3.19  42 3.19
                            22 3.19  37 3.19  34 3.19  23 3.19
  44  0.111  0.167  0.750-  47 2.42  90 2.42  49 2.42  84 2.42  57 2.42  50 2.42  36 3.19  41 3.19
                            39 3.19  30 3.19  35 3.19  24 3.19
  45  0.111  0.667  0.750-  60 2.42  71 2.42  62 2.42  73 2.42  69 2.42  68 2.42  36 3.19  41 3.19
                            26 3.19  33 3.19  31 3.19  28 3.19
  46  0.778  0.167  0.295-  22 2.42  29 2.42  37 2.42
  47  0.889  0.083  0.795-  44 2.42  35 2.42  30 2.42
  48  0.778  0.167  0.205-  22 2.42  29 2.42  37 2.42
  49  0.889  0.083  0.705-  44 2.42  35 2.42  30 2.42
  50  0.222  0.083  0.705-  39 2.42  36 2.42  44 2.42
  51  0.111  0.167  0.205-  37 2.42  42 2.42  43 2.42
  52  0.778  0.417  0.295-  23 2.42  32 2.42  29 2.42
  53  0.889  0.333  0.795-  41 2.42  30 2.42  31 2.42
  54  0.111  0.667  0.205-  32 2.42  38 2.42  40 2.42
  55  0.556  0.833  0.705-  35 2.42  26 2.42  28 2.42
  56  0.889  0.333  0.705-  41 2.42  30 2.42  31 2.42
  57  0.222  0.083  0.795-  39 2.42  36 2.42  44 2.42
  58  0.111  0.167  0.295-  37 2.42  42 2.42  43 2.42
  59  0.778  0.667  0.295-  25 2.42  34 2.42  32 2.42
  60  0.889  0.583  0.795-  45 2.42  31 2.42  33 2.42
  61  0.778  0.667  0.205-  25 2.42  34 2.42  32 2.42
  62  0.889  0.583  0.705-  45 2.42  31 2.42  33 2.42
  63  0.778  0.917  0.295-  27 2.42  37 2.42  34 2.42
  64  0.889  0.833  0.795-  36 2.42  33 2.42  35 2.42
  65  0.778  0.417  0.205-  23 2.42  32 2.42  29 2.42
  66  0.444  0.917  0.205-  38 2.42  22 2.42  27 2.42
  67  0.444  0.917  0.295-  38 2.42  22 2.42  27 2.42
  68  0.222  0.583  0.705-  26 2.42  41 2.42  45 2.42
  69  0.222  0.583  0.795-  26 2.42  41 2.42  45 2.42
  70  0.111  0.917  0.295-  34 2.42  43 2.42  38 2.42
  71  0.222  0.833  0.795-  28 2.42  45 2.42  36 2.42
  72  0.111  0.917  0.205-  34 2.42  43 2.42  38 2.42
  73  0.222  0.833  0.705-  28 2.42  45 2.42  36 2.42
  74  0.111  0.667  0.295-  32 2.42  38 2.42  40 2.42
  75  0.778  0.917  0.205-  27 2.42  37 2.42  34 2.42
  76  0.444  0.167  0.295-  43 2.42  23 2.42  22 2.42
  77  0.556  0.083  0.795-  30 2.42  28 2.42  39 2.42
  78  0.444  0.167  0.205-  43 2.42  23 2.42  22 2.42
  79  0.556  0.083  0.705-  30 2.42  28 2.42  39 2.42
  80  0.444  0.417  0.295-  42 2.42  25 2.42  23 2.42
  81  0.556  0.333  0.795-  31 2.42  39 2.42  24 2.42
  82  0.444  0.417  0.205-  42 2.42  25 2.42  23 2.42
  83  0.556  0.333  0.705-  31 2.42  39 2.42  24 2.42
  84  0.222  0.333  0.705-  24 2.42  44 2.42  41 2.42
  85  0.111  0.417  0.205-  29 2.42  40 2.42  42 2.42
  86  0.444  0.667  0.295-  40 2.42  27 2.42  25 2.42
  87  0.556  0.583  0.795-  33 2.42  24 2.42  26 2.42
  88  0.444  0.667  0.205-  40 2.42  27 2.42  25 2.42
  89  0.556  0.583  0.705-  33 2.42  24 2.42  26 2.42
  90  0.222  0.333  0.795-  24 2.42  44 2.42  41 2.42
  91  0.111  0.417  0.295-  29 2.42  40 2.42  42 2.42
  92  0.556  0.833  0.795-  35 2.42  26 2.42  28 2.42
  93  0.889  0.833  0.705-  36 2.42  33 2.42  35 2.42
 
  LATTYP: Found a simple monoclinic cell.
 ALAT       =    16.8815660915
 B/A-ratio  =     2.0661745669
 C/A-ratio  =     1.4759983605
 COS(beta)  =    -0.9678678488
  
  Lattice vectors:
  
 A1 = ( -12.7612648832, -11.0515787236,   0.0000000000)
 A2 = (   0.0000000000,   0.0000000000, -34.8802625070)
 A3 = (  22.3322113382,  11.0515787236,   0.0000000000)


Analysis of symmetry for initial positions (statically):
=====================================================================
 Subroutine PRICEL returns:
 Original cell was already a primitive cell.
 

 Routine SETGRP: Setting up the symmetry group for a 
 simple monoclinic supercell.


 Subroutine GETGRP returns: Found  1 space group operations
 (whereof  1 operations were pure point group operations)
 out of a pool of  4 trial point group operations.


The static configuration has the point symmetry C_1 .


Analysis of symmetry for dynamics (positions and initial velocities):
=====================================================================
 Subroutine PRICEL returns:
 Original cell was already a primitive cell.
 

 Routine SETGRP: Setting up the symmetry group for a 
 simple monoclinic supercell.


 Subroutine GETGRP returns: Found  1 space group operations
 (whereof  1 operations were pure point group operations)
 out of a pool of  4 trial point group operations.


The dynamic configuration has the point symmetry C_1 .


 Subroutine INISYM returns: Found  1 space group operations
 (whereof  1 operations are pure point group operations),
 and found     1 'primitive' translations

 
 
 KPOINTS: Gamma-point only                        
  k-points in reciprocal lattice
Space group operators:
 irot       det(A)        alpha          n_x          n_y          n_z        tau_x        tau_y        tau_z
    1     1.000000     0.000000     1.000000     0.000000     0.000000     0.000000     0.000000     0.000000


--------------------------------------------------------------------------------------------------------




 Dimension of arrays:
   k-points           NKPTS =      1   k-points in BZ     NKDIM =      1   number of bands    NBANDS=    300
   number of dos      NEDOS =    301   number of ions     NIONS =     93
   non local maximal  LDIM  =      6   non local SUM 2l+1 LMDIM =     18
   total plane-waves  NPLWV = ******
   max r-space proj   IRMAX =   6611   max aug-charges    IRDMAX=  22650
   dimension x,y,z NGX =    64 NGY =   84 NGZ =  240
   dimension x,y,z NGXF=   128 NGYF=  168 NGZF=  480
   support grid    NGXF=   128 NGYF=  168 NGZF=  480
   ions per type =              10   1  10  24  48
 NGX,Y,Z   is equivalent  to a cutoff of  11.12, 10.94, 11.44 a.u.
 NGXF,Y,Z  is equivalent  to a cutoff of  22.23, 21.89, 22.88 a.u.


 I would recommend the setting:
   dimension x,y,z NGX =    62 NGY =   83 NGZ =  228
 SYSTEM =  basalPlane                              
 POSCAR =   C Cr  H Mo  S                          

 Startparameter for this run:
   NWRITE =      2    write-flag & timer
   PREC   = accura    normal or accurate (medium, high low for compatibility)
   ISTART =      0    job   : 0-new  1-cont  2-samecut
   ICHARG =      2    charge: 1-file 2-atom 10-const
   ISPIN  =      1    spin polarized calculation?
   LNONCOLLINEAR =      F non collinear calculations
   LSORBIT =      F    spin-orbit coupling
   INIWAV =      1    electr: 0-lowe 1-rand  2-diag
   LASPH  =      F    aspherical Exc in radial PAW
   METAGGA=      F    non-selfconsistent MetaGGA calc.

 Electronic Relaxation 1
   ENCUT  =  400.0 eV  29.40 Ry    5.42 a.u.  15.61 20.81 56.88*2*pi/ulx,y,z
   ENINI  =  400.0     initial cutoff
   ENAUG  =  645.0 eV  augmentation charge cutoff
   NELM   =    200;   NELMIN=  2; NELMDL= -5     # of ELM steps 
   EDIFF  = 0.1E-03   stopping-criterion for ELM
   LREAL  =      T    real-space projection
   NLSPLINE    = F    spline interpolate recip. space projectors
   LCOMPAT=      F    compatible to vasp.4.4
   GGA_COMPAT  = T    GGA compatible to vasp.4.4-vasp.4.6
   LMAXPAW     = -100 max onsite density
   LMAXMIX     =    2 max onsite mixed and CHGCAR
   VOSKOWN=      0    Vosko Wilk Nusair interpolation
   ROPT   =   -0.00025  -0.00025  -0.00025  -0.00025
   ROPT   =   -0.00025
 Ionic relaxation
   EDIFFG = -.2E-01   stopping-criterion for IOM
   NSW    =  10000    number of steps for IOM
   NBLOCK =      1;   KBLOCK =  10000    inner block; outer block 
   IBRION =      2    ionic relax: 0-MD 1-quasi-New 2-CG
   NFREE  =      1    steps in history (QN), initial steepest desc. (CG)
   ISIF   =      2    stress and relaxation
   IWAVPR =     11    prediction:  0-non 1-charg 2-wave 3-comb
   ISYM   =      2    0-nonsym 1-usesym 2-fastsym
   LCORR  =      T    Harris-Foulkes like correction to forces

   POTIM  = 0.5000    time-step for ionic-motion
   TEIN   =    0.0    initial temperature
   TEBEG  =    0.0;   TEEND  =   0.0 temperature during run
   SMASS  =  -3.00    Nose mass-parameter (am)
   estimated Nose-frequenzy (Omega)   =  0.10E-29 period in steps =****** mass=  -0.209E-26a.u.
   SCALEE = 1.0000    scale energy and forces
   NPACO  =    256;   APACO  = 16.0  distance and # of slots for P.C.
   PSTRESS=    0.0 pullay stress

  Mass of Ions in am
   POMASS =  12.01 52.00  1.00 95.94 32.07
  Ionic Valenz
   ZVAL   =   4.00  6.00  1.00  6.00  6.00
  Atomic Wigner-Seitz radii
   RWIGS  =  -1.00 -1.00 -1.00 -1.00 -1.00
  virtual crystal weights 
   VCA    =   1.00  1.00  1.00  1.00  1.00
   NELECT =     488.0000    total number of electrons
   NUPDOWN=      -1.0000    fix difference up-down

 DOS related values:
   EMIN   =  10.00;   EMAX   =-10.00  energy-range for DOS
   EFERMI =   0.00
   ISMEAR =     0;   SIGMA  =   0.10  broadening in eV -4-tet -1-fermi 0-gaus

 Electronic relaxation 2 (details)
   IALGO  =     38    algorithm
   LDIAG  =      T    sub-space diagonalisation (order eigenvalues)
   LSUBROT=      F    optimize rotation matrix (better conditioning)
   TURBO    =      0    0=normal 1=particle mesh
   IRESTART =      0    0=no restart 2=restart with 2 vectors
   NREBOOT  =      0    no. of reboots
   NMIN     =      0    reboot dimension
   EREF     =   0.00    reference energy to select bands
   IMIX   =      4    mixing-type and parameters
     AMIX     =   0.40;   BMIX     =  1.00
     AMIX_MAG =   1.60;   BMIX_MAG =  1.00
     AMIN     =   0.10
     WC   =   100.;   INIMIX=   1;  MIXPRE=   1;  MAXMIX= -45

 Intra band minimization:
   WEIMIN = 0.0010     energy-eigenvalue tresh-hold
   EBREAK =  0.83E-07  absolut break condition
   DEPER  =   0.30     relativ break condition  

   TIME   =   0.40     timestep for ELM

  volume/ion in A,a.u.               =      39.67       267.71
  Fermi-wavevector in a.u.,A,eV,Ry     =   0.834120  1.576258  9.466334  0.695756
  Thomas-Fermi vector in A             =   1.947458
 
 Write flags
   LWAVE  =      F    write WAVECAR
   LCHARG =      F    write CHGCAR
   LVTOT  =      F    write LOCPOT, total local potential
   LVHAR  =      F    write LOCPOT, Hartree potential only
   LELF   =      F    write electronic localiz. function (ELF)
   LORBIT =      0    0 simple, 1 ext, 2 COOP (PROOUT)


 Dipole corrections
   LMONO  =      F    monopole corrections only (constant potential shift)
   LDIPOL =      F    correct potential (dipole corrections)
   IDIPOL =      0    1-x, 2-y, 3-z, 4-all directions 
   EPSILON=  1.0000000 bulk dielectric constant

 Exchange correlation treatment:
   GGA     =    --    GGA type
   LEXCH   =     8    internal setting for exchange type
   VOSKOWN=      0    Vosko Wilk Nusair interpolation
   LHFCALC =     F    Hartree Fock is set to
   LHFONE  =     F    Hartree Fock one center treatment
   AEXX    =    0.0000 exact exchange contribution

 Linear response parameters
   LEPSILON=     F    determine dielectric tensor
   LRPA    =     F    only Hartree local field effects (RPA)
   LNABLA  =     F    use nabla operator in PAW spheres
   LVEL    =     F    velocity operator in full k-point grid
   LINTERFAST=   F  fast interpolation
   KINTER  =     0    interpolate to denser k-point grid
   CSHIFT  =0.1000    complex shift for real part using Kramers Kronig
   OMEGAMAX=  -1.0    maximum frequency
   DEG_THRESHOLD= 0.2000000E-02 threshold for treating states as degnerate
   RTIME   =    0.100 relaxation time in fs

 Orbital magnetization related:
   ORBITALMAG=     F  switch on orbital magnetization
   LCHIMAG   =     F  perturbation theory with respect to B field
   DQ        =  0.001000  dq finite difference perturbation B field



--------------------------------------------------------------------------------------------------------


 conjugate gradient relaxation of ions
 charge density and potential will be updated during run
 non-spin polarized calculation
 Variant of blocked Davidson
 Davidson routine will perform the subspace rotation
 perform sub-space diagonalisation
    after iterative eigenvector-optimisation
 modified Broyden-mixing scheme, WC =      100.0
 initial mixing is a Kerker type mixing with AMIX =  0.4000 and BMIX =      1.0000
 Hartree-type preconditioning will be used
 using additional bands           56
 real space projection scheme for non local part
 use partial core corrections
 calculate Harris-corrections to forces 
   (improved forces if not selfconsistent)
 use gradient corrections 
 use of overlap-Matrix (Vanderbilt PP)
 Gauss-broadening in eV      SIGMA  =   0.10


--------------------------------------------------------------------------------------------------------


  energy-cutoff  :      400.00
  volume of cell :     3689.43
      direct lattice vectors                 reciprocal lattice vectors
     9.570946455  0.000000000  0.000000000     0.104482875  0.060323179  0.000000000
    -6.380628027 11.051578724  0.000000000     0.000000000  0.090484810  0.000000000
     0.000000000  0.000000000 34.880262507     0.000000000  0.000000000  0.028669509

  length of vectors
     9.570946455 12.761261940 34.880262507     0.120646413  0.090484810  0.028669509


 
 k-points in units of 2pi/SCALE and weight: Gamma-point only                        
   0.00000000  0.00000000  0.00000000       1.000
 
 k-points in reciprocal lattice and weights: Gamma-point only                        
   0.00000000  0.00000000  0.00000000       1.000
 
 position of ions in fractional coordinates (direct lattice) 
   0.94318622  0.94229948  0.47031807
   0.05752077  0.98030315  0.50067588
   0.89730339  0.03186211  0.46494200
   0.98477802  0.12741353  0.49227735
   0.08439832  0.09465812  0.51456746
   0.71667218  0.82387905  0.56191867
   0.72301723  0.00720057  0.56975064
   0.79611154  0.93806825  0.58207223
   0.60018216  0.93656950  0.54259086
   0.59597029  0.82431492  0.53758029
   0.83753544  0.96873306  0.52304154
   0.16693833  0.14792508  0.53738042
   0.89066875  0.96548569  0.60347134
   0.52806796  0.96621659  0.52678445
   0.75700121  0.09823209  0.57903401
   0.74096022  0.74972149  0.56518747
   0.11082466  0.92913855  0.51226150
   0.89330532  0.85657860  0.45510180
   0.81050778  0.02783475  0.44401181
   0.98044155  0.21066807  0.49478632
   0.51757179  0.75278229  0.51786899
   0.55555566  0.08333325  0.25000928
   0.55555566  0.33333325  0.25000928
   0.44444432  0.41666674  0.74999076
   0.55555566  0.58333325  0.25000928
   0.44444432  0.66666674  0.74999076
   0.55555566  0.83333325  0.25000928
   0.44444432  0.91666674  0.74999076
   0.88888899  0.33333325  0.25000928
   0.77777765  0.16666674  0.74999076
   0.77777765  0.41666674  0.74999076
   0.88888899  0.58333325  0.25000928
   0.77777765  0.66666674  0.74999076
   0.88888899  0.83333325  0.25000928
   0.77777765  0.91666674  0.74999076
   0.11111099  0.91666674  0.74999076
   0.88888899  0.08333325  0.25000928
   0.22222233  0.83333325  0.25000928
   0.44444432  0.16666674  0.74999076
   0.22222233  0.58333325  0.25000928
   0.11111099  0.41666674  0.74999076
   0.22222233  0.33333325  0.25000928
   0.22222233  0.08333325  0.25000928
   0.11111099  0.16666674  0.74999076
   0.11111099  0.66666674  0.74999076
   0.77777765  0.16666674  0.29487388
   0.88888899  0.08333325  0.79485533
   0.77777765  0.16666674  0.20514467
   0.88888899  0.08333325  0.70512613
   0.22222233  0.08333325  0.70512613
   0.11111099  0.16666674  0.20514467
   0.77777765  0.41666674  0.29487388
   0.88888899  0.33333325  0.79485533
   0.11111099  0.66666674  0.20514467
   0.55555566  0.83333325  0.70512613
   0.88888899  0.33333325  0.70512613
   0.22222233  0.08333325  0.79485533
   0.11111099  0.16666674  0.29487388
   0.77777765  0.66666674  0.29487388
   0.88888899  0.58333325  0.79485533
   0.77777765  0.66666674  0.20514467
   0.88888899  0.58333325  0.70512613
   0.77777765  0.91666674  0.29487388
   0.88888899  0.83333325  0.79485533
   0.77777765  0.41666674  0.20514467
   0.44444432  0.91666674  0.20514467
   0.44444432  0.91666674  0.29487388
   0.22222233  0.58333325  0.70512613
   0.22222233  0.58333325  0.79485533
   0.11111099  0.91666674  0.29487388
   0.22222233  0.83333325  0.79485533
   0.11111099  0.91666674  0.20514467
   0.22222233  0.83333325  0.70512613
   0.11111099  0.66666674  0.29487388
   0.77777765  0.91666674  0.20514467
   0.44444432  0.16666674  0.29487388
   0.55555566  0.08333325  0.79485533
   0.44444432  0.16666674  0.20514467
   0.55555566  0.08333325  0.70512613
   0.44444432  0.41666674  0.29487388
   0.55555566  0.33333325  0.79485533
   0.44444432  0.41666674  0.20514467
   0.55555566  0.33333325  0.70512613
   0.22222233  0.33333325  0.70512613
   0.11111099  0.41666674  0.20514467
   0.44444432  0.66666674  0.29487388
   0.55555566  0.58333325  0.79485533
   0.44444432  0.66666674  0.20514467
   0.55555566  0.58333325  0.70512613
   0.22222233  0.33333325  0.79485533
   0.11111099  0.41666674  0.29487388
   0.55555566  0.83333325  0.79485533
   0.88888899  0.83333325  0.70512613
 
 position of ions in cartesian coordinates  (Angst):
   3.01472228 10.41389690 16.40481786
  -5.70442157 10.83389745 17.46370610
   8.38474237  0.35212667 16.21729915
   8.61227931  1.40812067 17.17076317
   0.20379350  1.04612169 17.94824820
   1.60236530  9.10516423 19.59987084
   6.87401502  0.07957765 19.87305181
   1.63407635 10.36713512 20.30283203
  -0.23159033 10.35057161 18.92571180
   0.44435286  9.10998124 18.75094175
   1.83488157 10.70602964 18.24382607
   0.65390293  1.63480565 18.74397007
   2.36413784 10.67014116 21.04923879
  -1.11095843 10.67821868 18.37437996
   6.61843567  1.08561964 20.19685813
   2.30799666  8.28560605 19.71388736
  -4.86779062 10.26844787 17.86781554
   3.08426799  9.46654584 15.87407023
   7.57972343  0.30761788 15.48724852
   8.03955900  2.32821476 17.25827656
   0.15042814  8.31943270 18.06340631
   4.78547502  0.92096394  8.72038942
   3.19031801  3.68385862  8.72038942
   1.59515729  4.60482531 26.15987450
   1.59516100  6.44675330  8.72038942
   0.00000028  7.36771999 26.15987450
   0.00000400  9.20964798  8.72038942
  -1.59515673 10.13061467 26.15987450
   6.38063349  3.68385862  8.72038942
   6.38062978  1.84193063 26.15987450
   4.78547277  4.60482531 26.15987450
   4.78547649  6.44675330  8.72038942
   3.19031576  7.36771999 26.15987450
   3.19031948  9.20964798  8.72038942
   1.59515876 10.13061467 26.15987450
  -4.78547221 10.13061467 26.15987450
   7.97579050  0.92096394  8.72038942
  -3.19031149  9.20964798  8.72038942
   3.19031429  1.84193063 26.15987450
  -1.59515448  6.44675330  8.72038942
  -1.59515820  4.60482531 26.15987450
   0.00000252  3.68385862  8.72038942
   1.59515953  0.92096394  8.72038942
  -0.00000119  1.84193063 26.15987450
  -3.19031521  7.36771999 26.15987450
   6.38062978  1.84193063 10.28527839
   7.97579050  0.92096394 27.72476251
   6.38062978  1.84193063  7.15550000
   7.97579050  0.92096394 24.59498459
   1.59515953  0.92096394 24.59498459
  -0.00000119  1.84193063  7.15550000
   4.78547277  4.60482531 10.28527839
   6.38063349  3.68385862 27.72476251
  -3.19031521  7.36771999  7.15550000
   0.00000400  9.20964798 24.59498459
   6.38063349  3.68385862 24.59498459
   1.59515953  0.92096394 27.72476251
  -0.00000119  1.84193063 10.28527839
   3.19031576  7.36771999 10.28527839
   4.78547649  6.44675330 27.72476251
   3.19031576  7.36771999  7.15550000
   4.78547649  6.44675330 24.59498459
   1.59515876 10.13061467 10.28527839
   3.19031948  9.20964798 27.72476251
   4.78547277  4.60482531  7.15550000
  -1.59515673 10.13061467  7.15550000
  -1.59515673 10.13061467 10.28527839
  -1.59515448  6.44675330 24.59498459
  -1.59515448  6.44675330 27.72476251
  -4.78547221 10.13061467 10.28527839
  -3.19031149  9.20964798 27.72476251
  -4.78547221 10.13061467  7.15550000
  -3.19031149  9.20964798 24.59498459
  -3.19031521  7.36771999 10.28527839
   1.59515876 10.13061467  7.15550000
   3.19031429  1.84193063 10.28527839
   4.78547502  0.92096394 27.72476251
   3.19031429  1.84193063  7.15550000
   4.78547502  0.92096394 24.59498459
   1.59515729  4.60482531 10.28527839
   3.19031801  3.68385862 27.72476251
   1.59515729  4.60482531  7.15550000
   3.19031801  3.68385862 24.59498459
   0.00000252  3.68385862 24.59498459
  -1.59515820  4.60482531  7.15550000
   0.00000028  7.36771999 10.28527839
   1.59516100  6.44675330 27.72476251
   0.00000028  7.36771999  7.15550000
   1.59516100  6.44675330 24.59498459
   0.00000252  3.68385862 27.72476251
  -1.59515820  4.60482531 10.28527839
   0.00000400  9.20964798 27.72476251
   3.19031948  9.20964798 24.59498459
 


--------------------------------------------------------------------------------------------------------


 use parallel FFT for wavefunctions z direction half grid
 k-point  1 :   0.0000 0.0000 0.0000  plane waves:   33544

 maximum and minimum number of plane-waves per node :     11182    11180

 maximum number of plane-waves:     33544
 maximum index in each direction: 
   IXMAX=   15   IYMAX=   20   IZMAX=   56
   IXMIN=  -15   IYMIN=  -20   IZMIN=    0

 NGX is ok and might be reduce to  62
 NGY is ok and might be reduce to  82
 NGZ is ok and might be reduce to 226

 real space projection operators:
  total allocation   :      38921.01 KBytes
  max/ min on nodes  :      13364.45      12771.07


 parallel 3D FFT for wavefunctions:
    minimum data exchange during FFTs selected (reduces bandwidth)
 parallel 3D FFT for charge:
    minimum data exchange during FFTs selected (reduces bandwidth)


 total amount of memory used by VASP on root node   114645. kBytes
========================================================================

   base      :      30000. kBytes
   nonlr-proj:      16422. kBytes
   fftplans  :      19781. kBytes
   grid      :      43661. kBytes
   one-center:        241. kBytes
   wavefun   :       4540. kBytes
 
     INWAV:  cpu time    0.0000: real time    0.0002
 Broyden mixing: mesh for mixing (old mesh)
   NGX = 31   NGY = 41   NGZ =113
  (NGX  =128   NGY  =168   NGZ  =480)
  gives a total of 143623 points

 initial charge density was supplied:
 charge density of overlapping atoms calculated
 number of electron     488.0000000 magnetization 
 keeping initial charge density in first step


--------------------------------------------------------------------------------------------------------


 Maximum index for non-local projection operator         2301
 Maximum index for augmentation-charges         1165 (set IRDMAX)


--------------------------------------------------------------------------------------------------------


 First call to EWALD:  gamma=   0.115
 Maximum number of real-space cells 5x 4x 1
 Maximum number of reciprocal cells 2x 2x 6

 FEWALD executed in parallel
    FEWALD:  cpu time    0.0066: real time    0.0073


----------------------------------------- Iteration    1(   1)  ---------------------------------------


    POTLOK:  cpu time    0.4212: real time    0.4250
    SETDIJ:  cpu time    0.0125: real time    0.0126
     EDDAV:  cpu time    5.3677: real time    5.3828
       DOS:  cpu time    0.0018: real time    0.0018
    --------------------------------------------
      LOOP:  cpu time    5.8083: real time    5.8316

 eigenvalue-minimisations  :   612
 total energy-change (2. order) : 0.4366189E+04  (-0.1802565E+05)
 number of electron     488.0000000 magnetization 
 augmentation part      488.0000000 magnetization 

 Free energy of the ion-electron system (eV)
  ---------------------------------------------------
  alpha Z        PSCENC =       562.39184220
  Ewald energy   TEWEN  =     37682.32558485
  -Hartree energ DENC   =    -56603.53946792
  -exchange      EXHF   =         0.00000000
  -V(xc)+E(xc)   XCENC  =      -737.55600833
  PAW double counting   =     18197.44745459   -16322.33343364
  entropy T*S    EENTRO =        -0.17450407
  eigenvalues    EBANDS =      1207.03859801
  atomic energy  EATOM  =     20380.58938199
  Solvation  Ediel_sol  =         0.00000000
  ---------------------------------------------------
  free energy    TOTEN  =      4366.18944767 eV

  energy without entropy =     4366.36395175  energy(sigma->0) =     4366.27669971
[...]
   0.123E+01 0.279E+01 0.132E+03   -.125E+01 -.284E+01 -.132E+03   0.165E-01 0.586E-01 0.128E-01   -.307E-04 -.208E-03 -.395E-02
   0.425E+01 0.960E+00 -.163E+03   -.422E+01 -.909E+00 0.163E+03   -.248E-01 -.525E-01 -.467E-02   0.191E-04 0.208E-03 0.622E-02
   0.823E+00 -.205E+01 0.129E+03   -.841E+00 0.200E+01 -.129E+03   0.166E-01 0.578E-01 0.114E-01   -.876E-05 -.101E-03 -.410E-02
   0.276E+01 -.864E+01 -.161E+03   -.275E+01 0.869E+01 0.161E+03   -.135E-01 -.573E-01 -.163E-01   0.100E-03 0.447E-03 0.594E-02
   0.302E+00 -.206E+01 -.151E+03   -.285E+00 0.212E+01 0.151E+03   -.165E-01 -.607E-01 -.183E-01   0.207E-03 0.178E-03 0.554E-02
   -.414E+00 0.216E+01 0.128E+03   0.396E+00 -.222E+01 -.128E+03   0.164E-01 0.597E-01 0.127E-01   -.443E-05 -.164E-03 -.409E-02
   -.288E+01 0.735E+01 -.158E+03   0.290E+01 -.730E+01 0.158E+03   -.152E-01 -.560E-01 -.147E-01   0.148E-03 -.104E-03 0.588E-02
   -.663E+00 0.318E+01 0.133E+03   0.646E+00 -.324E+01 -.133E+03   0.151E-01 0.575E-01 0.123E-01   0.593E-04 -.267E-03 -.413E-02
   -.657E+00 0.130E+01 -.170E+03   0.665E+00 -.125E+01 0.170E+03   -.788E-02 -.504E-01 -.593E-02   0.119E-03 0.143E-03 0.646E-02
   -.366E+01 0.114E+01 -.162E+03   0.368E+01 -.108E+01 0.162E+03   -.207E-01 -.532E-01 -.141E-01   0.159E-03 0.158E-03 0.629E-02
   0.716E+00 -.126E+01 0.134E+03   -.732E+00 0.121E+01 -.134E+03   0.143E-01 0.558E-01 0.105E-01   0.637E-04 -.176E-03 -.417E-02
   -.478E+00 0.259E+01 0.131E+03   0.459E+00 -.265E+01 -.131E+03   0.173E-01 0.577E-01 0.114E-01   -.206E-04 -.206E-03 -.413E-02
   0.132E+00 -.625E+01 -.156E+03   -.108E+00 0.630E+01 0.156E+03   -.232E-01 -.577E-01 -.173E-01   0.137E-03 0.368E-03 0.594E-02
   0.520E+00 0.151E+01 0.128E+03   -.538E+00 -.157E+01 -.128E+03   0.163E-01 0.600E-01 0.118E-01   -.246E-05 -.201E-03 -.410E-02
   0.901E+00 -.309E+01 -.153E+03   -.883E+00 0.315E+01 0.153E+03   -.188E-01 -.645E-01 -.162E-01   0.143E-03 0.207E-03 0.567E-02
   -.249E+00 -.221E+01 0.130E+03   0.232E+00 0.215E+01 -.130E+03   0.155E-01 0.599E-01 0.876E-02   -.803E-05 -.126E-03 -.411E-02
   -.137E+01 -.107E+01 0.133E+03   0.135E+01 0.101E+01 -.133E+03   0.167E-01 0.568E-01 0.800E-02   -.962E-05 -.156E-03 -.416E-02
   -.298E+01 -.790E+01 -.161E+03   0.300E+01 0.795E+01 0.161E+03   -.163E-01 -.583E-01 -.172E-01   0.105E-03 0.405E-03 0.606E-02
   0.680E+00 0.518E+01 -.154E+03   -.660E+00 -.512E+01 0.154E+03   -.213E-01 -.603E-01 -.126E-01   0.179E-03 -.414E-04 0.590E-02
   0.365E+01 -.695E+01 -.351E+03   -.372E+01 0.665E+01 0.355E+03   0.705E-01 0.301E+00 -.442E+01   0.700E-04 -.116E-04 -.601E-02
   -.319E-01 -.197E+01 -.646E+03   0.102E+00 0.227E+01 0.651E+03   -.698E-01 -.298E+00 -.446E+01   -.657E-04 0.102E-03 0.466E-02
   0.329E+00 -.162E+01 0.616E+03   -.399E+00 0.132E+01 -.620E+03   0.705E-01 0.300E+00 0.446E+01   0.226E-03 -.332E-05 -.216E-02
   -.128E+01 -.175E+02 0.301E+03   0.136E+01 0.178E+02 -.306E+03   -.726E-01 -.304E+00 0.439E+01   -.201E-03 0.743E-03 0.954E-02
   -.947E+01 -.105E+02 0.323E+03   0.954E+01 0.108E+02 -.327E+03   -.685E-01 -.300E+00 0.439E+01   0.927E-04 0.599E-03 0.937E-02
   -.296E+00 -.166E+01 0.616E+03   0.226E+00 0.136E+01 -.621E+03   0.708E-01 0.300E+00 0.446E+01   0.117E-03 0.505E-05 -.213E-02
   0.123E+00 -.281E+01 -.361E+03   -.193E+00 0.251E+01 0.366E+03   0.705E-01 0.301E+00 -.443E+01   0.463E-04 -.380E-04 -.589E-02
   0.727E+00 -.181E+01 -.641E+03   -.656E+00 0.211E+01 0.645E+03   -.703E-01 -.299E+00 -.447E+01   -.150E-03 0.238E-04 0.469E-02
   -.144E+00 0.375E+00 0.615E+03   0.734E-01 -.674E+00 -.619E+03   0.706E-01 0.300E+00 0.446E+01   0.116E-03 -.615E-04 -.208E-02
   0.111E+02 0.147E+02 0.305E+03   -.111E+02 -.144E+02 -.310E+03   -.660E-01 -.295E+00 0.448E+01   -.369E-03 -.318E-03 0.948E-02
   0.433E+01 -.138E+02 0.338E+03   -.426E+01 0.141E+02 -.342E+03   -.711E-01 -.301E+00 0.440E+01   -.169E-03 0.249E-03 0.888E-02
   -.101E+01 -.144E+01 -.644E+03   0.108E+01 0.174E+01 0.649E+03   -.692E-01 -.296E+00 -.447E+01   -.108E-03 0.182E-03 0.465E-02
   -.208E+01 -.760E+01 -.348E+03   0.200E+01 0.730E+01 0.352E+03   0.709E-01 0.300E+00 -.444E+01   0.160E-03 0.881E-04 -.589E-02
   -.157E+01 0.683E+01 -.356E+03   0.150E+01 -.713E+01 0.360E+03   0.706E-01 0.300E+00 -.442E+01   0.214E-04 -.160E-03 -.580E-02
   -.363E+00 0.259E+01 -.640E+03   0.434E+00 -.229E+01 0.645E+03   -.702E-01 -.302E+00 -.447E+01   -.880E-04 -.941E-04 0.479E-02
   -.290E+00 0.625E+00 0.615E+03   0.220E+00 -.924E+00 -.619E+03   0.704E-01 0.299E+00 0.446E+01   0.254E-03 -.714E-05 -.210E-02
   -.354E+01 0.112E+02 0.342E+03   0.362E+01 -.109E+02 -.346E+03   -.704E-01 -.301E+00 0.441E+01   -.664E-04 -.452E-03 0.907E-02
   0.184E+01 0.326E+01 -.344E+03   -.192E+01 -.356E+01 0.348E+03   0.708E-01 0.300E+00 -.442E+01   0.850E-04 -.201E-03 -.592E-02
   -.127E+01 0.268E+01 -.646E+03   0.134E+01 -.238E+01 0.650E+03   -.699E-01 -.300E+00 -.446E+01   -.132E-03 0.712E-04 0.475E-02
   -.795E-01 -.100E+01 0.614E+03   0.933E-02 0.703E+00 -.619E+03   0.703E-01 0.300E+00 0.446E+01   0.250E-03 -.120E-04 -.214E-02
   0.152E+00 -.706E-01 0.616E+03   -.222E+00 -.228E+00 -.620E+03   0.705E-01 0.298E+00 0.446E+01   0.983E-04 -.171E-03 -.225E-02
   0.214E+01 0.208E+01 -.352E+03   -.221E+01 -.238E+01 0.356E+03   0.700E-01 0.299E+00 -.442E+01   0.209E-03 -.185E-03 -.609E-02
   0.556E+01 0.105E+02 0.339E+03   -.549E+01 -.102E+02 -.344E+03   -.707E-01 -.299E+00 0.443E+01   -.222E-03 -.393E-03 0.890E-02
   0.864E+00 0.244E+01 -.641E+03   -.794E+00 -.214E+01 0.645E+03   -.695E-01 -.300E+00 -.446E+01   -.116E-03 -.642E-04 0.464E-02
   -.427E+01 0.273E+01 -.348E+03   0.420E+01 -.303E+01 0.353E+03   0.708E-01 0.301E+00 -.443E+01   0.147E-03 -.932E-04 -.587E-02
   0.327E+00 0.229E+01 -.644E+03   -.258E+00 -.199E+01 0.648E+03   -.690E-01 -.299E+00 -.447E+01   -.123E-03 0.625E-04 0.465E-02
   -.550E+00 0.734E-02 0.616E+03   0.480E+00 -.307E+00 -.621E+03   0.708E-01 0.299E+00 0.446E+01   0.119E-03 -.494E-04 -.214E-02
   0.191E+01 0.997E+01 0.327E+03   -.184E+01 -.967E+01 -.332E+03   -.694E-01 -.299E+00 0.443E+01   -.576E-04 -.243E-03 0.936E-02
   -.624E+00 0.444E+01 -.359E+03   0.554E+00 -.474E+01 0.364E+03   0.707E-01 0.301E+00 -.442E+01   0.137E-03 -.863E-04 -.577E-02
   0.116E+00 0.273E-01 0.617E+03   -.186E+00 -.327E+00 -.621E+03   0.704E-01 0.299E+00 0.446E+01   0.243E-03 -.417E-04 -.212E-02
   -.186E+01 -.577E+01 -.354E+03   0.179E+01 0.547E+01 0.359E+03   0.701E-01 0.299E+00 -.444E+01   0.191E-03 -.997E-06 -.608E-02
   0.132E+01 -.164E+01 -.644E+03   -.125E+01 0.194E+01 0.649E+03   -.704E-01 -.296E+00 -.446E+01   -.110E-03 0.146E-03 0.470E-02
   -.317E+00 -.150E+01 0.615E+03   0.248E+00 0.120E+01 -.620E+03   0.704E-01 0.299E+00 0.446E+01   0.962E-04 -.177E-03 -.228E-02
   0.111E+02 -.119E+02 0.320E+03   -.110E+02 0.122E+02 -.325E+03   -.679E-01 -.300E+00 0.442E+01   -.117E-03 0.583E-03 0.926E-02
   -.153E+01 -.305E+01 -.360E+03   0.146E+01 0.275E+01 0.364E+03   0.703E-01 0.299E+00 -.443E+01   0.254E-03 0.405E-04 -.593E-02
   -.113E+00 -.959E+00 -.640E+03   0.184E+00 0.126E+01 0.645E+03   -.703E-01 -.299E+00 -.447E+01   -.173E-03 -.103E-04 0.472E-02
   -.290E+00 -.102E+01 0.614E+03   0.220E+00 0.723E+00 -.619E+03   0.705E-01 0.299E+00 0.446E+01   0.104E-03 -.135E-03 -.227E-02
   -.101E+01 -.681E+01 0.343E+03   0.108E+01 0.711E+01 -.347E+03   -.694E-01 -.300E+00 0.441E+01   -.977E-04 0.245E-03 0.885E-02
   -.303E+01 -.109E+02 0.337E+03   0.310E+01 0.112E+02 -.341E+03   -.697E-01 -.300E+00 0.441E+01   -.156E-03 0.432E-03 0.888E-02
   0.866E-01 -.125E+01 0.614E+03   -.157E+00 0.950E+00 -.619E+03   0.705E-01 0.300E+00 0.446E+01   0.124E-03 0.687E-06 -.209E-02
   0.191E+01 0.514E+01 -.357E+03   -.198E+01 -.544E+01 0.361E+03   0.700E-01 0.300E+00 -.442E+01   0.277E-03 -.185E-03 -.590E-02
   -.226E+00 0.324E+01 -.642E+03   0.296E+00 -.293E+01 0.646E+03   -.697E-01 -.302E+00 -.446E+01   -.148E-03 -.393E-04 0.474E-02
   0.152E+00 0.428E+00 0.615E+03   -.222E+00 -.727E+00 -.619E+03   0.704E-01 0.298E+00 0.446E+01   0.894E-04 -.180E-03 -.222E-02
   -.174E+01 0.173E+02 0.333E+03   0.181E+01 -.170E+02 -.337E+03   -.685E-01 -.298E+00 0.443E+01   -.112E-04 -.492E-03 0.914E-02
   -.334E+00 -.139E+01 -.641E+03   0.404E+00 0.169E+01 0.646E+03   -.691E-01 -.298E+00 -.447E+01   -.179E-03 0.859E-04 0.469E-02
   0.112E+01 -.496E+01 -.359E+03   -.119E+01 0.465E+01 0.364E+03   0.705E-01 0.301E+00 -.443E+01   0.160E-03 0.758E-04 -.580E-02
   0.122E+01 0.263E+01 -.646E+03   -.115E+01 -.233E+01 0.650E+03   -.707E-01 -.299E+00 -.446E+01   -.111E-03 0.104E-04 0.467E-02
   -.128E+02 0.145E+02 0.308E+03   0.129E+02 -.142E+02 -.313E+03   -.738E-01 -.300E+00 0.440E+01   0.105E-03 -.363E-03 0.990E-02
 -----------------------------------------------------------------------------------------------
   0.150E+01 0.170E+01 0.253E+01   -.163E-12 -.259E-12 -.909E-12   -.151E+01 -.169E+01 -.256E+01   0.317E-02 -.462E-02 0.518E-01
 
 
 POSITION                                       TOTAL-FORCE (eV/Angst)
 -----------------------------------------------------------------------------------
      3.01209     10.41829     16.39876        -0.001213      0.007019      0.007651
     -5.71144     10.81930     17.46956        -0.007460     -0.006383     -0.000421
      8.39202      0.36291     16.21593         0.003957      0.006779     -0.000012
      8.61791      1.40708     17.17847         0.017501      0.001479      0.008914
      0.20252      1.03343     17.96258        -0.014868      0.002096     -0.009141
      1.60977      9.11439     19.62063        -0.007192     -0.001002      0.003495
      6.86226      0.07645     19.89269         0.005372     -0.012866      0.003521
      1.62568     10.37549     20.32531        -0.009732      0.004411      0.002402
     -0.23205     10.34635     18.94067         0.003062     -0.003638      0.003549
      0.45423      9.11116     18.76500         0.010449      0.000706      0.014131
      1.83912     10.70179     18.25671        -0.001303     -0.001049      0.004750
      0.65628      1.61781     18.75905         0.003619     -0.001963      0.010915
      2.34970     10.68517     21.07514         0.004632      0.007214      0.008139
     -1.11154     10.66896     18.38690        -0.005015     -0.001276     -0.000874
      6.60327      1.08339     20.21136        -0.005514      0.006867      0.004626
      2.31765      8.29859     19.74395         0.008519      0.000501      0.008190
     -4.87352     10.24949     17.86469         0.000794     -0.011635      0.006836
      3.07651      9.47630     15.85810        -0.006024     -0.003969     -0.001683
      7.58614      0.32577     15.48664        -0.005592      0.005872     -0.004984
      8.04547      2.32665     17.27180         0.000488      0.003669      0.003865
      0.16572      8.31743     18.07934         0.004751     -0.003069      0.002305
      4.78515      0.92648      8.72250        -0.001826      0.001844      0.000502
      3.19000      3.68928      8.72230        -0.001914      0.002056      0.000486
      1.59558      4.59933     26.15214         0.000643     -0.002092     -0.002730
      1.59485      6.45216      8.72232        -0.001909      0.001954      0.000650
      0.00054      7.36258     26.15122        -0.000065     -0.001836     -0.002007
     -0.00027      9.21514      8.72254        -0.001820      0.002218      0.000574
     -1.59426     10.12486     26.15022        -0.000339     -0.001910     -0.001587
      6.38030      3.68953      8.72219        -0.001354      0.001388      0.000474
      6.38127      1.83609     26.15069        -0.000485     -0.001573     -0.002520
      4.78601      4.59919     26.15251         0.000199     -0.001458     -0.002302
      4.78513      6.45238      8.72214        -0.001543      0.001210      0.000703
      3.19071      7.36219     26.15138        -0.000573     -0.001805     -0.002169
      3.19006      9.21535      8.72246        -0.001615      0.001175      0.000695
      1.59539     10.12481     26.14959         0.000289     -0.001002     -0.001414
     -4.78523     10.12496     26.15119        -0.000407     -0.001735     -0.001595
      7.97560      0.92669      8.72247        -0.002011      0.001416      0.000551
     -3.19088      9.21540      8.72249        -0.001701      0.001287      0.000336
      3.19101      1.83615     26.15112        -0.000010     -0.001618     -0.002294
     -1.59569      6.45243      8.72226        -0.001509      0.001190      0.000371
     -1.59483      4.59952     26.15276        -0.000181     -0.001785     -0.001742
     -0.00053      3.68947      8.72231        -0.001598      0.001266      0.000476
      1.59459      0.92670      8.72256        -0.001529      0.001418      0.000231
      0.00014      1.83631     26.15147        -0.000258     -0.001945     -0.001639
     -3.18995      7.36232     26.15242        -0.000224     -0.001896     -0.001492
      6.37951      1.83895     10.27694         0.000636     -0.000814     -0.001345
      7.97667      0.92319     27.70537         0.000620      0.000879     -0.005189
      6.37947      1.83876      7.16765         0.000531     -0.000963      0.002328
      7.97728      0.92416     24.59518         0.000422      0.000699     -0.000270
      1.59608      0.92409     24.59681         0.000587      0.001071     -0.000387
     -0.00118      1.83892      7.16760         0.000579     -0.000721      0.002006
      4.78429      4.60170     10.27665         0.000456     -0.000648     -0.001108
      6.38176      3.68604     27.70695         0.000465      0.001070     -0.005519
     -3.19152      7.36490      7.16752         0.000450     -0.000661      0.002093
      0.00119      9.21231     24.59484         0.000311      0.000896     -0.000680
      6.38196      3.68768     24.59775         0.000527      0.000649     -0.000405
      1.59635      0.92388     27.70602         0.000282      0.000993     -0.005344
     -0.00124      1.83904     10.27715         0.000525     -0.000750     -0.001148
      3.18917      7.36452     10.27677         0.000532     -0.000741     -0.001273
      4.78622      6.45016     27.70712         0.000495      0.000749     -0.005519
      3.18908      7.36475      7.16756         0.000418     -0.000799      0.002207
      4.78694      6.44968     24.59793         0.000511      0.000945     -0.000805
      1.59405     10.12761     10.27713         0.000607     -0.000862     -0.001383
      3.19082      9.21311     27.70549         0.000531      0.000639     -0.005196
      4.78425      4.60170      7.16742         0.000310     -0.000824      0.002114
     -1.59627     10.12745      7.16778         0.000590     -0.000795      0.002239
     -1.59627     10.12746     10.27700         0.000411     -0.000888     -0.001161
     -1.59426      6.44992     24.59788         0.000600      0.001080     -0.000631
     -1.59357      6.45058     27.70715         0.000351      0.000689     -0.005470
     -4.78674     10.12768     10.27713         0.000489     -0.000749     -0.001209
     -3.18880      9.21356     27.70616         0.000507      0.000871     -0.005500
     -4.78669     10.12774      7.16771         0.000545     -0.000696      0.002026
     -3.18925      9.21218     24.59684         0.000599      0.001156     -0.000550
     -3.19161      7.36463     10.27679         0.000439     -0.000721     -0.001277
      1.59400     10.12759      7.16778         0.000452     -0.000925      0.002248
      3.18919      1.83882     10.27698         0.000352     -0.000900     -0.001106
      4.78700      0.92355     27.70551         0.000694      0.001222     -0.005175
      3.18915      1.83863      7.16766         0.000525     -0.000844      0.002303
      4.78683      0.92407     24.59593         0.000732      0.001088     -0.000378
      1.59404      4.60152     10.27679         0.000337     -0.000909     -0.001146
      3.19140      3.68636     27.70686         0.000449      0.001066     -0.005141
      1.59400      4.60158      7.16752         0.000538     -0.000821      0.002239
      3.19168      3.68741     24.59774         0.000135      0.000750     -0.000567
      0.00086      3.68757     24.59794         0.000474      0.000906     -0.000733
     -1.59634      4.60187      7.16745         0.000404     -0.000778      0.002158
     -0.00110      7.36439     10.27683         0.000318     -0.000965     -0.001107
      1.59626      6.45032     27.70651         0.000521      0.000998     -0.005223
     -0.00111      7.36463      7.16763         0.000531     -0.000898      0.002131
      1.59630      6.44973     24.59705         0.000374      0.000932     -0.000577
      0.00125      3.68661     27.70707         0.000358      0.000889     -0.005300
     -1.59641      4.60180     10.27679         0.000398     -0.000781     -0.001339
      0.00150      9.21329     27.70541         0.000251      0.000841     -0.005174
      3.19168      9.21252     24.59545         0.000340      0.000850     -0.000486
 -----------------------------------------------------------------------------------
    total drift:                               -0.002852      0.000619      0.015740


--------------------------------------------------------------------------------------------------------



  FREE ENERGIE OF THE ION-ELECTRON SYSTEM (eV)
  ---------------------------------------------------
  free  energy   TOTEN  =      -673.10329138 eV

  energy  without entropy=     -672.97552276  energy(sigma->0) =     -673.03940707
 
 d Force = 0.7817880E-04[ 0.621E-04, 0.943E-04]  d Energy = 0.4883747E-04 0.293E-04
 d Force =-0.2152919E+01[-0.215E+01,-0.215E+01]  d Ewald  =-0.2152917E+01-0.206E-05


--------------------------------------------------------------------------------------------------------


    POTLOK:  cpu time    0.3785: real time    0.3795


--------------------------------------------------------------------------------------------------------


 stress matrix after NEB project (eV)
      9.01626      0.06078      0.18893
      0.06078    -11.16082      0.14170
      0.18893      0.14170     -3.92285
  FORCES: max atom, RMS     0.019696    0.005940
  FORCE total and by dimension    0.057286    0.017501
  Stress total and by dimension   14.878323   11.160820
 Conjugate gradient step on ions:
 trial-energy change:   -0.000049  1 .order   -0.000078   -0.000094   -0.000062
  (g-gl).g = 0.237E-03      g.g   = 0.277E-03  gl.gl    = 0.304E-03
 g(Force)  = 0.277E-03   g(Stress)= 0.000E+00 ortho     = 0.394E-04
 gamma     =   0.77972
 trial     =   0.30637
 opt step  =   0.89805  (harmonic =   0.89805) maximal distance =0.00115947
 next E    =  -673.103381   (d E  =  -0.00014)


--------------------------------------------------------------------------------------------------------


  
 reached required accuracy - stopping structural energy minimisation
     LOOP+:  cpu time   34.5859: real time   35.9068
    4ORBIT:  cpu time    0.0000: real time    0.0000

 total amount of memory used by VASP on root node   114645. kBytes
========================================================================

   base      :      30000. kBytes
   nonlr-proj:      16422. kBytes
   fftplans  :      19781. kBytes
   grid      :      43661. kBytes
   one-center:        241. kBytes
   wavefun   :       4540. kBytes
 
  
  
 General timing and accounting informations for this job:
 ========================================================
  
                  Total CPU time used (sec):     3526.510
                            User time (sec):     3419.171
                          System time (sec):      107.339
                         Elapsed time (sec):     3593.686
  
                   Maximum memory used (kb):      166108.
                   Average memory used (kb):           0.
  
                          Minor page faults:     14315590
                          Major page faults:           55
                 Voluntary context switches:        12368
