<?xml version="1.0" encoding="ISO-8859-1"?>
<modeling>
 <generator>
  <i name="program" type="string">vasp </i>
  <i name="version" type="string">5.4.1  </i>
  <i name="subversion" type="string">05Feb16 (build Apr 21 2017 13:36:42) gamma-only                       parallel </i>
  <i name="platform" type="string">IFC91_ompi </i>
  <i name="date" type="string">2020 09 14 </i>
  <i name="time" type="string">23:52:59 </i>
 </generator>
 <incar>
  <i type="string" name="SYSTEM"> basalPlane</i>
  <i type="int" name="ISTART">     0</i>
  <i type="string" name="PREC">accurate  !=accurate, max(enmax) no wra</i>
  <i type="string" name="ALGO"> Normal    !=Normal, blocked Davidson it</i>
  <i type="int" name="NSIM">     4</i>
  <i type="int" name="ISPIN">     1</i>
  <i type="int" name="ICHARG">     2</i>
  <i type="int" name="INIWAV">     1</i>
  <i type="int" name="NELM">   200</i>
  <i type="int" name="NELMDL">    -5</i>
  <i type="int" name="NELMIN">     2</i>
  <i type="int" name="IBRION">     2</i>
  <i name="EDIFF">      0.00010000</i>
  <i name="EDIFFG">     -0.02000000</i>
  <i type="int" name="NSW"> 10000</i>
  <i type="int" name="ISIF">     2</i>
  <i type="int" name="ISYM">     2</i>
  <i name="ENCUT">    400.00000000</i>
  <i name="ENAUG">    645.00000000</i>
  <i type="string" name="LREAL"> Auto     !=Auto projection operators ev</i>
  <i type="logical" name="LPLANE"> T  </i>
  <i type="int" name="ISMEAR">     0</i>
  <i name="SIGMA">      0.10000000</i>
  <i type="int" name="NWRITE">     2</i>
  <i type="logical" name="LWAVE"> F  </i>
  <i type="logical" name="LCHARG"> F  </i>
  <i type="logical" name="LORBIT"> F  </i>
  <i type="logical" name="LELF"> F  </i>
  <i type="logical" name="LSCALU"> F  </i>
  <v type="int" name="KPOINT_BSE">    -1     0     0     0</v>
  <i type="int" name="NELM">   200</i>
 </incar>
 <kpoints>
  <varray name="kpointlist" >
   <v>       0.00000000       0.00000000       0.00000000 </v>
  </varray>
  <varray name="weights" >
   <v>       1.00000000 </v>
  </varray>
 </kpoints>
 <parameters>
  <separator name="general" >
   <i type="string" name="SYSTEM">basalPlane</i>
   <i type="logical" name="LCOMPAT"> F  </i>
  </separator>
  <separator name="electronic" >
   <i type="string" name="PREC">accura</i>
   <i name="ENMAX">    400.00000000</i>
   <i name="ENAUG">    645.00000000</i>
   <i name="EDIFF">      0.00010000</i>
   <i type="int" name="IALGO">    38</i>
   <i type="int" name="IWAVPR">    11</i>
   <i type="int" name="NBANDS">   300</i>
   <i name="NELECT">    488.00000000</i>
   <i type="int" name="TURBO">     0</i>
   <i type="int" name="IRESTART">     0</i>
   <i type="int" name="NREBOOT">     0</i>
   <i type="int" name="NMIN">     0</i>
   <i name="EREF">      0.00000000</i>
   <separator name="electronic smearing" >
    <i type="int" name="ISMEAR">     0</i>
    <i name="SIGMA">      0.10000000</i>
    <i name="KSPACING">      0.50000000</i>
    <i type="logical" name="KGAMMA"> T  </i>
   </separator>
   <separator name="electronic projectors" >
    <i type="logical" name="LREAL"> T  </i>
    <v name="ROPT">     -0.00025000     -0.00025000     -0.00025000     -0.00025000     -0.00025000</v>
    <i type="int" name="LMAXPAW">  -100</i>
    <i type="int" name="LMAXMIX">     2</i>
    <i type="logical" name="NLSPLINE"> F  </i>
   </separator>
   <separator name="electronic startup" >
    <i type="int" name="ISTART">     0</i>
    <i type="int" name="ICHARG">     2</i>
    <i type="int" name="INIWAV">     1</i>
   </separator>
   <separator name="electronic spin" >
    <i type="int" name="ISPIN">     1</i>
    <i type="logical" name="LNONCOLLINEAR"> F  </i>
    <v name="MAGMOM">      1.00000000      1.00000000      1.00000000      1.00000000      1.00000000      1.00000000      1.00000000      1.00000000      1.00000000      1.00000000      1.00000000      1.00000000      1.00000000      1.00000000      1.00000000      1.00000000      1.00000000      1.00000000      1.00000000      1.00000000
      1.00000000      1.00000000      1.00000000      1.00000000      1.00000000      1.00000000      1.00000000      1.00000000      1.00000000      1.00000000      1.00000000      1.00000000      1.00000000      1.00000000      1.00000000      1.00000000      1.00000000      1.00000000      1.00000000      1.00000000
      1.00000000      1.00000000      1.00000000      1.00000000      1.00000000      1.00000000      1.00000000      1.00000000      1.00000000      1.00000000      1.00000000      1.00000000      1.00000000      1.00000000      1.00000000      1.00000000      1.00000000      1.00000000      1.00000000      1.00000000
      1.00000000      1.00000000      1.00000000      1.00000000      1.00000000      1.00000000      1.00000000      1.00000000      1.00000000      1.00000000      1.00000000      1.00000000      1.00000000      1.00000000      1.00000000      1.00000000      1.00000000      1.00000000      1.00000000      1.00000000
      1.00000000      1.00000000      1.00000000      1.00000000      1.00000000      1.00000000      1.00000000      1.00000000      1.00000000      1.00000000      1.00000000      1.00000000      1.00000000</v>
    <i name="NUPDOWN">     -1.00000000</i>
    <i type="logical" name="LSORBIT"> F  </i>
    <v name="SAXIS">      0.00000000      0.00000000      1.00000000</v>
    <i type="logical" name="LSPIRAL"> F  </i>
    <v name="QSPIRAL">      0.00000000      0.00000000      0.00000000</v>
    <i type="logical" name="LZEROZ"> F  </i>
   </separator>
   <separator name="electronic exchange-correlation" >
    <i type="logical" name="LASPH"> F  </i>
    <i type="logical" name="LMETAGGA"> F  </i>
   </separator>
   <separator name="electronic convergence" >
    <i type="int" name="NELM">   200</i>
    <i type="int" name="NELMDL">    -5</i>
    <i type="int" name="NELMIN">     2</i>
    <i name="ENINI">    400.00000000</i>
    <separator name="electronic convergence detail" >
     <i type="logical" name="LDIAG"> T  </i>
     <i type="logical" name="LSUBROT"> F  </i>
     <i name="WEIMIN">      0.00100000</i>
     <i name="EBREAK">      0.00000008</i>
     <i name="DEPER">      0.30000000</i>
     <i type="int" name="NRMM">     4</i>
     <i name="TIME">      0.40000000</i>
    </separator>
   </separator>
   <separator name="electronic mixer" >
    <i name="AMIX">      0.40000000</i>
    <i name="BMIX">      1.00000000</i>
    <i name="AMIN">      0.10000000</i>
    <i name="AMIX_MAG">      1.60000000</i>
    <i name="BMIX_MAG">      1.00000000</i>
    <separator name="electronic mixer details" >
     <i type="int" name="IMIX">     4</i>
     <i type="logical" name="MIXFIRST"> F  </i>
     <i type="int" name="MAXMIX">   -45</i>
     <i name="WC">    100.00000000</i>
     <i type="int" name="INIMIX">     1</i>
     <i type="int" name="MIXPRE">     1</i>
     <i type="int" name="MREMOVE">     5</i>
    </separator>
   </separator>
   <separator name="electronic dipolcorrection" >
    <i type="logical" name="LDIPOL"> F  </i>
    <i type="logical" name="LMONO"> F  </i>
    <i type="int" name="IDIPOL">     0</i>
    <i name="EPSILON">      1.00000000</i>
    <v name="DIPOL">   -100.00000000   -100.00000000   -100.00000000</v>
    <i name="EFIELD">      0.00000000</i>
   </separator>
  </separator>
  <separator name="grids" >
   <i type="int" name="NGX">    64</i>
   <i type="int" name="NGY">    84</i>
   <i type="int" name="NGZ">   240</i>
   <i type="int" name="NGXF">   128</i>
   <i type="int" name="NGYF">   168</i>
   <i type="int" name="NGZF">   480</i>
   <i type="logical" name="ADDGRID"> F  </i>
  </separator>
  <separator name="ionic" >
   <i type="int" name="NSW"> 10000</i>
   <i type="int" name="IBRION">     2</i>
   <i type="int" name="ISIF">     2</i>
   <i name="PSTRESS">      0.00000000</i>
   <i name="EDIFFG">     -0.02000000</i>
   <i type="int" name="NFREE">     1</i>
   <i name="POTIM">      0.50000000</i>
   <i name="SMASS">     -3.00000000</i>
   <i name="SCALEE">      1.00000000</i>
  </separator>
  <separator name="ionic md" >
   <i name="TEBEG">      0.00010000</i>
   <i name="TEEND">      0.00010000</i>
   <i type="int" name="NBLOCK">     1</i>
   <i type="int" name="KBLOCK"> 10000</i>
   <i type="int" name="NPACO">   256</i>
   <i name="APACO">     16.00000000</i>
  </separator>
  <separator name="symmetry" >
   <i type="int" name="ISYM">     2</i>
   <i name="SYMPREC">      0.00001000</i>
  </separator>
  <separator name="dos" >
   <i type="logical" name="LORBIT"> F  </i>
   <v name="RWIGS">     -1.00000000     -1.00000000     -1.00000000     -1.00000000     -1.00000000</v>
   <i type="int" name="NEDOS">   301</i>
   <i name="EMIN">     10.00000000</i>
   <i name="EMAX">    -10.00000000</i>
   <i name="EFERMI">      0.00000000</i>
  </separator>
  <separator name="writing" >
   <i type="int" name="NWRITE">     2</i>
   <i type="logical" name="LWAVE"> F  </i>
   <i type="logical" name="LCHARG"> F  </i>
   <i type="logical" name="LPARD"> F  </i>
   <i type="logical" name="LVTOT"> F  </i>
   <i type="logical" name="LVHAR"> F  </i>
   <i type="logical" name="LELF"> F  </i>
   <i type="logical" name="LOPTICS"> F  </i>
   <v name="STM">      0.00000000      0.00000000      0.00000000      0.00000000      0.00000000      0.00000000      0.00000000</v>
  </separator>
  <separator name="performance" >
   <i type="int" name="NPAR">    12</i>
   <i type="int" name="NSIM">     4</i>
   <i type="int" name="NBLK">    -1</i>
   <i type="logical" name="LPLANE"> T  </i>
   <i type="logical" name="LSCALAPACK"> T  </i>
   <i type="logical" name="LSCAAWARE"> F  </i>
   <i type="logical" name="LSCALU"> F  </i>
   <i type="logical" name="LASYNC"> F  </i>
   <i type="logical" name="LORBITALREAL"> F  </i>
  </separator>
  <separator name="miscellaneous" >
   <i type="int" name="IDIOT">     3</i>
   <i type="logical" name="LMUSIC"> F  </i>
   <v name="POMASS">     12.01100000     51.99600000      1.00000000     95.94000000     32.06600000</v>
   <v name="DARWINR">      0.00000000      0.00000000      0.00000000      0.00000000      0.00000000</v>
   <v name="DARWINV">      1.00000000      1.00000000      1.00000000      1.00000000      1.00000000</v>
   <i type="logical" name="LCORR"> T  </i>
  </separator>
  <i type="logical" name="GGA_COMPAT"> T  </i>
  <i type="logical" name="LBERRY"> F  </i>
  <i type="int" name="ICORELEVEL">     0</i>
  <i type="logical" name="LDAU"> F  </i>
  <i type="int" name="I_CONSTRAINED_M">     0</i>
  <separator name="electronic exchange-correlation" >
   <i type="string" name="GGA">--</i>
   <i type="int" name="VOSKOWN">     0</i>
   <i type="logical" name="LHFCALC"> F  </i>
   <i type="string" name="PRECFOCK"></i>
   <i type="logical" name="LSYMGRAD"> F  </i>
   <i type="logical" name="LHFONE"> F  </i>
   <i type="logical" name="LRHFCALC"> F  </i>
   <i type="logical" name="LTHOMAS"> F  </i>
   <i type="logical" name="LMODELHF"> F  </i>
   <i name="ENCUT4O">     -1.00000000</i>
   <i type="int" name="EXXOEP">     0</i>
   <i type="int" name="FOURORBIT">     0</i>
   <i name="AEXX">      0.00000000</i>
   <i name="HFALPHA">      0.00000000</i>
   <i name="MCALPHA">      0.00000000</i>
   <i name="ALDAX">      1.00000000</i>
   <i name="AGGAX">      1.00000000</i>
   <i name="ALDAC">      1.00000000</i>
   <i name="AGGAC">      1.00000000</i>
   <i type="int" name="NKREDX">     1</i>
   <i type="int" name="NKREDY">     1</i>
   <i type="int" name="NKREDZ">     1</i>
   <i type="logical" name="SHIFTRED"> F  </i>
   <i type="logical" name="ODDONLY"> F  </i>
   <i type="logical" name="EVENONLY"> F  </i>
   <i type="int" name="LMAXFOCK">     0</i>
   <i type="int" name="NMAXFOCKAE">     0</i>
   <i type="logical" name="LFOCKAEDFT"> F  </i>
   <i name="HFSCREEN">      0.00000000</i>
   <i name="HFSCREENC">      0.00000000</i>
   <i type="int" name="NBANDSGWLOW">     0</i>
  </separator>
  <separator name="vdW DFT" >
   <i type="logical" name="LUSE_VDW"> F  </i>
   <i name="Zab_VDW">     -0.84910000</i>
   <i name="PARAM1">      0.12340000</i>
   <i name="PARAM2">      1.00000000</i>
   <i name="PARAM3">      0.00000000</i>
  </separator>
  <separator name="model GW" >
   <i type="int" name="MODEL_GW">     0</i>
   <i name="MODEL_EPS0">     23.80275655</i>
   <i name="MODEL_ALPHA">      1.00000000</i>
  </separator>
  <separator name="linear response parameters" >
   <i type="logical" name="LEPSILON"> F  </i>
   <i type="logical" name="LRPA"> F  </i>
   <i type="logical" name="LNABLA"> F  </i>
   <i type="logical" name="LVEL"> F  </i>
   <i type="int" name="KINTER">     0</i>
   <i name="CSHIFT">      0.10000000</i>
   <i name="OMEGAMAX">     -1.00000000</i>
   <i name="DEG_THRESHOLD">      0.00200000</i>
  </separator>
  <separator name="orbital magnetization" >
   <i type="logical" name="NUCIND"> F  </i>
   <v name="MAGPOS">      0.00000000      0.00000000      0.00000000</v>
   <i type="logical" name="LNICSALL"> T  </i>
   <i type="logical" name="ORBITALMAG"> F  </i>
   <i type="logical" name="LMAGBLOCH"> F  </i>
   <i type="logical" name="LCHIMAG"> F  </i>
   <i type="logical" name="LGAUGE"> T  </i>
   <i type="int" name="MAGATOM">     0</i>
   <v name="MAGDIPOL">      0.00000000      0.00000000      0.00000000</v>
   <v name="AVECCONST">      0.00000000      0.00000000      0.00000000</v>
  </separator>
  <separator name="response functions" >
   <i type="logical" name="LADDER"> F  </i>
   <i type="logical" name="LFXC"> F  </i>
   <i type="logical" name="LHARTREE"> T  </i>
   <i type="int" name="IBSE">     0</i>
   <v type="int" name="KPOINT">    -1     0     0     0</v>
   <i type="logical" name="LTCTE"> F  </i>
   <i type="logical" name="LTETE"> F  </i>
   <i type="logical" name="LTRIPLET"> F  </i>
   <i type="logical" name="LFXCEPS"> F  </i>
   <i type="logical" name="LFXHEG"> F  </i>
   <i type="int" name="NATURALO">     0</i>
   <i type="logical" name="L2ORDER"> F  </i>
   <i type="logical" name="LUSEW"> F  </i>
   <i name="ENCUTGW">     -2.00000000</i>
   <i name="ENCUTGWSOFT">     -2.00000000</i>
   <i name="ENCUTLF">     -1.00000000</i>
   <i type="int" name="LMAXMP2">    -1</i>
   <i name="SCISSOR">      0.00000000</i>
   <i type="int" name="NOMEGA">     0</i>
   <i type="int" name="NOMEGAR">     0</i>
   <i type="int" name="NBANDSGW">    -1</i>
   <i type="int" name="NBANDSO">    -1</i>
   <i type="int" name="NBANDSV">    -1</i>
   <i type="int" name="NELM">   200</i>
   <i type="int" name="NELMHF">     1</i>
   <i type="int" name="DIM">     3</i>
   <i type="int" name="ANTIRES">     0</i>
   <i name="OMEGAMAX">    -30.00000000</i>
   <i name="OMEGAMIN">    -30.00000000</i>
   <i name="OMEGATL">   -200.00000000</i>
   <i type="int" name="OMEGAGRID">     0</i>
   <i name="CSHIFT">     -0.10000000</i>
   <i type="logical" name="SELFENERGY"> F  </i>
   <i type="logical" name="LSPECTRAL"> F  </i>
   <i type="logical" name="LSPECTRALGW"> F  </i>
   <i type="logical" name="LSINGLES"> F  </i>
   <i type="logical" name="LFERMIGW"> F  </i>
   <i type="logical" name="ODDONLYGW"> F  </i>
   <i type="logical" name="EVENONLYGW"> F  </i>
   <i type="int" name="NKREDLFX">     1</i>
   <i type="int" name="NKREDLFY">     1</i>
   <i type="int" name="NKREDLFZ">     1</i>
   <i type="int" name="MAXMEM">  1800</i>
   <i type="int" name="TELESCOPE">     0</i>
   <i type="int" name="TAUPAR">     1</i>
   <i type="int" name="OMEGAPAR">    -1</i>
   <i name="LAMBDA">      1.00000000</i>
  </separator>
  <separator name="External order field" >
   <i name="OFIELD_KAPPA">      0.00000000</i>
   <v name="OFIELD_K">      0.00000000      0.00000000      0.00000000</v>
   <i name="OFIELD_Q6_NEAR">      0.00000000</i>
   <i name="OFIELD_Q6_FAR">      0.00000000</i>
   <i name="OFIELD_A">      0.00000000</i>
  </separator>
 </parameters>
 <atominfo>
  <atoms>      93 </atoms>
  <types>       5 </types>
  <array name="atoms" >
   <dimension dim="1">ion</dimension>
   <field type="string">element</field>
   <field type="int">atomtype</field>
   <set>
    <rc><c>C </c><c>   1</c></rc>
    <rc><c>C </c><c>   1</c></rc>
    <rc><c>C </c><c>   1</c></rc>
    <rc><c>C </c><c>   1</c></rc>
    <rc><c>C </c><c>   1</c></rc>
    <rc><c>C </c><c>   1</c></rc>
    <rc><c>C </c><c>   1</c></rc>
    <rc><c>C </c><c>   1</c></rc>
    <rc><c>C </c><c>   1</c></rc>
    <rc><c>C </c><c>   1</c></rc>
    <rc><c>Cr</c><c>   2</c></rc>
    <rc><c>H </c><c>   3</c></rc>
    <rc><c>H </c><c>   3</c></rc>
    <rc><c>H </c><c>   3</c></rc>
    <rc><c>H </c><c>   3</c></rc>
    <rc><c>H </c><c>   3</c></rc>
    <rc><c>H </c><c>   3</c></rc>
    <rc><c>H </c><c>   3</c></rc>
    <rc><c>H </c><c>   3</c></rc>
    <rc><c>H </c><c>   3</c></rc>
    <rc><c>H </c><c>   3</c></rc>
    <rc><c>Mo</c><c>   4</c></rc>
    <rc><c>Mo</c><c>   4</c></rc>
    <rc><c>Mo</c><c>   4</c></rc>
    <rc><c>Mo</c><c>   4</c></rc>
    <rc><c>Mo</c><c>   4</c></rc>
    <rc><c>Mo</c><c>   4</c></rc>
    <rc><c>Mo</c><c>   4</c></rc>
    <rc><c>Mo</c><c>   4</c></rc>
    <rc><c>Mo</c><c>   4</c></rc>
    <rc><c>Mo</c><c>   4</c></rc>
    <rc><c>Mo</c><c>   4</c></rc>
    <rc><c>Mo</c><c>   4</c></rc>
    <rc><c>Mo</c><c>   4</c></rc>
    <rc><c>Mo</c><c>   4</c></rc>
    <rc><c>Mo</c><c>   4</c></rc>
    <rc><c>Mo</c><c>   4</c></rc>
    <rc><c>Mo</c><c>   4</c></rc>
    <rc><c>Mo</c><c>   4</c></rc>
    <rc><c>Mo</c><c>   4</c></rc>
    <rc><c>Mo</c><c>   4</c></rc>
    <rc><c>Mo</c><c>   4</c></rc>
    <rc><c>Mo</c><c>   4</c></rc>
    <rc><c>Mo</c><c>   4</c></rc>
    <rc><c>Mo</c><c>   4</c></rc>
    <rc><c>S </c><c>   5</c></rc>
    <rc><c>S </c><c>   5</c></rc>
    <rc><c>S </c><c>   5</c></rc>
    <rc><c>S </c><c>   5</c></rc>
    <rc><c>S </c><c>   5</c></rc>
    <rc><c>S </c><c>   5</c></rc>
    <rc><c>S </c><c>   5</c></rc>
    <rc><c>S </c><c>   5</c></rc>
    <rc><c>S </c><c>   5</c></rc>
    <rc><c>S </c><c>   5</c></rc>
    <rc><c>S </c><c>   5</c></rc>
    <rc><c>S </c><c>   5</c></rc>
    <rc><c>S </c><c>   5</c></rc>
    <rc><c>S </c><c>   5</c></rc>
    <rc><c>S </c><c>   5</c></rc>
    <rc><c>S </c><c>   5</c></rc>
    <rc><c>S </c><c>   5</c></rc>
    <rc><c>S </c><c>   5</c></rc>
    <rc><c>S </c><c>   5</c></rc>
    <rc><c>S </c><c>   5</c></rc>
    <rc><c>S </c><c>   5</c></rc>
    <rc><c>S </c><c>   5</c></rc>
    <rc><c>S </c><c>   5</c></rc>
    <rc><c>S </c><c>   5</c></rc>
    <rc><c>S </c><c>   5</c></rc>
    <rc><c>S </c><c>   5</c></rc>
    <rc><c>S </c><c>   5</c></rc>
    <rc><c>S </c><c>   5</c></rc>
    <rc><c>S </c><c>   5</c></rc>
    <rc><c>S </c><c>   5</c></rc>
    <rc><c>S </c><c>   5</c></rc>
    <rc><c>S </c><c>   5</c></rc>
    <rc><c>S </c><c>   5</c></rc>
    <rc><c>S </c><c>   5</c></rc>
    <rc><c>S </c><c>   5</c></rc>
    <rc><c>S </c><c>   5</c></rc>
    <rc><c>S </c><c>   5</c></rc>
    <rc><c>S </c><c>   5</c></rc>
    <rc><c>S </c><c>   5</c></rc>
    <rc><c>S </c><c>   5</c></rc>
    <rc><c>S </c><c>   5</c></rc>
    <rc><c>S </c><c>   5</c></rc>
    <rc><c>S </c><c>   5</c></rc>
    <rc><c>S </c><c>   5</c></rc>
    <rc><c>S </c><c>   5</c></rc>
    <rc><c>S </c><c>   5</c></rc>
    <rc><c>S </c><c>   5</c></rc>
    <rc><c>S </c><c>   5</c></rc>
   </set>
  </array>
  <array name="atomtypes" >
   <dimension dim="1">type</dimension>
   <field type="int">atomspertype</field>
   <field type="string">element</field>
   <field>mass</field>
   <field>valence</field>
   <field type="string">pseudopotential</field>
   <set>
    <rc><c>  10</c><c>C </c><c>     12.01100000</c><c>      4.00000000</c><c>  PAW_PBE C 08Apr2002                   </c></rc>
    <rc><c>   1</c><c>Cr</c><c>     51.99600000</c><c>      6.00000000</c><c>  PAW_PBE Cr 06Sep2000                  </c></rc>
    <rc><c>  10</c><c>H </c><c>      1.00000000</c><c>      1.00000000</c><c>  PAW_PBE H 15Jun2001                   </c></rc>
    <rc><c>  24</c><c>Mo</c><c>     95.94000000</c><c>      6.00000000</c><c>  PAW_PBE Mo 08Apr2002                  </c></rc>
    <rc><c>  48</c><c>S </c><c>     32.06600000</c><c>      6.00000000</c><c>  PAW_PBE S 06Sep2000                   </c></rc>
   </set>
  </array>
 </atominfo>
 <structure name="initialpos" >
  <crystal>
   <varray name="basis" >
    <v>       9.57094646       0.00000000       0.00000000 </v>
    <v>      -6.38062803      11.05157872       0.00000000 </v>
    <v>       0.00000000       0.00000000      34.88026251 </v>
   </varray>
   <i name="volume">   3689.42726549 </i>
   <varray name="rec_basis" >
    <v>       0.10448287       0.06032318       0.00000000 </v>
    <v>       0.00000000       0.09048481       0.00000000 </v>
    <v>       0.00000000       0.00000000       0.02866951 </v>
   </varray>
  </crystal>
  <varray name="positions" >
   <v>       0.94318622       0.94229948       0.47031807 </v>
   <v>       0.05752077       0.98030315       0.50067588 </v>
   <v>       0.89730339       0.03186211       0.46494200 </v>
   <v>       0.98477802       0.12741353       0.49227735 </v>
   <v>       0.08439832       0.09465812       0.51456746 </v>
   <v>       0.71667218       0.82387905       0.56191867 </v>
   <v>       0.72301723       0.00720057       0.56975064 </v>
   <v>       0.79611154       0.93806825       0.58207223 </v>
   <v>       0.60018216       0.93656950       0.54259086 </v>
   <v>       0.59597029       0.82431492       0.53758029 </v>
   <v>       0.83753544       0.96873306       0.52304154 </v>
   <v>       0.16693833       0.14792508       0.53738042 </v>
   <v>       0.89066875       0.96548569       0.60347134 </v>
   <v>       0.52806796       0.96621659       0.52678445 </v>
   <v>       0.75700121       0.09823209       0.57903401 </v>
   <v>       0.74096022       0.74972149       0.56518747 </v>
   <v>       0.11082466       0.92913855       0.51226150 </v>
   <v>       0.89330532       0.85657860       0.45510180 </v>
   <v>       0.81050778       0.02783475       0.44401181 </v>
   <v>       0.98044155       0.21066807       0.49478632 </v>
   <v>       0.51757179       0.75278229       0.51786899 </v>
   <v>       0.55555566       0.08333325       0.25000928 </v>
   <v>       0.55555566       0.33333325       0.25000928 </v>
   <v>       0.44444432       0.41666674       0.74999076 </v>
   <v>       0.55555566       0.58333325       0.25000928 </v>
   <v>       0.44444432       0.66666674       0.74999076 </v>
   <v>       0.55555566       0.83333325       0.25000928 </v>
   <v>       0.44444432       0.91666674       0.74999076 </v>
   <v>       0.88888899       0.33333325       0.25000928 </v>
   <v>       0.77777765       0.16666674       0.74999076 </v>
   <v>       0.77777765       0.41666674       0.74999076 </v>
   <v>       0.88888899       0.58333325       0.25000928 </v>
   <v>       0.77777765       0.66666674       0.74999076 </v>
   <v>       0.88888899       0.83333325       0.25000928 </v>
   <v>       0.77777765       0.91666674       0.74999076 </v>
   <v>       0.11111099       0.91666674       0.74999076 </v>
   <v>       0.88888899       0.08333325       0.25000928 </v>
   <v>       0.22222233       0.83333325       0.25000928 </v>
   <v>       0.44444432       0.16666674       0.74999076 </v>
   <v>       0.22222233       0.58333325       0.25000928 </v>
   <v>       0.11111099       0.41666674       0.74999076 </v>
   <v>       0.22222233       0.33333325       0.25000928 </v>
   <v>       0.22222233       0.08333325       0.25000928 </v>
   <v>       0.11111099       0.16666674       0.74999076 </v>
   <v>       0.11111099       0.66666674       0.74999076 </v>
   <v>       0.77777765       0.16666674       0.29487388 </v>
   <v>       0.88888899       0.08333325       0.79485533 </v>
   <v>       0.77777765       0.16666674       0.20514467 </v>
   <v>       0.88888899       0.08333325       0.70512613 </v>
   <v>       0.22222233       0.08333325       0.70512613 </v>
   <v>       0.11111099       0.16666674       0.20514467 </v>
   <v>       0.77777765       0.41666674       0.29487388 </v>
   <v>       0.88888899       0.33333325       0.79485533 </v>
   <v>       0.11111099       0.66666674       0.20514467 </v>
   <v>       0.55555566       0.83333325       0.70512613 </v>
   <v>       0.88888899       0.33333325       0.70512613 </v>
   <v>       0.22222233       0.08333325       0.79485533 </v>
   <v>       0.11111099       0.16666674       0.29487388 </v>
   <v>       0.77777765       0.66666674       0.29487388 </v>
   <v>       0.88888899       0.58333325       0.79485533 </v>
   <v>       0.77777765       0.66666674       0.20514467 </v>
   <v>       0.88888899       0.58333325       0.70512613 </v>
   <v>       0.77777765       0.91666674       0.29487388 </v>
   <v>       0.88888899       0.83333325       0.79485533 </v>
   <v>       0.77777765       0.41666674       0.20514467 </v>
   <v>       0.44444432       0.91666674       0.20514467 </v>
   <v>       0.44444432       0.91666674       0.29487388 </v>
   <v>       0.22222233       0.58333325       0.70512613 </v>
   <v>       0.22222233       0.58333325       0.79485533 </v>
   <v>       0.11111099       0.91666674       0.29487388 </v>
   <v>       0.22222233       0.83333325       0.79485533 </v>
   <v>       0.11111099       0.91666674       0.20514467 </v>
   <v>       0.22222233       0.83333325       0.70512613 </v>
   <v>       0.11111099       0.66666674       0.29487388 </v>
   <v>       0.77777765       0.91666674       0.20514467 </v>
   <v>       0.44444432       0.16666674       0.29487388 </v>
   <v>       0.55555566       0.08333325       0.79485533 </v>
   <v>       0.44444432       0.16666674       0.20514467 </v>
   <v>       0.55555566       0.08333325       0.70512613 </v>
   <v>       0.44444432       0.41666674       0.29487388 </v>
   <v>       0.55555566       0.33333325       0.79485533 </v>
   <v>       0.44444432       0.41666674       0.20514467 </v>
   <v>       0.55555566       0.33333325       0.70512613 </v>
   <v>       0.22222233       0.33333325       0.70512613 </v>
   <v>       0.11111099       0.41666674       0.20514467 </v>
   <v>       0.44444432       0.66666674       0.29487388 </v>
   <v>       0.55555566       0.58333325       0.79485533 </v>
   <v>       0.44444432       0.66666674       0.20514467 </v>
   <v>       0.55555566       0.58333325       0.70512613 </v>
   <v>       0.22222233       0.33333325       0.79485533 </v>
   <v>       0.11111099       0.41666674       0.29487388 </v>
   <v>       0.55555566       0.83333325       0.79485533 </v>
   <v>       0.88888899       0.83333325       0.70512613 </v>
  </varray>
 </structure>
 <calculation>
  <scstep>
   <time name="dav">    5.37    5.38</time>
   <time name="total">    5.81    5.83</time>
   <energy>
    <i name="alphaZ">    562.39184220 </i>
    <i name="ewald">  37682.32558485 </i>
    <i name="hartreedc"> -56603.53946792 </i>
    <i name="XCdc">   -737.55600833 </i>
    <i name="pawpsdc">  18197.44745459 </i>
    <i name="pawaedc"> -16322.33343364 </i>
    <i name="eentropy">     -0.17450407 </i>
    <i name="bandstr">   1207.03859801 </i>
    <i name="atom">  20380.58938199 </i>
    <i name="e_fr_energy">   4366.18944767 </i>
    <i name="e_wo_entrp">   4366.36395175 </i>
    <i name="e_0_energy">   4366.27669971 </i>
   </energy>
  </scstep>
  <scstep>
   <time name="dav">    8.57    8.61</time>
   <time name="total">    8.57    8.61</time>
   <energy>
    <i name="e_fr_energy">    -22.92495382 </i>
    <i name="e_wo_entrp">    -22.88732257 </i>
    <i name="e_0_energy">    -22.90613819 </i>
   </energy>
  </scstep>
  <scstep>
   <time name="dav">    6.59    6.61</time>
   <time name="total">    6.59    6.62</time>
   <energy>
    <i name="e_fr_energy">   -678.02423716 </i>
    <i name="e_wo_entrp">   -678.02423676 </i>
    <i name="e_0_energy">   -678.02423696 </i>
   </energy>
  </scstep>
  <scstep>
   <time name="dav">    7.86    7.88</time>
   <time name="total">    7.86    7.89</time>
   <energy>
    <i name="e_fr_energy">   -713.75851747 </i>
    <i name="e_wo_entrp">   -713.75851745 </i>
    <i name="e_0_energy">   -713.75851746 </i>
   </energy>
  </scstep>
  <scstep>
   <time name="dav">    7.96    8.57</time>
   <time name="total">    8.52    9.14</time>
   <energy>
    <i name="e_fr_energy">   -714.99307060 </i>
    <i name="e_wo_entrp">   -714.99307059 </i>
    <i name="e_0_energy">   -714.99307059 </i>
   </energy>
  </scstep>
  <scstep>
   <time name="dav">    7.34    7.36</time>
   <time name="total">    8.32    8.35</time>
   <energy>
    <i name="e_fr_energy">   -699.95218001 </i>
    <i name="e_wo_entrp">   -699.83949595 </i>
    <i name="e_0_energy">   -699.89583798 </i>
   </energy>
  </scstep>
  <scstep>
   <time name="dav">    7.87    7.91</time>
   <time name="total">    8.90    8.94</time>
   <energy>
    <i name="e_fr_energy">   -709.97514633 </i>
    <i name="e_wo_entrp">   -709.72014141 </i>
    <i name="e_0_energy">   -709.84764387 </i>
   </energy>
  </scstep>
  <scstep>
   <time name="dav">    7.26    7.28</time>
   <time name="total">    8.28    8.38</time>
   <energy>
    <i name="e_fr_energy">   -668.90978741 </i>
    <i name="e_wo_entrp">   -668.85653146 </i>
    <i name="e_0_energy">   -668.88315944 </i>
   </energy>
  </scstep>
  <scstep>
   <time name="dav">    7.43    7.45</time>
   <time name="total">    8.40    8.43</time>
   <energy>
    <i name="e_fr_energy">   -659.07140141 </i>
    <i name="e_wo_entrp">   -658.97415245 </i>
    <i name="e_0_energy">   -659.02277693 </i>
   </energy>
  </scstep>
  <scstep>
   <time name="dav">    7.95    7.98</time>
   <time name="total">    8.95    8.98</time>
   <energy>
    <i name="e_fr_energy">   -661.65807247 </i>
    <i name="e_wo_entrp">   -661.50984985 </i>
    <i name="e_0_energy">   -661.58396116 </i>
   </energy>
  </scstep>
  <scstep>
   <time name="dav">    7.43    7.45</time>
   <time name="total">    8.40    8.45</time>
   <energy>
    <i name="e_fr_energy">   -658.99025439 </i>
    <i name="e_wo_entrp">   -658.90889676 </i>
    <i name="e_0_energy">   -658.94957558 </i>
   </energy>
  </scstep>
  <scstep>
   <time name="dav">    7.72    7.76</time>
   <time name="total">    8.70    8.74</time>
   <energy>
    <i name="e_fr_energy">   -662.33471456 </i>
    <i name="e_wo_entrp">   -662.20232627 </i>
    <i name="e_0_energy">   -662.26852042 </i>
   </energy>
  </scstep>
  <scstep>
   <time name="dav">    7.94    7.97</time>
   <time name="total">    8.92    8.95</time>
   <energy>
    <i name="e_fr_energy">   -661.61984695 </i>
    <i name="e_wo_entrp">   -661.50483197 </i>
    <i name="e_0_energy">   -661.56233946 </i>
   </energy>
  </scstep>
  <scstep>
   <time name="dav">    7.37    7.39</time>
   <time name="total">    8.39    8.61</time>
   <energy>
    <i name="e_fr_energy">   -663.79451188 </i>
    <i name="e_wo_entrp">   -663.70090353 </i>
    <i name="e_0_energy">   -663.74770771 </i>
   </energy>
  </scstep>
  <scstep>
   <time name="dav">    7.41    7.43</time>
   <time name="total">    8.39    8.42</time>
   <energy>
    <i name="e_fr_energy">   -662.50707989 </i>
    <i name="e_wo_entrp">   -662.40122126 </i>
    <i name="e_0_energy">   -662.45415058 </i>
   </energy>
  </scstep>
  <scstep>
   <time name="dav">    7.53    7.55</time>
   <time name="total">    8.50    8.54</time>
   <energy>
    <i name="e_fr_energy">   -662.26446787 </i>
    <i name="e_wo_entrp">   -662.15713270 </i>
    <i name="e_0_energy">   -662.21080029 </i>
   </energy>
  </scstep>
  <scstep>
   <time name="dav">    7.69    7.71</time>
   <time name="total">    8.67    8.70</time>
   <energy>
    <i name="e_fr_energy">   -661.71625103 </i>
    <i name="e_wo_entrp">   -661.60898117 </i>
    <i name="e_0_energy">   -661.66261610 </i>
   </energy>
  </scstep>
  <scstep>
   <time name="dav">    7.86    7.88</time>
   <time name="total">    8.84    8.87</time>
   <energy>
    <i name="e_fr_energy">   -660.50325970 </i>
    <i name="e_wo_entrp">   -660.39250121 </i>
    <i name="e_0_energy">   -660.44788046 </i>
   </energy>
  </scstep>
  <scstep>
   <time name="dav">    7.62    7.65</time>
   <time name="total">    8.60    8.63</time>
   <energy>
    <i name="e_fr_energy">   -659.65620447 </i>
    <i name="e_wo_entrp">   -659.53974207 </i>
    <i name="e_0_energy">   -659.59797327 </i>
   </energy>
  </scstep>
  <scstep>
   <time name="dav">    6.83    6.86</time>
   <time name="total">    7.81    7.84</time>
   <energy>
    <i name="e_fr_energy">   -659.78878245 </i>
    <i name="e_wo_entrp">   -659.67084470 </i>
    <i name="e_0_energy">   -659.72981358 </i>
   </energy>
  </scstep>
  <scstep>
   <time name="dav">    6.18    6.20</time>
   <time name="total">    7.15    7.18</time>
   <energy>
    <i name="e_fr_energy">   -659.77828287 </i>
    <i name="e_wo_entrp">   -659.66036941 </i>
    <i name="e_0_energy">   -659.71932614 </i>
   </energy>
  </scstep>
  <scstep>
   <time name="dav">    6.85    6.95</time>
   <time name="total">    7.83    7.94</time>
   <energy>
    <i name="e_fr_energy">   -659.88625167 </i>
    <i name="e_wo_entrp">   -659.76903499 </i>
    <i name="e_0_energy">   -659.82764333 </i>
   </energy>
  </scstep>
  <scstep>
   <time name="dav">    7.18    7.20</time>
   <time name="total">    8.15    8.18</time>
   <energy>
    <i name="e_fr_energy">   -660.26309638 </i>
    <i name="e_wo_entrp">   -660.14563699 </i>
    <i name="e_0_energy">   -660.20436668 </i>
   </energy>
  </scstep>
  <scstep>
   <time name="dav">    7.43    7.45</time>
   <time name="total">    8.40    8.45</time>
   <energy>
    <i name="e_fr_energy">   -658.62995570 </i>
    <i name="e_wo_entrp">   -658.55571646 </i>
    <i name="e_0_energy">   -658.59283608 </i>
   </energy>
  </scstep>
  <scstep>
   <time name="dav">    6.92    6.94</time>
   <time name="total">    7.90    7.93</time>
   <energy>
    <i name="e_fr_energy">   -658.54754776 </i>
    <i name="e_wo_entrp">   -658.43518395 </i>
    <i name="e_0_energy">   -658.49136586 </i>
   </energy>
  </scstep>
  <scstep>
   <time name="dav">    7.52    7.54</time>
   <time name="total">    8.50    8.53</time>
   <energy>
    <i name="e_fr_energy">   -658.54228756 </i>
    <i name="e_wo_entrp">   -658.44860870 </i>
    <i name="e_0_energy">   -658.49544813 </i>
   </energy>
  </scstep>
  <scstep>
   <time name="dav">    6.75    6.77</time>
   <time name="total">    7.73    7.76</time>
   <energy>
    <i name="e_fr_energy">   -658.64942859 </i>
    <i name="e_wo_entrp">   -658.48878846 </i>
    <i name="e_0_energy">   -658.56910852 </i>
   </energy>
  </scstep>
  <scstep>
   <time name="dav">    7.19    7.21</time>
   <time name="total">    8.17    8.20</time>
   <energy>
    <i name="e_fr_energy">   -658.65584729 </i>
    <i name="e_wo_entrp">   -658.52465219 </i>
    <i name="e_0_energy">   -658.59024974 </i>
   </energy>
  </scstep>
  <scstep>
   <time name="dav">    7.60    7.68</time>
   <time name="total">    8.58    8.67</time>
   <energy>
    <i name="e_fr_energy">   -658.59077556 </i>
    <i name="e_wo_entrp">   -658.49963423 </i>
    <i name="e_0_energy">   -658.54520490 </i>
   </energy>
  </scstep>
  <scstep>
   <time name="dav">    7.10    7.12</time>
   <time name="total">    8.08    8.11</time>
   <energy>
    <i name="e_fr_energy">   -658.67829929 </i>
    <i name="e_wo_entrp">   -658.55445212 </i>
    <i name="e_0_energy">   -658.61637570 </i>
   </energy>
  </scstep>
  <scstep>
   <time name="dav">    6.94    6.96</time>
   <time name="total">    7.93    7.95</time>
   <energy>
    <i name="e_fr_energy">   -658.65936443 </i>
    <i name="e_wo_entrp">   -658.57940666 </i>
    <i name="e_0_energy">   -658.61938554 </i>
   </energy>
  </scstep>
  <scstep>
   <time name="dav">    7.88    7.90</time>
   <time name="total">    8.86    8.89</time>
   <energy>
    <i name="e_fr_energy">   -658.66105015 </i>
    <i name="e_wo_entrp">   -658.58474129 </i>
    <i name="e_0_energy">   -658.62289572 </i>
   </energy>
  </scstep>
  <scstep>
   <time name="dav">    6.74    6.76</time>
   <time name="total">    7.72    7.75</time>
   <energy>
    <i name="e_fr_energy">   -658.56884426 </i>
    <i name="e_wo_entrp">   -658.49953829 </i>
    <i name="e_0_energy">   -658.53419128 </i>
   </energy>
  </scstep>
  <scstep>
   <time name="dav">    7.10    7.12</time>
   <time name="total">    8.09    8.11</time>
   <energy>
    <i name="e_fr_energy">   -658.51457694 </i>
    <i name="e_wo_entrp">   -658.44061462 </i>
    <i name="e_0_energy">   -658.47759578 </i>
   </energy>
  </scstep>
  <scstep>
   <time name="dav">    7.26    7.28</time>
   <time name="total">    8.25    8.28</time>
   <energy>
    <i name="e_fr_energy">   -658.51923211 </i>
    <i name="e_wo_entrp">   -658.44464135 </i>
    <i name="e_0_energy">   -658.48193673 </i>
   </energy>
  </scstep>
  <scstep>
   <time name="dav">    7.05    7.10</time>
   <time name="total">    8.03    8.10</time>
   <energy>
    <i name="e_fr_energy">   -658.52434809 </i>
    <i name="e_wo_entrp">   -658.44626975 </i>
    <i name="e_0_energy">   -658.48530892 </i>
   </energy>
  </scstep>
  <scstep>
   <time name="dav">    6.30    6.32</time>
   <time name="total">    7.29    7.32</time>
   <energy>
    <i name="e_fr_energy">   -658.51712725 </i>
    <i name="e_wo_entrp">   -658.43577176 </i>
    <i name="e_0_energy">   -658.47644951 </i>
   </energy>
  </scstep>
  <scstep>
   <time name="dav">    6.92    6.93</time>
   <time name="total">    7.91    7.93</time>
   <energy>
    <i name="e_fr_energy">   -658.51118341 </i>
    <i name="e_wo_entrp">   -658.42481486 </i>
    <i name="e_0_energy">   -658.46799913 </i>
   </energy>
  </scstep>
  <scstep>
   <time name="dav">    6.17    6.19</time>
   <time name="total">    7.16    7.18</time>
   <energy>
    <i name="e_fr_energy">   -658.49589097 </i>
    <i name="e_wo_entrp">   -658.40616411 </i>
    <i name="e_0_energy">   -658.45102754 </i>
   </energy>
  </scstep>
  <scstep>
   <time name="dav">    6.66    6.68</time>
   <time name="total">    7.64    7.67</time>
   <energy>
    <i name="e_fr_energy">   -658.46121903 </i>
    <i name="e_wo_entrp">   -658.36579414 </i>
    <i name="e_0_energy">   -658.41350659 </i>
   </energy>
  </scstep>
  <scstep>
   <time name="dav">    6.77    6.80</time>
   <time name="total">    7.77    7.79</time>
   <energy>
    <i name="e_fr_energy">   -658.40134361 </i>
    <i name="e_wo_entrp">   -658.29886428 </i>
    <i name="e_0_energy">   -658.35010394 </i>
   </energy>
  </scstep>
  <scstep>
   <time name="dav">    7.27    7.28</time>
   <time name="total">    8.26    8.30</time>
   <energy>
    <i name="e_fr_energy">   -658.36895478 </i>
    <i name="e_wo_entrp">   -658.26343330 </i>
    <i name="e_0_energy">   -658.31619404 </i>
   </energy>
  </scstep>
  <scstep>
   <time name="dav">    6.35    6.37</time>
   <time name="total">    7.34    7.37</time>
   <energy>
    <i name="e_fr_energy">   -658.36181225 </i>
    <i name="e_wo_entrp">   -658.25613608 </i>
    <i name="e_0_energy">   -658.30897416 </i>
   </energy>
  </scstep>
  <scstep>
   <time name="dav">    6.18    6.23</time>
   <time name="total">    7.17    7.23</time>
   <energy>
    <i name="e_fr_energy">   -658.34024235 </i>
    <i name="e_wo_entrp">   -658.23126716 </i>
    <i name="e_0_energy">   -658.28575475 </i>
   </energy>
  </scstep>
  <scstep>
   <time name="dav">    6.85    6.87</time>
   <time name="total">    7.86    7.88</time>
   <energy>
    <i name="e_fr_energy">   -658.28465437 </i>
    <i name="e_wo_entrp">   -658.17181548 </i>
    <i name="e_0_energy">   -658.22823492 </i>
   </energy>
  </scstep>
  <scstep>
   <time name="dav">    7.43    7.45</time>
   <time name="total">    8.42    8.49</time>
   <energy>
    <i name="e_fr_energy">   -658.27449985 </i>
    <i name="e_wo_entrp">   -658.16195217 </i>
    <i name="e_0_energy">   -658.21822601 </i>
   </energy>
  </scstep>
  <scstep>
   <time name="dav">    6.74    6.77</time>
   <time name="total">    7.74    7.77</time>
   <energy>
    <i name="e_fr_energy">   -658.25661116 </i>
    <i name="e_wo_entrp">   -658.14420062 </i>
    <i name="e_0_energy">   -658.20040589 </i>
   </energy>
  </scstep>
  <scstep>
   <time name="dav">    6.43    6.44</time>
   <time name="total">    7.44    7.46</time>
   <energy>
    <i name="e_fr_energy">   -658.24815606 </i>
    <i name="e_wo_entrp">   -658.13515953 </i>
    <i name="e_0_energy">   -658.19165779 </i>
   </energy>
  </scstep>
  <scstep>
   <time name="dav">    6.74    6.76</time>
   <time name="total">    7.75    7.78</time>
   <energy>
    <i name="e_fr_energy">   -658.23263745 </i>
    <i name="e_wo_entrp">   -658.11598006 </i>
    <i name="e_0_energy">   -658.17430876 </i>
   </energy>
  </scstep>
  <scstep>
   <time name="dav">    6.33    6.35</time>
   <time name="total">    7.35    7.37</time>
   <energy>
    <i name="e_fr_energy">   -658.23125129 </i>
    <i name="e_wo_entrp">   -658.10999285 </i>
    <i name="e_0_energy">   -658.17062207 </i>
   </energy>
  </scstep>
  <scstep>
   <time name="dav">    6.75    6.77</time>
   <time name="total">    7.77    7.79</time>
   <energy>
    <i name="e_fr_energy">   -658.23229300 </i>
    <i name="e_wo_entrp">   -658.08183598 </i>
    <i name="e_0_energy">   -658.15706449 </i>
   </energy>
  </scstep>
  <scstep>
   <time name="dav">    6.40    6.44</time>
   <time name="total">    7.41    7.46</time>
   <energy>
    <i name="e_fr_energy">   -658.23453161 </i>
    <i name="e_wo_entrp">   -658.07362182 </i>
    <i name="e_0_energy">   -658.15407672 </i>
   </energy>
  </scstep>
  <scstep>
   <time name="dav">    4.99    5.00</time>
   <time name="total">    6.00    6.02</time>
   <energy>
    <i name="e_fr_energy">   -658.23256174 </i>
    <i name="e_wo_entrp">   -658.07924897 </i>
    <i name="e_0_energy">   -658.15590536 </i>
   </energy>
  </scstep>
  <scstep>
   <time name="dav">    4.97    4.98</time>
   <time name="total">    5.99    6.01</time>
   <energy>
    <i name="e_fr_energy">   -658.22872926 </i>
    <i name="e_wo_entrp">   -658.07026428 </i>
    <i name="e_0_energy">   -658.14949677 </i>
   </energy>
  </scstep>
  <scstep>
   <time name="dav">    4.55    4.57</time>
   <time name="total">    5.57    5.59</time>
   <energy>
    <i name="e_fr_energy">   -658.23264062 </i>
    <i name="e_wo_entrp">   -658.07240397 </i>
    <i name="e_0_energy">   -658.15252230 </i>
   </energy>
  </scstep>
  <scstep>
   <time name="dav">    6.24    6.25</time>
   <time name="total">    7.25    7.27</time>
   <energy>
    <i name="e_fr_energy">   -658.21951652 </i>
    <i name="e_wo_entrp">   -658.08763857 </i>
    <i name="e_0_energy">   -658.15357754 </i>
   </energy>
  </scstep>
  <scstep>
   <time name="dav">    6.15    6.17</time>
   <time name="total">    7.17    7.20</time>
   <energy>
    <i name="e_fr_energy">   -658.21797539 </i>
    <i name="e_wo_entrp">   -658.06663110 </i>
    <i name="e_0_energy">   -658.14230324 </i>
   </energy>
  </scstep>
  <scstep>
   <time name="dav">    5.39    5.40</time>
   <time name="total">    6.41    6.43</time>
   <energy>
    <i name="e_fr_energy">   -658.21937851 </i>
    <i name="e_wo_entrp">   -658.06425398 </i>
    <i name="e_0_energy">   -658.14181624 </i>
   </energy>
  </scstep>
  <scstep>
   <time name="dav">    4.45    4.47</time>
   <time name="total">    5.46    5.52</time>
   <energy>
    <i name="e_fr_energy">   -658.22022811 </i>
    <i name="e_wo_entrp">   -658.06315278 </i>
    <i name="e_0_energy">   -658.14169044 </i>
   </energy>
  </scstep>
  <scstep>
   <time name="dav">    4.28    4.29</time>
   <time name="total">    5.30    5.32</time>
   <energy>
    <i name="e_fr_energy">   -658.22082207 </i>
    <i name="e_wo_entrp">   -658.06434784 </i>
    <i name="e_0_energy">   -658.14258496 </i>
   </energy>
  </scstep>
  <scstep>
   <time name="dav">    6.08    6.11</time>
   <time name="total">    7.09    7.15</time>
   <energy>
    <i name="e_fr_energy">   -658.24265458 </i>
    <i name="e_wo_entrp">   -658.06324365 </i>
    <i name="e_0_energy">   -658.15294912 </i>
   </energy>
  </scstep>
  <scstep>
   <time name="dav">    6.02    6.05</time>
   <time name="total">    7.03    7.08</time>
   <energy>
    <i name="e_fr_energy">   -658.22874674 </i>
    <i name="e_wo_entrp">   -658.07085854 </i>
    <i name="e_0_energy">   -658.14980264 </i>
   </energy>
  </scstep>
  <scstep>
   <time name="dav">    5.84    5.85</time>
   <time name="total">    6.84    6.88</time>
   <energy>
    <i name="e_fr_energy">   -658.23857477 </i>
    <i name="e_wo_entrp">   -658.06140020 </i>
    <i name="e_0_energy">   -658.14998749 </i>
   </energy>
  </scstep>
  <scstep>
   <time name="dav">    5.13    5.15</time>
   <time name="total">    6.15    6.18</time>
   <energy>
    <i name="e_fr_energy">   -658.22802572 </i>
    <i name="e_wo_entrp">   -658.06647010 </i>
    <i name="e_0_energy">   -658.14724791 </i>
   </energy>
  </scstep>
  <scstep>
   <time name="dav">    4.87    4.88</time>
   <time name="total">    5.88    5.93</time>
   <energy>
    <i name="e_fr_energy">   -658.23223744 </i>
    <i name="e_wo_entrp">   -658.05858460 </i>
    <i name="e_0_energy">   -658.14541102 </i>
   </energy>
  </scstep>
  <scstep>
   <time name="dav">    7.18    7.27</time>
   <time name="total">    8.19    8.29</time>
   <energy>
    <i name="e_fr_energy">   -658.39492194 </i>
    <i name="e_wo_entrp">   -658.19274295 </i>
    <i name="e_0_energy">   -658.29383244 </i>
   </energy>
  </scstep>
  <scstep>
   <time name="dav">    7.09    7.11</time>
   <time name="total">    8.11    8.13</time>
   <energy>
    <i name="e_fr_energy">   -658.37367373 </i>
    <i name="e_wo_entrp">   -658.14975578 </i>
    <i name="e_0_energy">   -658.26171476 </i>
   </energy>
  </scstep>
  <scstep>
   <time name="dav">    6.66    6.69</time>
   <time name="total">    7.68    7.71</time>
   <energy>
    <i name="e_fr_energy">   -658.45853768 </i>
    <i name="e_wo_entrp">   -658.23939683 </i>
    <i name="e_0_energy">   -658.34896725 </i>
   </energy>
  </scstep>
  <scstep>
   <time name="dav">    6.60    6.62</time>
   <time name="total">    7.62    7.64</time>
   <energy>
    <i name="e_fr_energy">   -658.35917900 </i>
    <i name="e_wo_entrp">   -658.15023025 </i>
    <i name="e_0_energy">   -658.25470463 </i>
   </energy>
  </scstep>
  <scstep>
   <time name="dav">    7.21    7.29</time>
   <time name="total">    8.23    8.31</time>
   <energy>
    <i name="e_fr_energy">   -658.23524545 </i>
    <i name="e_wo_entrp">   -658.05520495 </i>
    <i name="e_0_energy">   -658.14522520 </i>
   </energy>
  </scstep>
  <scstep>
   <time name="dav">    6.83    6.85</time>
   <time name="total">    7.88    7.90</time>
   <energy>
    <i name="e_fr_energy">   -659.85507644 </i>
    <i name="e_wo_entrp">   -659.71309445 </i>
    <i name="e_0_energy">   -659.78408544 </i>
   </energy>
  </scstep>
  <scstep>
   <time name="dav">    6.91    6.93</time>
   <time name="total">    7.96    7.98</time>
   <energy>
    <i name="e_fr_energy">   -659.42214577 </i>
    <i name="e_wo_entrp">   -659.24734130 </i>
    <i name="e_0_energy">   -659.33474353 </i>
   </energy>
  </scstep>
  <scstep>
   <time name="dav">    6.77    6.79</time>
   <time name="total">    7.81    7.84</time>
   <energy>
    <i name="e_fr_energy">   -658.36706588 </i>
    <i name="e_wo_entrp">   -658.20213983 </i>
    <i name="e_0_energy">   -658.28460286 </i>
   </energy>
  </scstep>
  <scstep>
   <time name="dav">    7.31    7.34</time>
   <time name="total">    8.35    8.39</time>
   <energy>
    <i name="e_fr_energy">   -658.24455966 </i>
    <i name="e_wo_entrp">   -658.03777252 </i>
    <i name="e_0_energy">   -658.14116609 </i>
   </energy>
  </scstep>
  <scstep>
   <time name="dav">    6.75    6.77</time>
   <time name="total">    7.80    7.86</time>
   <energy>
    <i name="e_fr_energy">   -658.49533799 </i>
    <i name="e_wo_entrp">   -658.30089307 </i>
    <i name="e_0_energy">   -658.39811553 </i>
   </energy>
  </scstep>
  <scstep>
   <time name="dav">    6.94    6.96</time>
   <time name="total">    7.99    8.01</time>
   <energy>
    <i name="e_fr_energy">   -658.28042123 </i>
    <i name="e_wo_entrp">   -658.07757096 </i>
    <i name="e_0_energy">   -658.17899610 </i>
   </energy>
  </scstep>
  <scstep>
   <time name="dav">    7.11    7.15</time>
   <time name="total">    8.16    8.20</time>
   <energy>
    <i name="e_fr_energy">   -658.20588665 </i>
    <i name="e_wo_entrp">   -658.01749608 </i>
    <i name="e_0_energy">   -658.11169137 </i>
   </energy>
  </scstep>
  <scstep>
   <time name="dav">    6.18    6.20</time>
   <time name="total">    7.23    7.25</time>
   <energy>
    <i name="e_fr_energy">   -658.26548897 </i>
    <i name="e_wo_entrp">   -658.07812282 </i>
    <i name="e_0_energy">   -658.17180589 </i>
   </energy>
  </scstep>
  <scstep>
   <time name="dav">    6.08    6.10</time>
   <time name="total">    7.12    7.15</time>
   <energy>
    <i name="e_fr_energy">   -658.26949451 </i>
    <i name="e_wo_entrp">   -658.06763540 </i>
    <i name="e_0_energy">   -658.16856495 </i>
   </energy>
  </scstep>
  <scstep>
   <time name="dav">    4.47    4.48</time>
   <time name="total">    5.51    5.53</time>
   <energy>
    <i name="e_fr_energy">   -658.27378199 </i>
    <i name="e_wo_entrp">   -658.07967006 </i>
    <i name="e_0_energy">   -658.17672602 </i>
   </energy>
  </scstep>
  <scstep>
   <time name="dav">    5.73    5.75</time>
   <time name="total">    6.77    6.79</time>
   <energy>
    <i name="e_fr_energy">   -658.29834397 </i>
    <i name="e_wo_entrp">   -658.10016093 </i>
    <i name="e_0_energy">   -658.19925245 </i>
   </energy>
  </scstep>
  <scstep>
   <time name="dav">    4.79    4.81</time>
   <time name="total">    5.84    5.86</time>
   <energy>
    <i name="e_fr_energy">   -658.30004534 </i>
    <i name="e_wo_entrp">   -658.10517828 </i>
    <i name="e_0_energy">   -658.20261181 </i>
   </energy>
  </scstep>
  <scstep>
   <time name="dav">    4.62    4.63</time>
   <time name="total">    5.67    5.68</time>
   <energy>
    <i name="e_fr_energy">   -658.31336637 </i>
    <i name="e_wo_entrp">   -658.11858227 </i>
    <i name="e_0_energy">   -658.21597432 </i>
   </energy>
  </scstep>
  <scstep>
   <time name="dav">    4.46    4.47</time>
   <time name="total">    5.50    5.52</time>
   <energy>
    <i name="e_fr_energy">   -658.31838513 </i>
    <i name="e_wo_entrp">   -658.12337053 </i>
    <i name="e_0_energy">   -658.22087783 </i>
   </energy>
  </scstep>
  <scstep>
   <time name="dav">    3.86    3.87</time>
   <time name="total">    4.91    4.92</time>
   <energy>
    <i name="e_fr_energy">   -658.31812385 </i>
    <i name="e_wo_entrp">   -658.12310755 </i>
    <i name="e_0_energy">   -658.22061570 </i>
   </energy>
  </scstep>
  <scstep>
   <time name="dav">    5.67    5.69</time>
   <time name="total">    6.72    6.74</time>
   <energy>
    <i name="e_fr_energy">   -658.28164275 </i>
    <i name="e_wo_entrp">   -658.08744107 </i>
    <i name="e_0_energy">   -658.18454191 </i>
   </energy>
  </scstep>
  <scstep>
   <time name="dav">    5.04    5.07</time>
   <time name="total">    6.09    6.12</time>
   <energy>
    <i name="e_fr_energy">   -658.27853114 </i>
    <i name="e_wo_entrp">   -658.08518400 </i>
    <i name="e_0_energy">   -658.18185757 </i>
   </energy>
  </scstep>
  <scstep>
   <time name="dav">    4.63    4.64</time>
   <time name="total">    5.67    5.72</time>
   <energy>
    <i name="e_fr_energy">   -658.26142111 </i>
    <i name="e_wo_entrp">   -658.06512742 </i>
    <i name="e_0_energy">   -658.16327426 </i>
   </energy>
  </scstep>
  <scstep>
   <time name="dav">    5.13    5.15</time>
   <time name="total">    6.18    6.20</time>
   <energy>
    <i name="e_fr_energy">   -658.23993832 </i>
    <i name="e_wo_entrp">   -658.04431517 </i>
    <i name="e_0_energy">   -658.14212674 </i>
   </energy>
  </scstep>
  <scstep>
   <time name="dav">    5.05    5.06</time>
   <time name="total">    6.10    6.11</time>
   <energy>
    <i name="e_fr_energy">   -658.22627568 </i>
    <i name="e_wo_entrp">   -658.02934580 </i>
    <i name="e_0_energy">   -658.12781074 </i>
   </energy>
  </scstep>
  <scstep>
   <time name="dav">    5.92    5.94</time>
   <time name="total">    6.96    6.98</time>
   <energy>
    <i name="e_fr_energy">   -658.18004228 </i>
    <i name="e_wo_entrp">   -658.00047841 </i>
    <i name="e_0_energy">   -658.09026035 </i>
   </energy>
  </scstep>
  <scstep>
   <time name="dav">    5.99    6.01</time>
   <time name="total">    7.03    7.06</time>
   <energy>
    <i name="e_fr_energy">   -658.17645213 </i>
    <i name="e_wo_entrp">   -657.98658757 </i>
    <i name="e_0_energy">   -658.08151985 </i>
   </energy>
  </scstep>
  <scstep>
   <time name="dav">    4.70    4.71</time>
   <time name="total">    5.74    5.76</time>
   <energy>
    <i name="e_fr_energy">   -658.16972088 </i>
    <i name="e_wo_entrp">   -657.98745564 </i>
    <i name="e_0_energy">   -658.07858826 </i>
   </energy>
  </scstep>
  <scstep>
   <time name="dav">    4.88    4.90</time>
   <time name="total">    5.93    5.95</time>
   <energy>
    <i name="e_fr_energy">   -658.16260642 </i>
    <i name="e_wo_entrp">   -657.98096047 </i>
    <i name="e_0_energy">   -658.07178344 </i>
   </energy>
  </scstep>
  <scstep>
   <time name="dav">    4.79    4.81</time>
   <time name="total">    5.83    5.85</time>
   <energy>
    <i name="e_fr_energy">   -658.15729701 </i>
    <i name="e_wo_entrp">   -657.98100436 </i>
    <i name="e_0_energy">   -658.06915068 </i>
   </energy>
  </scstep>
  <scstep>
   <time name="dav">    4.98    4.99</time>
   <time name="total">    6.04    6.07</time>
   <energy>
    <i name="e_fr_energy">   -658.15005860 </i>
    <i name="e_wo_entrp">   -657.98243543 </i>
    <i name="e_0_energy">   -658.06624701 </i>
   </energy>
  </scstep>
  <scstep>
   <time name="dav">    4.51    4.52</time>
   <time name="total">    5.57    5.60</time>
   <energy>
    <i name="e_fr_energy">   -658.14751943 </i>
    <i name="e_wo_entrp">   -657.98164708 </i>
    <i name="e_0_energy">   -658.06458326 </i>
   </energy>
  </scstep>
  <scstep>
   <time name="dav">    4.12    4.13</time>
   <time name="total">    5.16    5.18</time>
   <energy>
    <i name="e_fr_energy">   -658.14675955 </i>
    <i name="e_wo_entrp">   -657.98176696 </i>
    <i name="e_0_energy">   -658.06426326 </i>
   </energy>
  </scstep>
  <scstep>
   <time name="dav">    4.03    4.04</time>
   <time name="total">    5.07    5.09</time>
   <energy>
    <i name="e_fr_energy">   -658.14620688 </i>
    <i name="e_wo_entrp">   -657.98249640 </i>
    <i name="e_0_energy">   -658.06435164 </i>
   </energy>
  </scstep>
  <scstep>
   <time name="dav">    4.03    4.07</time>
   <time name="total">    5.07    5.12</time>
   <energy>
    <i name="e_fr_energy">   -658.14463906 </i>
    <i name="e_wo_entrp">   -657.98324417 </i>
    <i name="e_0_energy">   -658.06394161 </i>
   </energy>
  </scstep>
  <scstep>
   <time name="dav">    4.11    4.12</time>
   <time name="total">    5.16    5.17</time>
   <energy>
    <i name="e_fr_energy">   -658.14427454 </i>
    <i name="e_wo_entrp">   -657.98234527 </i>
    <i name="e_0_energy">   -658.06330991 </i>
   </energy>
  </scstep>
  <scstep>
   <time name="dav">    4.03    4.04</time>
   <time name="total">    5.06    5.08</time>
   <energy>
    <i name="e_fr_energy">   -658.14232014 </i>
    <i name="e_wo_entrp">   -657.98449383 </i>
    <i name="e_0_energy">   -658.06340698 </i>
   </energy>
  </scstep>
  <scstep>
   <time name="dav">    4.29    4.30</time>
   <time name="total">    5.33    5.35</time>
   <energy>
    <i name="e_fr_energy">   -658.14067488 </i>
    <i name="e_wo_entrp">   -657.98468667 </i>
    <i name="e_0_energy">   -658.06268078 </i>
   </energy>
  </scstep>
  <scstep>
   <time name="dav">    4.63    4.64</time>
   <time name="total">    5.67    5.69</time>
   <energy>
    <i name="e_fr_energy">   -658.13883281 </i>
    <i name="e_wo_entrp">   -657.98689179 </i>
    <i name="e_0_energy">   -658.06286230 </i>
   </energy>
  </scstep>
  <scstep>
   <time name="dav">    4.29    4.30</time>
   <time name="total">    5.34    5.35</time>
   <energy>
    <i name="e_fr_energy">   -658.13722749 </i>
    <i name="e_wo_entrp">   -657.98785390 </i>
    <i name="e_0_energy">   -658.06254069 </i>
   </energy>
  </scstep>
  <scstep>
   <time name="dav">    4.54    4.55</time>
   <time name="total">    5.57    5.59</time>
   <energy>
    <i name="e_fr_energy">   -658.13595642 </i>
    <i name="e_wo_entrp">   -657.98957068 </i>
    <i name="e_0_energy">   -658.06276355 </i>
   </energy>
  </scstep>
  <scstep>
   <time name="dav">    4.31    4.32</time>
   <time name="total">    5.35    5.36</time>
   <energy>
    <i name="e_fr_energy">   -658.13563949 </i>
    <i name="e_wo_entrp">   -657.98871488 </i>
    <i name="e_0_energy">   -658.06217719 </i>
   </energy>
  </scstep>
  <scstep>
   <time name="dav">    4.02    4.04</time>
   <time name="total">    4.44    4.47</time>
   <energy>
    <i name="alphaZ">    562.39184220 </i>
    <i name="ewald">  37682.32558485 </i>
    <i name="hartreedc"> -57088.76644602 </i>
    <i name="XCdc">   -700.39651400 </i>
    <i name="pawpsdc">  42711.02734237 </i>
    <i name="pawaedc"> -40878.74585660 </i>
    <i name="eentropy">     -0.14569472 </i>
    <i name="bandstr">  -3326.41519816 </i>
    <i name="atom">  20380.58938199 </i>
    <i name="e_fr_energy">   -658.13555809 </i>
    <i name="e_wo_entrp">   -657.98986337 </i>
    <i name="e_0_energy">   -658.06271073 </i>
   </energy>
  </scstep>
  <structure>
   <crystal>
    <varray name="basis" >
     <v>       9.57094646       0.00000000       0.00000000 </v>
     <v>      -6.38062803      11.05157872       0.00000000 </v>
     <v>       0.00000000       0.00000000      34.88026251 </v>
    </varray>
    <i name="volume">   3689.42726549 </i>
    <varray name="rec_basis" >
     <v>       0.10448287       0.06032318       0.00000000 </v>
     <v>       0.00000000       0.09048481       0.00000000 </v>
     <v>       0.00000000       0.00000000       0.02866951 </v>
    </varray>
   </crystal>
   <varray name="positions" >
    <v>       0.94318622       0.94229948       0.47031807 </v>
    <v>       0.05752077       0.98030315       0.50067588 </v>
    <v>       0.89730339       0.03186211       0.46494200 </v>
    <v>       0.98477802       0.12741353       0.49227735 </v>
    <v>       0.08439832       0.09465812       0.51456746 </v>
    <v>       0.71667218       0.82387905       0.56191867 </v>
    <v>       0.72301723       0.00720057       0.56975064 </v>
    <v>       0.79611154       0.93806825       0.58207223 </v>
    <v>       0.60018216       0.93656950       0.54259086 </v>
    <v>       0.59597029       0.82431492       0.53758029 </v>
    <v>       0.83753544       0.96873306       0.52304154 </v>
    <v>       0.16693833       0.14792508       0.53738042 </v>
    <v>       0.89066875       0.96548569       0.60347134 </v>
    <v>       0.52806796       0.96621659       0.52678445 </v>
    <v>       0.75700121       0.09823209       0.57903401 </v>
    <v>       0.74096022       0.74972149       0.56518747 </v>
    <v>       0.11082466       0.92913855       0.51226150 </v>
    <v>       0.89330532       0.85657860       0.45510180 </v>
    <v>       0.81050778       0.02783475       0.44401181 </v>
    <v>       0.98044155       0.21066807       0.49478632 </v>
    <v>       0.51757179       0.75278229       0.51786899 </v>
    <v>       0.55555566       0.08333325       0.25000928 </v>
    <v>       0.55555566       0.33333325       0.25000928 </v>
    <v>       0.44444432       0.41666674       0.74999076 </v>
    <v>       0.55555566       0.58333325       0.25000928 </v>
    <v>       0.44444432       0.66666674       0.74999076 </v>
    <v>       0.55555566       0.83333325       0.25000928 </v>
    <v>       0.44444432       0.91666674       0.74999076 </v>
    <v>       0.88888899       0.33333325       0.25000928 </v>
    <v>       0.77777765       0.16666674       0.74999076 </v>
    <v>       0.77777765       0.41666674       0.74999076 </v>
    <v>       0.88888899       0.58333325       0.25000928 </v>
    <v>       0.77777765       0.66666674       0.74999076 </v>
    <v>       0.88888899       0.83333325       0.25000928 </v>
    <v>       0.77777765       0.91666674       0.74999076 </v>
    <v>       0.11111099       0.91666674       0.74999076 </v>
    <v>       0.88888899       0.08333325       0.25000928 </v>
    <v>       0.22222233       0.83333325       0.25000928 </v>
    <v>       0.44444432       0.16666674       0.74999076 </v>
    <v>       0.22222233       0.58333325       0.25000928 </v>
    <v>       0.11111099       0.41666674       0.74999076 </v>
    <v>       0.22222233       0.33333325       0.25000928 </v>
    <v>       0.22222233       0.08333325       0.25000928 </v>
    <v>       0.11111099       0.16666674       0.74999076 </v>
    <v>       0.11111099       0.66666674       0.74999076 </v>
    <v>       0.77777765       0.16666674       0.29487388 </v>
    <v>       0.88888899       0.08333325       0.79485533 </v>
    <v>       0.77777765       0.16666674       0.20514467 </v>
    <v>       0.88888899       0.08333325       0.70512613 </v>
    <v>       0.22222233       0.08333325       0.70512613 </v>
    <v>       0.11111099       0.16666674       0.20514467 </v>
    <v>       0.77777765       0.41666674       0.29487388 </v>
    <v>       0.88888899       0.33333325       0.79485533 </v>
    <v>       0.11111099       0.66666674       0.20514467 </v>
    <v>       0.55555566       0.83333325       0.70512613 </v>
    <v>       0.88888899       0.33333325       0.70512613 </v>
    <v>       0.22222233       0.08333325       0.79485533 </v>
    <v>       0.11111099       0.16666674       0.29487388 </v>
    <v>       0.77777765       0.66666674       0.29487388 </v>
    <v>       0.88888899       0.58333325       0.79485533 </v>
    <v>       0.77777765       0.66666674       0.20514467 </v>
    <v>       0.88888899       0.58333325       0.70512613 </v>
    <v>       0.77777765       0.91666674       0.29487388 </v>
    <v>       0.88888899       0.83333325       0.79485533 </v>
    <v>       0.77777765       0.41666674       0.20514467 </v>
    <v>       0.44444432       0.91666674       0.20514467 </v>
    <v>       0.44444432       0.91666674       0.29487388 </v>
    <v>       0.22222233       0.58333325       0.70512613 </v>
    <v>       0.22222233       0.58333325       0.79485533 </v>
    <v>       0.11111099       0.91666674       0.29487388 </v>
    <v>       0.22222233       0.83333325       0.79485533 </v>
    <v>       0.11111099       0.91666674       0.20514467 </v>
    <v>       0.22222233       0.83333325       0.70512613 </v>
    <v>       0.11111099       0.66666674       0.29487388 </v>
    <v>       0.77777765       0.91666674       0.20514467 </v>
    <v>       0.44444432       0.16666674       0.29487388 </v>
    <v>       0.55555566       0.08333325       0.79485533 </v>
    <v>       0.44444432       0.16666674       0.20514467 </v>
    <v>       0.55555566       0.08333325       0.70512613 </v>
    <v>       0.44444432       0.41666674       0.29487388 </v>
    <v>       0.55555566       0.33333325       0.79485533 </v>
    <v>       0.44444432       0.41666674       0.20514467 </v>
    <v>       0.55555566       0.33333325       0.70512613 </v>
    <v>       0.22222233       0.33333325       0.70512613 </v>
    <v>       0.11111099       0.41666674       0.20514467 </v>
    <v>       0.44444432       0.66666674       0.29487388 </v>
    <v>       0.55555566       0.58333325       0.79485533 </v>
    <v>       0.44444432       0.66666674       0.20514467 </v>
    <v>       0.55555566       0.58333325       0.70512613 </v>
    <v>       0.22222233       0.33333325       0.79485533 </v>
    <v>       0.11111099       0.41666674       0.29487388 </v>
    <v>       0.55555566       0.83333325       0.79485533 </v>
    <v>       0.88888899       0.83333325       0.70512613 </v>
   </varray>
  </structure>
  <varray name="forces" >
   <v>       0.05479213       0.03627815      -0.07067646 </v>
   <v>       0.04534891       0.01170483      -0.06166815 </v>
   <v>       0.03019679       0.00744135      -0.07638177 </v>
   <v>       0.00942230       0.05076023      -0.03721794 </v>
   <v>       0.06208370       0.03264822      -0.00078089 </v>
   <v>      -0.01776369      -0.05139203       0.03633612 </v>
   <v>      -0.06697608      -0.01738110       0.04355450 </v>
   <v>      -0.01455032       0.00474379       0.07697805 </v>
   <v>      -0.04919272      -0.04035975       0.05571790 </v>
   <v>      -0.06686227      -0.02775203       0.04503501 </v>
   <v>       0.01713347       0.01356933       0.04049073 </v>
   <v>      -0.00047684      -0.00816261       0.01082216 </v>
   <v>       0.00660843       0.00717443       0.01939353 </v>
   <v>      -0.00710136      -0.00245278      -0.00543968 </v>
   <v>      -0.00229891       0.01212571       0.00653632 </v>
   <v>       0.00499564       0.00780192       0.00561359 </v>
   <v>       0.01047676      -0.01562749       0.00858258 </v>
   <v>      -0.00647835      -0.00607568      -0.00754356 </v>
   <v>      -0.00389754       0.00263823      -0.00418248 </v>
   <v>      -0.00040157      -0.00269349       0.00627504 </v>
   <v>       0.00656952       0.00026703      -0.00076688 </v>
   <v>       0.02095506       0.17628707       0.00255568 </v>
   <v>       0.02153052       0.17558609       0.00309892 </v>
   <v>      -0.01728023      -0.17588337      -0.00457130 </v>
   <v>       0.02156218       0.17514369       0.00283049 </v>
   <v>      -0.01757141      -0.17250392      -0.00569680 </v>
   <v>       0.02161446       0.17554000       0.00239274 </v>
   <v>      -0.01366979      -0.17735322      -0.00671299 </v>
   <v>       0.02372271       0.17670844       0.00362786 </v>
   <v>      -0.01450488      -0.17932506      -0.00735488 </v>
   <v>      -0.01317523      -0.17828836      -0.00626110 </v>
   <v>       0.02390799       0.17601332       0.00369683 </v>
   <v>      -0.01350465      -0.17988489      -0.00626918 </v>
   <v>       0.02467082       0.17657202       0.00375632 </v>
   <v>      -0.01756583      -0.18022528      -0.01050766 </v>
   <v>      -0.01932648      -0.17741259      -0.00263849 </v>
   <v>       0.02499707       0.17709243       0.00349463 </v>
   <v>       0.01486167       0.17768108       0.00324507 </v>
   <v>      -0.01488971      -0.17521738      -0.00501263 </v>
   <v>       0.01542830       0.17720831       0.00311752 </v>
   <v>      -0.02037200      -0.17587056      -0.00469565 </v>
   <v>       0.01567968       0.17681552       0.00326787 </v>
   <v>       0.01510255       0.17787587       0.00392661 </v>
   <v>      -0.02121983      -0.17592406      -0.00293171 </v>
   <v>      -0.01957806      -0.17622576      -0.00566853 </v>
   <v>      -0.01142281      -0.08901097      -0.20813209 </v>
   <v>       0.00878996       0.08801120      -0.19672587 </v>
   <v>      -0.01177202      -0.08875429       0.20696495 </v>
   <v>       0.00937375       0.08391047       0.18464860 </v>
   <v>       0.00767582       0.08662067       0.19420903 </v>
   <v>      -0.01099463      -0.08846058       0.20666381 </v>
   <v>      -0.01180917      -0.08916552      -0.20942805 </v>
   <v>       0.00854413       0.08792457      -0.19662212 </v>
   <v>      -0.01093403      -0.08835886       0.20709669 </v>
   <v>       0.01023173       0.08957710       0.18599156 </v>
   <v>       0.00891920       0.08805278       0.19665910 </v>
   <v>       0.00930190       0.08781984      -0.19705602 </v>
   <v>      -0.01098352      -0.08892802      -0.20779644 </v>
   <v>      -0.01179066      -0.08872775      -0.20923353 </v>
   <v>       0.00840266       0.08827590      -0.19639474 </v>
   <v>      -0.01184884      -0.08863496       0.20714348 </v>
   <v>       0.00856698       0.08918171       0.19728839 </v>
   <v>      -0.01151899      -0.08811146      -0.20719144 </v>
   <v>       0.00870965       0.08807851      -0.19651953 </v>
   <v>      -0.01167796      -0.08870808       0.20694582 </v>
   <v>      -0.01098472      -0.08857249       0.20708996 </v>
   <v>      -0.01096440      -0.08846899      -0.20915175 </v>
   <v>       0.01035352       0.09031840       0.19664754 </v>
   <v>       0.00938661       0.08813559      -0.19639361 </v>
   <v>      -0.01122060      -0.08849369      -0.20856480 </v>
   <v>       0.00917668       0.08801903      -0.19616376 </v>
   <v>      -0.01081860      -0.08866252       0.20692935 </v>
   <v>       0.01091302       0.08811701       0.19493672 </v>
   <v>      -0.01111904      -0.08876999      -0.20969275 </v>
   <v>      -0.01175577      -0.08867416       0.20702080 </v>
   <v>      -0.01123631      -0.08880816      -0.20889512 </v>
   <v>       0.00868068       0.08829922      -0.19653449 </v>
   <v>      -0.01079128      -0.08872514       0.20677241 </v>
   <v>       0.01073713       0.08682736       0.19313707 </v>
   <v>      -0.01116521      -0.08929302      -0.20933927 </v>
   <v>       0.00875580       0.08811837      -0.19635713 </v>
   <v>      -0.01108012      -0.08847861       0.20695373 </v>
   <v>       0.00904304       0.08899701       0.19772958 </v>
   <v>       0.00908947       0.08896081       0.19707071 </v>
   <v>      -0.01085525      -0.08854690       0.20690585 </v>
   <v>      -0.01077376      -0.08911555      -0.20944249 </v>
   <v>       0.00914711       0.08832759      -0.19634370 </v>
   <v>      -0.01083075      -0.08867487       0.20706060 </v>
   <v>       0.00812411       0.09070168       0.19455566 </v>
   <v>       0.00953845       0.08818977      -0.19683768 </v>
   <v>      -0.01071238      -0.08930791      -0.20918790 </v>
   <v>       0.00879864       0.08835573      -0.19544207 </v>
   <v>       0.00579784       0.09096655       0.18565762 </v>
  </varray>
  <varray name="stress" >
   <v>       0.44621765       0.24354137      -0.42937872 </v>
   <v>       0.24354143      -7.48482340      -0.26663909 </v>
   <v>      -0.42937876      -0.26663906      -7.21124341 </v>
  </varray>
  <energy>
   <i name="e_fr_energy">   -673.03335547 </i>
   <i name="e_wo_entrp">   -672.96050811 </i>
   <i name="e_0_energy">     -0.14569472 </i>
  </energy>
  <time name="totalsc">  784.80  789.14</time>
 </calculation>
[...]
       <r>   -17.3487     0.0000     4.0000 </r>
       <r>   -17.2767     0.0000     4.0000 </r>
       <r>   -17.2046     0.0000     4.0000 </r>
       <r>   -17.1325     0.0000     4.0000 </r>
       <r>   -17.0605     0.0000     4.0000 </r>
       <r>   -16.9884     0.0000     4.0000 </r>
       <r>   -16.9164     0.0000     4.0000 </r>
       <r>   -16.8443     0.0000     4.0000 </r>
       <r>   -16.7723     0.0000     4.0000 </r>
       <r>   -16.7002     0.0000     4.0000 </r>
       <r>   -16.6281     0.0000     4.0000 </r>
       <r>   -16.5561     0.0000     4.0000 </r>
       <r>   -16.4840     0.0000     4.0000 </r>
       <r>   -16.4120     0.0000     4.0000 </r>
       <r>   -16.3399     0.0000     4.0000 </r>
       <r>   -16.2678     0.0000     4.0000 </r>
       <r>   -16.1958     0.0000     4.0000 </r>
       <r>   -16.1237     0.0000     4.0000 </r>
       <r>   -16.0517     0.0045     4.0003 </r>
       <r>   -15.9796     0.1617     4.0120 </r>
       <r>   -15.9075     2.1558     4.1673 </r>
       <r>   -15.8355    10.9134     4.9537 </r>
       <r>   -15.7634    21.2151     6.4825 </r>
       <r>   -15.6914    15.9250     7.6300 </r>
       <r>   -15.6193     4.6045     7.9618 </r>
       <r>   -15.5472     0.5080     7.9985 </r>
       <r>   -15.4752     0.0211     8.0000 </r>
       <r>   -15.4031     0.0003     8.0000 </r>
       <r>   -15.3311     0.0002     8.0000 </r>
       <r>   -15.2590     0.0168     8.0012 </r>
       <r>   -15.1869     0.5146     8.0383 </r>
       <r>   -15.1149     5.9013     8.4636 </r>
       <r>   -15.0428    25.7468    10.3189 </r>
       <r>   -14.9708    43.2101    13.4326 </r>
       <r>   -14.8987    28.5197    15.4877 </r>
       <r>   -14.8266    13.0407    16.4274 </r>
       <r>   -14.7546    26.9812    18.3717 </r>
       <r>   -14.6825    46.9972    21.7583 </r>
       <r>   -14.6105    51.5635    25.4739 </r>
       <r>   -14.5384    65.5357    30.1964 </r>
       <r>   -14.4663    56.6594    34.2793 </r>
       <r>   -14.3943    20.9155    35.7864 </r>
       <r>   -14.3222     5.5287    36.1848 </r>
       <r>   -14.2502    16.8355    37.3980 </r>
       <r>   -14.1781    46.0204    40.7142 </r>
       <r>   -14.1060    78.3461    46.3598 </r>
       <r>   -14.0340   126.1700    55.4516 </r>
       <r>   -13.9619   140.7857    65.5966 </r>
       <r>   -13.8899    94.7962    72.4276 </r>
       <r>   -13.8178    88.9807    78.8395 </r>
       <r>   -13.7457   128.3274    88.0867 </r>
       <r>   -13.6737   132.3423    97.6233 </r>
       <r>   -13.6016    90.5446   104.1479 </r>
       <r>   -13.5296    41.7861   107.1590 </r>
       <r>   -13.4575    10.4818   107.9143 </r>
       <r>   -13.3854     1.1400   107.9965 </r>
       <r>   -13.3134     0.0485   107.9999 </r>
       <r>   -13.2413     0.0008   108.0000 </r>
       <r>   -13.1693     0.0000   108.0000 </r>
       <r>   -13.0972     0.0000   108.0000 </r>
       <r>   -13.0251     0.0000   108.0000 </r>
       <r>   -12.9531     0.0000   108.0000 </r>
       <r>   -12.8810     0.0000   108.0000 </r>
       <r>   -12.8090     0.0000   108.0000 </r>
       <r>   -12.7369     0.0000   108.0000 </r>
       <r>   -12.6648     0.0000   108.0000 </r>
       <r>   -12.5928     0.0000   108.0000 </r>
       <r>   -12.5207     0.0000   108.0000 </r>
       <r>   -12.4487     0.0000   108.0000 </r>
       <r>   -12.3766     0.0000   108.0000 </r>
       <r>   -12.3045     0.0000   108.0000 </r>
       <r>   -12.2325     0.0000   108.0000 </r>
       <r>   -12.1604     0.0000   108.0000 </r>
       <r>   -12.0884     0.0000   108.0000 </r>
       <r>   -12.0163     0.0000   108.0000 </r>
       <r>   -11.9442     0.0000   108.0000 </r>
       <r>   -11.8722     0.0000   108.0000 </r>
       <r>   -11.8001     0.0000   108.0000 </r>
       <r>   -11.7281     0.0000   108.0000 </r>
       <r>   -11.6560     0.0000   108.0000 </r>
       <r>   -11.5839     0.0000   108.0000 </r>
       <r>   -11.5119     0.0000   108.0000 </r>
       <r>   -11.4398     0.0000   108.0000 </r>
       <r>   -11.3678     0.0000   108.0000 </r>
       <r>   -11.2957     0.0000   108.0000 </r>
       <r>   -11.2237     0.0000   108.0000 </r>
       <r>   -11.1516     0.0000   108.0000 </r>
       <r>   -11.0795     0.0000   108.0000 </r>
       <r>   -11.0075     0.0000   108.0000 </r>
       <r>   -10.9354     0.0000   108.0000 </r>
       <r>   -10.8634     0.0000   108.0000 </r>
       <r>   -10.7913     0.0000   108.0000 </r>
       <r>   -10.7192     0.0000   108.0000 </r>
       <r>   -10.6472     0.0000   108.0000 </r>
       <r>   -10.5751     0.0000   108.0000 </r>
       <r>   -10.5031     0.0000   108.0000 </r>
       <r>   -10.4310     0.0000   108.0000 </r>
       <r>   -10.3589     0.0000   108.0000 </r>
       <r>   -10.2869     0.0000   108.0000 </r>
       <r>   -10.2148     0.0000   108.0000 </r>
       <r>   -10.1428     0.0000   108.0000 </r>
       <r>   -10.0707     0.0000   108.0000 </r>
       <r>    -9.9986     0.0000   108.0000 </r>
       <r>    -9.9266     0.0001   108.0000 </r>
       <r>    -9.8545     0.0046   108.0003 </r>
       <r>    -9.7825     0.1513   108.0112 </r>
       <r>    -9.7104     1.9227   108.1498 </r>
       <r>    -9.6383     9.8348   108.8585 </r>
       <r>    -9.5663    21.8038   110.4297 </r>
       <r>    -9.4942    26.7822   112.3596 </r>
       <r>    -9.4222    27.7347   114.3581 </r>
       <r>    -9.3501    24.1412   116.0977 </r>
       <r>    -9.2780    16.4805   117.2853 </r>
       <r>    -9.2060     8.2992   117.8834 </r>
       <r>    -9.1339     4.9720   118.2416 </r>
       <r>    -9.0619     9.1993   118.9045 </r>
       <r>    -8.9898    10.0916   119.6317 </r>
       <r>    -8.9177     4.3472   119.9450 </r>
       <r>    -8.8457     0.7175   119.9967 </r>
       <r>    -8.7736     0.0448   119.9999 </r>
       <r>    -8.7016     0.0010   120.0000 </r>
       <r>    -8.6295     0.0000   120.0000 </r>
       <r>    -8.5574     0.0000   120.0000 </r>
       <r>    -8.4854     0.0000   120.0000 </r>
       <r>    -8.4133     0.0000   120.0000 </r>
       <r>    -8.3413     0.0000   120.0000 </r>
       <r>    -8.2692     0.0000   120.0000 </r>
       <r>    -8.1971     0.0000   120.0000 </r>
       <r>    -8.1251     0.0000   120.0000 </r>
       <r>    -8.0530     0.0000   120.0000 </r>
       <r>    -7.9810     0.0000   120.0000 </r>
       <r>    -7.9089     0.0000   120.0000 </r>
       <r>    -7.8368     0.0000   120.0000 </r>
       <r>    -7.7648     0.0001   120.0000 </r>
       <r>    -7.6927     0.0112   120.0008 </r>
       <r>    -7.6207     0.3177   120.0237 </r>
       <r>    -7.5486     3.4007   120.2688 </r>
       <r>    -7.4765    14.0397   121.2805 </r>
       <r>    -7.4045    24.3866   123.0378 </r>
       <r>    -7.3324    25.5454   124.8785 </r>
       <r>    -7.2604    24.6085   126.6518 </r>
       <r>    -7.1883    15.1559   127.7440 </r>
       <r>    -7.1162    10.5073   128.5011 </r>
       <r>    -7.0442    39.0424   131.3145 </r>
       <r>    -6.9721    98.7133   138.4277 </r>
       <r>    -6.9001   116.2096   146.8018 </r>
       <r>    -6.8280    72.5686   152.0311 </r>
       <r>    -6.7559    73.4665   157.3250 </r>
       <r>    -6.6839   126.0875   166.4109 </r>
       <r>    -6.6118   130.1015   175.7859 </r>
       <r>    -6.5398    89.6137   182.2435 </r>
       <r>    -6.4677    52.4830   186.0254 </r>
       <r>    -6.3956    25.7551   187.8813 </r>
       <r>    -6.3236    14.6834   188.9394 </r>
       <r>    -6.2515    10.3701   189.6867 </r>
       <r>    -6.1795     5.5473   190.0864 </r>
       <r>    -6.1074     9.9648   190.8045 </r>
       <r>    -6.0353    21.3781   192.3450 </r>
       <r>    -5.9633    28.1386   194.3726 </r>
       <r>    -5.8912    49.5115   197.9404 </r>
       <r>    -5.8192    76.8944   203.4814 </r>
       <r>    -5.7471    65.7716   208.2209 </r>
       <r>    -5.6751    61.4926   212.6520 </r>
       <r>    -5.6030   143.5906   222.9991 </r>
       <r>    -5.5309   238.8146   240.2080 </r>
       <r>    -5.4589   192.2199   254.0594 </r>
       <r>    -5.3868    90.8628   260.6069 </r>
       <r>    -5.3148    60.2601   264.9492 </r>
       <r>    -5.2427    67.5348   269.8158 </r>
       <r>    -5.1706    55.9350   273.8464 </r>
       <r>    -5.0986    25.6752   275.6966 </r>
       <r>    -5.0265    19.9189   277.1319 </r>
       <r>    -4.9545    63.0435   281.6749 </r>
       <r>    -4.8824   108.1141   289.4655 </r>
       <r>    -4.8103    89.3472   295.9039 </r>
       <r>    -4.7383    71.6562   301.0674 </r>
       <r>    -4.6662    81.8180   306.9632 </r>
       <r>    -4.5942    81.3138   312.8226 </r>
       <r>    -4.5221    63.2640   317.3814 </r>
       <r>    -4.4500    35.4654   319.9370 </r>
       <r>    -4.3780    33.1833   322.3282 </r>
       <r>    -4.3059    55.3243   326.3149 </r>
       <r>    -4.2339    65.0757   331.0042 </r>
       <r>    -4.1618    59.9181   335.3219 </r>
       <r>    -4.0897    54.3778   339.2403 </r>
       <r>    -4.0177    44.1180   342.4195 </r>
       <r>    -3.9456    18.5627   343.7571 </r>
       <r>    -3.8736     3.3070   343.9954 </r>
       <r>    -3.8015     2.6699   344.1878 </r>
       <r>    -3.7294    16.2122   345.3560 </r>
       <r>    -3.6574    44.6690   348.5749 </r>
       <r>    -3.5853    71.7579   353.7457 </r>
       <r>    -3.5133   111.8202   361.8035 </r>
       <r>    -3.4412   147.8439   372.4571 </r>
       <r>    -3.3691   134.2266   382.1294 </r>
       <r>    -3.2971   103.4036   389.5806 </r>
       <r>    -3.2250    83.6540   395.6087 </r>
       <r>    -3.1530    69.8100   400.6392 </r>
       <r>    -3.0809    83.0821   406.6261 </r>
       <r>    -3.0088   109.9198   414.5469 </r>
       <r>    -2.9368    98.1810   421.6218 </r>
       <r>    -2.8647    55.9372   425.6526 </r>
       <r>    -2.7927    34.6175   428.1471 </r>
       <r>    -2.7206    46.6495   431.5087 </r>
       <r>    -2.6485    73.8569   436.8308 </r>
       <r>    -2.5765    77.3466   442.4043 </r>
       <r>    -2.5044    58.8410   446.6444 </r>
       <r>    -2.4324    50.0279   450.2494 </r>
       <r>    -2.3603    73.3000   455.5314 </r>
       <r>    -2.2882    81.7649   461.4234 </r>
       <r>    -2.2162    66.0970   466.1863 </r>
       <r>    -2.1441    50.8406   469.8498 </r>
       <r>    -2.0721    25.0281   471.6534 </r>
       <r>    -2.0000    11.7746   472.5018 </r>
       <r>    -1.9279    27.9201   474.5137 </r>
       <r>    -1.8559    43.6333   477.6580 </r>
       <r>    -1.7838    30.1758   479.8324 </r>
       <r>    -1.7118    20.9570   481.3426 </r>
       <r>    -1.6397    22.0323   482.9302 </r>
       <r>    -1.5676    12.0417   483.7979 </r>
       <r>    -1.4956     2.5862   483.9843 </r>
       <r>    -1.4235     0.2115   483.9995 </r>
       <r>    -1.3515     0.0065   484.0000 </r>
       <r>    -1.2794     0.0001   484.0000 </r>
       <r>    -1.2073     0.0000   484.0000 </r>
       <r>    -1.1353     0.0000   484.0000 </r>
       <r>    -1.0632     0.0000   484.0000 </r>
       <r>    -0.9912     0.0000   484.0000 </r>
       <r>    -0.9191     0.0000   484.0000 </r>
       <r>    -0.8470     0.0000   484.0000 </r>
       <r>    -0.7750     0.0000   484.0000 </r>
       <r>    -0.7029     0.0000   484.0000 </r>
       <r>    -0.6309     0.0000   484.0000 </r>
       <r>    -0.5588     0.0000   484.0000 </r>
       <r>    -0.4867     0.0006   484.0000 </r>
       <r>    -0.4147     0.0298   484.0022 </r>
       <r>    -0.3426     0.5377   484.0409 </r>
       <r>    -0.2706     3.6709   484.3055 </r>
       <r>    -0.1985     9.6579   485.0014 </r>
       <r>    -0.1265    10.9094   485.7875 </r>
       <r>    -0.0544    11.5075   486.6168 </r>
       <r>     0.0177    20.8770   488.1211 </r>
       <r>     0.0897    30.9257   490.3496 </r>
       <r>     0.1618    43.6878   493.4978 </r>
       <r>     0.2338    45.3755   496.7675 </r>
       <r>     0.3059    38.9988   499.5778 </r>
       <r>     0.3780    63.6862   504.1670 </r>
       <r>     0.4500   120.5253   512.8520 </r>
       <r>     0.5221   168.8379   525.0184 </r>
       <r>     0.5941   150.7441   535.8810 </r>
       <r>     0.6662   134.1579   545.5484 </r>
       <r>     0.7383   110.0312   553.4772 </r>
       <r>     0.8103    50.9596   557.1493 </r>
       <r>     0.8824    16.1394   558.3123 </r>
       <r>     0.9544    30.5858   560.5163 </r>
       <r>     1.0265    78.9171   566.2031 </r>
       <r>     1.0986   112.8812   574.3373 </r>
       <r>     1.1706   112.5099   582.4447 </r>
       <r>     1.2427   103.3870   589.8947 </r>
       <r>     1.3147    84.1712   595.9601 </r>
       <r>     1.3868    43.4108   599.0883 </r>
       <r>     1.4589    11.2576   599.8995 </r>
       <r>     1.5309     1.3269   599.9951 </r>
       <r>     1.6030     0.0667   599.9999 </r>
       <r>     1.6750     0.0014   600.0000 </r>
       <r>     1.7471     0.0000   600.0000 </r>
       <r>     1.8192     0.0000   600.0000 </r>
       <r>     1.8912     0.0000   600.0000 </r>
       <r>     1.9633     0.0000   600.0000 </r>
       <r>     2.0353     0.0000   600.0000 </r>
       <r>     2.1074     0.0000   600.0000 </r>
       <r>     2.1795     0.0000   600.0000 </r>
       <r>     2.2515     0.0000   600.0000 </r>
       <r>     2.3236     0.0000   600.0000 </r>
      </set>
     </set>
    </array>
   </total>
  </dos>
 </calculation>
 <structure name="finalpos" >
  <crystal>
   <varray name="basis" >
    <v>       9.57094646       0.00000000       0.00000000 </v>
    <v>      -6.38062803      11.05157872       0.00000000 </v>
    <v>       0.00000000       0.00000000      34.88026251 </v>
   </varray>
   <i name="volume">   3689.42726549 </i>
   <varray name="rec_basis" >
    <v>       0.10448287       0.06032318       0.00000000 </v>
    <v>       0.00000000       0.09048481       0.00000000 </v>
    <v>       0.00000000       0.00000000       0.02866951 </v>
   </varray>
  </crystal>
  <varray name="positions" >
   <v>       0.94317656       0.94269712       0.47014443 </v>
   <v>       0.05590690       0.97898219       0.50084360 </v>
   <v>       0.89871371       0.03283745       0.46490288 </v>
   <v>       0.98530355       0.12731905       0.49249831 </v>
   <v>       0.08349962       0.09350943       0.51497837 </v>
   <v>       0.71800252       0.82471361       0.56251394 </v>
   <v>       0.72160072       0.00691793       0.57031376 </v>
   <v>       0.79573767       0.93882389       0.58271660 </v>
   <v>       0.59987907       0.93618767       0.54301965 </v>
   <v>       0.59707386       0.82442160       0.53798346 </v>
   <v>       0.83772313       0.96834975       0.52341093 </v>
   <v>       0.16616127       0.14638732       0.53781272 </v>
   <v>       0.89006691       0.96684542       0.60421384 </v>
   <v>       0.52744865       0.96537868       0.52714344 </v>
   <v>       0.75528145       0.09803004       0.57944967 </v>
   <v>       0.74275262       0.75089656       0.56604923 </v>
   <v>       0.10908259       0.92742335       0.51217182 </v>
   <v>       0.89308306       0.85746100       0.45464404 </v>
   <v>       0.81227327       0.02947766       0.44399444 </v>
   <v>       0.98096481       0.21052616       0.49517397 </v>
   <v>       0.51904917       0.75260146       0.51832567 </v>
   <v>       0.55585494       0.08383251       0.25006975 </v>
   <v>       0.55584966       0.33382400       0.25006396 </v>
   <v>       0.44415651       0.41616929       0.74976890 </v>
   <v>       0.55584983       0.58382255       0.25006465 </v>
   <v>       0.44419040       0.66620160       0.74974259 </v>
   <v>       0.55585827       0.83382986       0.25007094 </v>
   <v>       0.44419128       0.91614623       0.74971398 </v>
   <v>       0.88919604       0.33384643       0.25006087 </v>
   <v>       0.77749163       0.16613785       0.74972742 </v>
   <v>       0.77749376       0.41615695       0.74977973 </v>
   <v>       0.88919268       0.58384237       0.25005957 </v>
   <v>       0.77748566       0.66616677       0.74974715 </v>
   <v>       0.88920533       0.83384874       0.25006864 </v>
   <v>       0.77745147       0.91614142       0.74969595 </v>
   <v>       0.11079553       0.91615497       0.74974165 </v>
   <v>       0.88921448       0.08385118       0.25006881 </v>
   <v>       0.22250959       0.83385339       0.25006937 </v>
   <v>       0.44416811       0.16614349       0.74973975 </v>
   <v>       0.22250824       0.58384663       0.25006303 </v>
   <v>       0.11082522       0.41618625       0.74978692 </v>
   <v>       0.22250587       0.33384139       0.25006436 </v>
   <v>       0.22250894       0.08385239       0.25007137 </v>
   <v>       0.11078641       0.16615797       0.74974990 </v>
   <v>       0.11082351       0.66617854       0.74977717 </v>
   <v>       0.77748047       0.16639709       0.29463473 </v>
   <v>       0.88911499       0.08353493       0.79429928 </v>
   <v>       0.77746569       0.16638024       0.20549286 </v>
   <v>       0.88923749       0.08362225       0.70513178 </v>
   <v>       0.22250685       0.08361650       0.70517840 </v>
   <v>       0.11080647       0.16639399       0.20549163 </v>
   <v>       0.77746550       0.41638401       0.29462642 </v>
   <v>       0.88913826       0.33353027       0.79434478 </v>
   <v>       0.11081534       0.66641134       0.20548914 </v>
   <v>       0.55584047       0.83357384       0.70512194 </v>
   <v>       0.88925766       0.33367889       0.70520552 </v>
   <v>       0.22252295       0.08359684       0.79431800 </v>
   <v>       0.11080713       0.16640476       0.29464088 </v>
   <v>       0.77746450       0.66637697       0.29463007 </v>
   <v>       0.88917247       0.58364144       0.79434957 </v>
   <v>       0.77746936       0.66639777       0.20549036 </v>
   <v>       0.88921815       0.58359805       0.70521069 </v>
   <v>       0.77748059       0.91639518       0.29464014 </v>
   <v>       0.88915055       0.83364646       0.79430271 </v>
   <v>       0.77746136       0.41638355       0.20548655 </v>
   <v>       0.44413749       0.91638050       0.20549676 </v>
   <v>       0.44413733       0.91638097       0.29463664 </v>
   <v>       0.22250681       0.58362004       0.70520922 </v>
   <v>       0.22261923       0.58367980       0.79435037 </v>
   <v>       0.11080129       0.91640100       0.29464029 </v>
   <v>       0.22261577       0.83368716       0.79432206 </v>
   <v>       0.11081022       0.91640690       0.20549478 </v>
   <v>       0.22248603       0.83356242       0.70517939 </v>
   <v>       0.11078898       0.66638687       0.29463048 </v>
   <v>       0.77747404       0.91639287       0.20549685 </v>
   <v>       0.44413872       0.16638516       0.29463584 </v>
   <v>       0.55587119       0.08356721       0.79430339 </v>
   <v>       0.44412365       0.16636810       0.20549327 </v>
   <v>       0.55588511       0.08361450       0.70515312 </v>
   <v>       0.44412840       0.41636798       0.29463047 </v>
   <v>       0.55581959       0.33355987       0.79434203 </v>
   <v>       0.44412797       0.41637348       0.20548925 </v>
   <v>       0.55591266       0.33365484       0.70520507 </v>
   <v>       0.22253558       0.33366935       0.70521073 </v>
   <v>       0.11080950       0.41639919       0.20548713 </v>
   <v>       0.44412823       0.66636522       0.29463158 </v>
   <v>       0.55588585       0.58365621       0.79433199 </v>
   <v>       0.44414196       0.66638750       0.20549251 </v>
   <v>       0.55585447       0.58360276       0.70518542 </v>
   <v>       0.22251857       0.33358207       0.79434798 </v>
   <v>       0.11079745       0.41639259       0.29463043 </v>
   <v>       0.55593107       0.83366235       0.79430051 </v>
   <v>       0.88920452       0.83359316       0.70513954 </v>
  </varray>
 </structure>
</modeling>
