  93  93   0   0
  0.3967126E+02  0.9570947E-09  0.1276126E-08  0.3488026E-08  0.5000000E-15
  1.000000000000000E-004
  CAR 
 basalPlane                              
      2.32945835    -19.30281867  301      0.01167392      1.00000000
    -19.303  0.0000E+00  0.0000E+00
    -19.231  0.0000E+00  0.0000E+00
    -19.159  0.0000E+00  0.0000E+00
    -19.086  0.0000E+00  0.0000E+00
    -19.014  0.0000E+00  0.0000E+00
    -18.942  0.0000E+00  0.0000E+00
    -18.870  0.1386E-17  0.9992E-19
    -18.798  0.3452E-14  0.2490E-15
    -18.726  0.3014E-11  0.2176E-12
    -18.654  0.9530E-09  0.6894E-10
    -18.582  0.1099E-06  0.7994E-08
    -18.510  0.4669E-05  0.3446E-06
    -18.438  0.7395E-04  0.5677E-05
    -18.365  0.4427E-03  0.3760E-04
    -18.293  0.1014E-02  0.1107E-03
    -18.221  0.8941E-03  0.1752E-03
    -18.149  0.3073E-03  0.1973E-03
    -18.077  0.1059E-03  0.2050E-03
    -18.005  0.4189E-03  0.2352E-03
    -17.933  0.9969E-03  0.3071E-03
    -17.861  0.9177E-03  0.3732E-03
    -17.789  0.3251E-03  0.3967E-03
    -17.716  0.4394E-04  0.3998E-03
    -17.644  0.2238E-05  0.4000E-03
    -17.572  0.4239E-07  0.4000E-03
    -17.500  0.2951E-09  0.4000E-03
    -17.428  0.7478E-12  0.4000E-03
    -17.356  0.6855E-15  0.4000E-03
    -17.284  0.0000E+00  0.4000E-03
    -17.212  0.0000E+00  0.4000E-03
    -17.140  0.0000E+00  0.4000E-03
    -17.067  0.0000E+00  0.4000E-03
    -16.995  0.0000E+00  0.4000E-03
    -16.923  0.0000E+00  0.4000E-03
    -16.851  0.0000E+00  0.4000E-03
    -16.779  0.0000E+00  0.4000E-03
    -16.707  0.0000E+00  0.4000E-03
    -16.635  0.0000E+00  0.4000E-03
    -16.563  0.0000E+00  0.4000E-03
    -16.491  0.0000E+00  0.4000E-03
    -16.419  0.0000E+00  0.4000E-03
    -16.346  0.4465E-17  0.4000E-03
    -16.274  0.1040E-13  0.4000E-03
    -16.202  0.8571E-11  0.4000E-03
    -16.130  0.2559E-08  0.4000E-03
    -16.058  0.2789E-06  0.4000E-03
    -15.986  0.1120E-04  0.4008E-03
    -15.914  0.1679E-03  0.4129E-03
    -15.842  0.9517E-03  0.4816E-03
    -15.770  0.2065E-02  0.6304E-03
    -15.697  0.1726E-02  0.7549E-03
    -15.625  0.5547E-03  0.7949E-03
    -15.553  0.6797E-04  0.7998E-03
    -15.481  0.3134E-05  0.8000E-03
    -15.409  0.5371E-07  0.8000E-03
    -15.337  0.1205E-07  0.8000E-03
    -15.265  0.1085E-05  0.8001E-03
    -15.193  0.3711E-04  0.8028E-03
    -15.121  0.4747E-03  0.8370E-03
    -15.048  0.2302E-02  0.1003E-02
    -14.976  0.4280E-02  0.1312E-02
    -14.904  0.3104E-02  0.1535E-02
    -14.832  0.1334E-02  0.1632E-02
    -14.760  0.2447E-02  0.1808E-02
    -14.688  0.4583E-02  0.2139E-02
    -14.616  0.5082E-02  0.2505E-02
    -14.544  0.6412E-02  0.2967E-02
    -14.472  0.5972E-02  0.3398E-02
    -14.400  0.2414E-02  0.3572E-02
    -14.327  0.5752E-03  0.3613E-02
    -14.255  0.1451E-02  0.3718E-02
    -14.183  0.4279E-02  0.4027E-02
    -14.111  0.7463E-02  0.4565E-02
    -14.039  0.1214E-01  0.5440E-02
    -13.967  0.1432E-01  0.6473E-02
    -13.895  0.9993E-02  0.7193E-02
    -13.823  0.8871E-02  0.7833E-02
    -13.751  0.1269E-01  0.8748E-02
    -13.678  0.1330E-01  0.9707E-02
    -13.606  0.9284E-02  0.1038E-01
    -13.534  0.4500E-02  0.1070E-01
    -13.462  0.1222E-02  0.1079E-01
    -13.390  0.1451E-03  0.1080E-01
    -13.318  0.6735E-05  0.1080E-01
    -13.246  0.1172E-06  0.1080E-01
    -13.174  0.7505E-09  0.1080E-01
    -13.102  0.1750E-11  0.1080E-01
    -13.029  0.1474E-14  0.1080E-01
    -12.957  0.0000E+00  0.1080E-01
    -12.885  0.0000E+00  0.1080E-01
    -12.813  0.0000E+00  0.1080E-01
    -12.741  0.0000E+00  0.1080E-01
    -12.669  0.0000E+00  0.1080E-01
    -12.597  0.0000E+00  0.1080E-01
    -12.525  0.0000E+00  0.1080E-01
    -12.453  0.0000E+00  0.1080E-01
    -12.380  0.0000E+00  0.1080E-01
    -12.308  0.0000E+00  0.1080E-01
    -12.236  0.0000E+00  0.1080E-01
    -12.164  0.0000E+00  0.1080E-01
    -12.092  0.0000E+00  0.1080E-01
    -12.020  0.0000E+00  0.1080E-01
    -11.948  0.0000E+00  0.1080E-01
    -11.876  0.0000E+00  0.1080E-01
    -11.804  0.0000E+00  0.1080E-01
    -11.732  0.0000E+00  0.1080E-01
    -11.659  0.0000E+00  0.1080E-01
    -11.587  0.0000E+00  0.1080E-01
    -11.515  0.0000E+00  0.1080E-01
    -11.443  0.0000E+00  0.1080E-01
    -11.371  0.0000E+00  0.1080E-01
    -11.299  0.0000E+00  0.1080E-01
    -11.227  0.0000E+00  0.1080E-01
    -11.155  0.0000E+00  0.1080E-01
    -11.083  0.0000E+00  0.1080E-01
    -11.010  0.0000E+00  0.1080E-01
    -10.938  0.0000E+00  0.1080E-01
    -10.866  0.0000E+00  0.1080E-01
    -10.794  0.0000E+00  0.1080E-01
    -10.722  0.0000E+00  0.1080E-01
    -10.650  0.0000E+00  0.1080E-01
    -10.578  0.0000E+00  0.1080E-01
    -10.506  0.0000E+00  0.1080E-01
    -10.434  0.0000E+00  0.1080E-01
    -10.361  0.0000E+00  0.1080E-01
    -10.289  0.0000E+00  0.1080E-01
    -10.217  0.0000E+00  0.1080E-01
    -10.145  0.2802E-16  0.1080E-01
    -10.073  0.4722E-13  0.1080E-01
    -10.001  0.2894E-10  0.1080E-01
     -9.929  0.6508E-08  0.1080E-01
     -9.857  0.5446E-06  0.1080E-01
     -9.785  0.1728E-04  0.1080E-01
     -9.713  0.2127E-03  0.1082E-01
     -9.640  0.1050E-02  0.1089E-01
     -9.568  0.2241E-02  0.1105E-01
     -9.496  0.2689E-02  0.1125E-01
     -9.424  0.2774E-02  0.1145E-01
     -9.352  0.2377E-02  0.1162E-01
     -9.280  0.1594E-02  0.1173E-01
     -9.208  0.7841E-03  0.1179E-01
     -9.136  0.5077E-03  0.1183E-01
     -9.064  0.9505E-03  0.1190E-01
     -8.991  0.9827E-03  0.1197E-01
     -8.919  0.3970E-03  0.1200E-01
     -8.847  0.6132E-04  0.1200E-01
     -8.775  0.3576E-05  0.1200E-01
     -8.703  0.7768E-07  0.1200E-01
     -8.631  0.6210E-09  0.1200E-01
     -8.559  0.1809E-11  0.1200E-01
     -8.487  0.1908E-14  0.1200E-01
     -8.415  0.6159E-18  0.1200E-01
     -8.342  0.0000E+00  0.1200E-01
     -8.270  0.0000E+00  0.1200E-01
     -8.198  0.0000E+00  0.1200E-01
     -8.126  0.0000E+00  0.1200E-01
     -8.054  0.0000E+00  0.1200E-01
     -7.982  0.5266E-16  0.1200E-01
     -7.910  0.8836E-13  0.1200E-01
     -7.838  0.5353E-10  0.1200E-01
     -7.766  0.1177E-07  0.1200E-01
     -7.693  0.9471E-06  0.1200E-01
     -7.621  0.2819E-04  0.1200E-01
     -7.549  0.3149E-03  0.1202E-01
     -7.477  0.1352E-02  0.1212E-01
     -7.405  0.2419E-02  0.1230E-01
     -7.333  0.2554E-02  0.1248E-01
     -7.261  0.2477E-02  0.1266E-01
     -7.189  0.1560E-02  0.1277E-01
     -7.117  0.1026E-02  0.1285E-01
     -7.045  0.3739E-02  0.1312E-01
     -6.972  0.9702E-02  0.1382E-01
     -6.900  0.1170E-01  0.1466E-01
     -6.828  0.7374E-02  0.1519E-01
     -6.756  0.7217E-02  0.1571E-01
     -6.684  0.1248E-01  0.1661E-01
     -6.612  0.1309E-01  0.1756E-01
     -6.540  0.9078E-02  0.1821E-01
     -6.468  0.5353E-02  0.1860E-01
     -6.396  0.2696E-02  0.1879E-01
     -6.323  0.1537E-02  0.1890E-01
     -6.251  0.1000E-02  0.1897E-01
     -6.179  0.5232E-03  0.1901E-01
     -6.107  0.1036E-02  0.1909E-01
     -6.035  0.2163E-02  0.1924E-01
     -5.963  0.2767E-02  0.1944E-01
     -5.891  0.4970E-02  0.1980E-01
     -5.819  0.7730E-02  0.2036E-01
     -5.747  0.6474E-02  0.2082E-01
     -5.674  0.5950E-02  0.2125E-01
     -5.602  0.1407E-01  0.2227E-01
     -5.530  0.2386E-01  0.2399E-01
     -5.458  0.1963E-01  0.2540E-01
     -5.386  0.9419E-02  0.2608E-01
     -5.314  0.5998E-02  0.2652E-01
     -5.242  0.6568E-02  0.2699E-01
     -5.170  0.5520E-02  0.2739E-01
     -5.098  0.2544E-02  0.2757E-01
     -5.026  0.1929E-02  0.2771E-01
     -4.953  0.6203E-02  0.2816E-01
     -4.881  0.1079E-01  0.2894E-01
     -4.809  0.8976E-02  0.2958E-01
     -4.737  0.7158E-02  0.3010E-01
     -4.665  0.8191E-02  0.3069E-01
     -4.593  0.8156E-02  0.3128E-01
     -4.521  0.6354E-02  0.3174E-01
     -4.449  0.3567E-02  0.3199E-01
     -4.377  0.3318E-02  0.3223E-01
     -4.304  0.5527E-02  0.3263E-01
     -4.232  0.6502E-02  0.3310E-01
     -4.160  0.5979E-02  0.3353E-01
     -4.088  0.5424E-02  0.3392E-01
     -4.016  0.4423E-02  0.3424E-01
     -3.944  0.1871E-02  0.3438E-01
     -3.872  0.3334E-03  0.3440E-01
     -3.800  0.2582E-03  0.3442E-01
     -3.728  0.1589E-02  0.3453E-01
     -3.655  0.4439E-02  0.3485E-01
     -3.583  0.7180E-02  0.3537E-01
     -3.511  0.1118E-01  0.3618E-01
     -3.439  0.1475E-01  0.3724E-01
     -3.367  0.1341E-01  0.3821E-01
     -3.295  0.1037E-01  0.3896E-01
     -3.223  0.8403E-02  0.3956E-01
     -3.151  0.6988E-02  0.4007E-01
     -3.079  0.8274E-02  0.4066E-01
     -3.007  0.1099E-01  0.4145E-01
     -2.934  0.1001E-01  0.4218E-01
     -2.862  0.5744E-02  0.4259E-01
     -2.790  0.3315E-02  0.4283E-01
     -2.718  0.4524E-02  0.4316E-01
     -2.646  0.7357E-02  0.4369E-01
     -2.574  0.7725E-02  0.4424E-01
     -2.502  0.5884E-02  0.4467E-01
     -2.430  0.5089E-02  0.4503E-01
     -2.358  0.7488E-02  0.4557E-01
     -2.285  0.8134E-02  0.4616E-01
     -2.213  0.6462E-02  0.4663E-01
     -2.141  0.5017E-02  0.4699E-01
     -2.069  0.2471E-02  0.4717E-01
     -1.997  0.1178E-02  0.4725E-01
     -1.925  0.2820E-02  0.4745E-01
     -1.853  0.4364E-02  0.4777E-01
     -1.781  0.2988E-02  0.4798E-01
     -1.709  0.2086E-02  0.4814E-01
     -1.636  0.2201E-02  0.4829E-01
     -1.564  0.1195E-02  0.4838E-01
     -1.492  0.2542E-03  0.4840E-01
     -1.420  0.2052E-04  0.4840E-01
     -1.348  0.6201E-06  0.4840E-01
     -1.276  0.6920E-08  0.4840E-01
     -1.204  0.2823E-10  0.4840E-01
     -1.132  0.4178E-13  0.4840E-01
     -1.060  0.2248E-16  0.4840E-01
     -0.987  0.0000E+00  0.4840E-01
     -0.915  0.0000E+00  0.4840E-01
     -0.843  0.0000E+00  0.4840E-01
     -0.771  0.6159E-18  0.4840E-01
     -0.699  0.1593E-14  0.4840E-01
     -0.627  0.1548E-11  0.4840E-01
     -0.555  0.5447E-09  0.4840E-01
     -0.483  0.6984E-07  0.4840E-01
     -0.411  0.3295E-05  0.4840E-01
     -0.339  0.5787E-04  0.4840E-01
     -0.266  0.3839E-03  0.4843E-01
     -0.194  0.9829E-03  0.4850E-01
     -0.122  0.1104E-02  0.4858E-01
     -0.050  0.1226E-02  0.4867E-01
      0.022  0.2158E-02  0.4883E-01
      0.094  0.3070E-02  0.4905E-01
      0.166  0.4352E-02  0.4936E-01
      0.238  0.4486E-02  0.4969E-01
      0.310  0.3888E-02  0.4997E-01
      0.383  0.6473E-02  0.5043E-01
      0.455  0.1224E-01  0.5132E-01
      0.527  0.1693E-01  0.5254E-01
      0.599  0.1497E-01  0.5362E-01
      0.671  0.1339E-01  0.5458E-01
      0.743  0.1087E-01  0.5537E-01
      0.815  0.4927E-02  0.5572E-01
      0.887  0.1585E-02  0.5583E-01
      0.959  0.3185E-02  0.5606E-01
      1.032  0.8058E-02  0.5665E-01
      1.104  0.1132E-01  0.5746E-01
      1.176  0.1121E-01  0.5827E-01
      1.248  0.1028E-01  0.5901E-01
      1.320  0.8281E-02  0.5961E-01
      1.392  0.4208E-02  0.5991E-01
      1.464  0.1082E-02  0.5999E-01
      1.536  0.1278E-03  0.6000E-01
      1.608  0.6489E-05  0.6000E-01
      1.680  0.1338E-06  0.6000E-01
      1.753  0.1071E-08  0.6000E-01
      1.825  0.3230E-11  0.6000E-01
      1.897  0.3596E-14  0.6000E-01
      1.969  0.1232E-17  0.6000E-01
      2.041  0.0000E+00  0.6000E-01
      2.113  0.0000E+00  0.6000E-01
      2.185  0.0000E+00  0.6000E-01
      2.257  0.0000E+00  0.6000E-01
      2.329  0.0000E+00  0.6000E-01
