       N       E                     dE             d eps       ncg     rms          rms(c)
DAV:   1     0.439770368671E+04    0.43977E+04   -0.17982E+05   600   0.112E+03
DAV:   2    -0.774229505052E+00   -0.43985E+04   -0.42227E+04   984   0.265E+02
DAV:   3    -0.678147692645E+03   -0.67737E+03   -0.66733E+03   732   0.114E+02
DAV:   4    -0.713855461389E+03   -0.35708E+02   -0.35504E+02   888   0.326E+01
DAV:   5    -0.715004599491E+03   -0.11491E+01   -0.11421E+01   936   0.509E+00    0.123E+02
DAV:   6    -0.700133638960E+03    0.14871E+02   -0.59669E+02   804   0.299E+01    0.770E+01
DAV:   7    -0.709662513373E+03   -0.95289E+01   -0.82764E+02   876   0.599E+01    0.437E+01
DAV:   8    -0.668729209818E+03    0.40933E+02   -0.11027E+02   792   0.130E+01    0.270E+01
DAV:   9    -0.658521942042E+03    0.10207E+02   -0.57297E+01   816   0.110E+01    0.163E+01
DAV:  10    -0.658847800176E+03   -0.32586E+00   -0.75790E+00   936   0.335E+00    0.141E+01
DAV:  11    -0.658647217813E+03    0.20058E+00   -0.30836E+00   840   0.999E-01    0.130E+01
DAV:  12    -0.658261263435E+03    0.38595E+00   -0.12274E+00   888   0.167E+00    0.105E+01
DAV:  13    -0.659852917112E+03   -0.15917E+01   -0.16218E+01   876   0.124E+00    0.196E+01
DAV:  14    -0.659245758122E+03    0.60716E+00   -0.18786E+01   792   0.221E+00    0.986E+00
DAV:  15    -0.658855285735E+03    0.39047E+00   -0.48006E-01   840   0.798E-01    0.888E+00
DAV:  16    -0.658842433533E+03    0.12852E-01   -0.69641E-01   888   0.316E-01    0.917E+00
DAV:  17    -0.658862179715E+03   -0.19746E-01   -0.36893E+00   852   0.967E-01    0.118E+01
DAV:  18    -0.658453652479E+03    0.40853E+00   -0.65897E+00   876   0.582E-01    0.458E+00
DAV:  19    -0.658382468364E+03    0.71184E-01   -0.13848E-01   840   0.332E-01    0.371E+00
DAV:  20    -0.658385449398E+03   -0.29810E-02   -0.13328E-01   900   0.154E-01    0.366E+00
DAV:  21    -0.658374303446E+03    0.11146E-01   -0.79075E-02   852   0.103E-01    0.315E+00
DAV:  22    -0.658369812304E+03    0.44911E-02   -0.73010E-02   912   0.139E-01    0.302E+00
DAV:  23    -0.658320861945E+03    0.48950E-01   -0.14974E-01   924   0.389E-01    0.185E+00
DAV:  24    -0.658296341341E+03    0.24521E-01   -0.38947E-02   876   0.152E-01    0.190E+00
DAV:  25    -0.658278618972E+03    0.17722E-01   -0.20060E-02   888   0.946E-02    0.155E+00
DAV:  26    -0.658262802026E+03    0.15817E-01   -0.11842E-02   876   0.903E-02    0.145E+00
DAV:  27    -0.658245670887E+03    0.17131E-01   -0.12895E-02   804   0.728E-02    0.121E+00
DAV:  28    -0.658229340983E+03    0.16330E-01   -0.55933E-03   780   0.767E-02    0.112E+00
DAV:  29    -0.658213642310E+03    0.15699E-01   -0.53449E-03   768   0.633E-02    0.103E+00
DAV:  30    -0.658185680660E+03    0.27962E-01   -0.57285E-03   744   0.775E-02    0.860E-01
DAV:  31    -0.658179388740E+03    0.62919E-02   -0.14379E-03   816   0.510E-02    0.865E-01
DAV:  32    -0.658180027682E+03   -0.63894E-03   -0.43645E-04   552   0.177E-02    0.888E-01
DAV:  33    -0.658172880387E+03    0.71473E-02   -0.58496E-03   648   0.764E-02    0.521E-01
DAV:  34    -0.658173233251E+03   -0.35286E-03   -0.23597E-04   516   0.189E-02    0.622E-01
DAV:  35    -0.658163475532E+03    0.97577E-02   -0.15608E-03   732   0.386E-02    0.420E-01
DAV:  36    -0.658159477801E+03    0.39977E-02   -0.31817E-04   624   0.227E-02    0.532E-01
DAV:  37    -0.658154149590E+03    0.53282E-02   -0.66072E-04   648   0.230E-02    0.510E-01
DAV:  38    -0.658145872684E+03    0.82769E-02   -0.13038E-03   720   0.392E-02    0.416E-01
DAV:  39    -0.658139530185E+03    0.63425E-02   -0.11083E-03   696   0.328E-02    0.449E-01
DAV:  40    -0.658130561944E+03    0.89682E-02   -0.20716E-03   744   0.642E-02    0.434E-01
DAV:  41    -0.658127433832E+03    0.31281E-02   -0.18447E-02   768   0.758E-02    0.689E-01
DAV:  42    -0.658126121312E+03    0.13125E-02   -0.90733E-04   708   0.344E-02    0.419E-01
DAV:  43    -0.658127063761E+03   -0.94245E-03   -0.13154E-04   528   0.170E-02    0.629E-01
DAV:  44    -0.658125767631E+03    0.12961E-02   -0.11409E-02   564   0.272E-02    0.237E-01
DAV:  45    -0.658125463999E+03    0.30363E-03   -0.18465E-04   516   0.178E-02    0.169E-01
DAV:  46    -0.658125398839E+03    0.65159E-04   -0.53421E-05   420   0.970E-03
   1 F= -.67300187E+03 E0= -.67293843E+03  d E =-.673002E+03
       N       E                     dE             d eps       ncg     rms          rms(c)
DAV:   1    -0.658135890874E+03   -0.10427E-01   -0.10598E+01   624   0.465E+00    0.248E+00
DAV:   2    -0.658224557290E+03   -0.88666E-01   -0.73823E-01   756   0.135E+00    0.221E+00
DAV:   3    -0.658393399027E+03   -0.16884E+00   -0.26043E+00   888   0.101E+00    0.926E+00
DAV:   4    -0.658254202847E+03    0.13920E+00   -0.44369E+00   780   0.521E-01    0.151E+00
DAV:   5    -0.658212258781E+03    0.41944E-01   -0.45026E-01   768   0.229E-01    0.235E+00
DAV:   6    -0.658189747585E+03    0.22511E-01   -0.47112E-01   840   0.219E-01    0.102E+00
DAV:   7    -0.658186446339E+03    0.33012E-02   -0.22546E-01   828   0.170E-01    0.171E+00
DAV:   8    -0.658177895472E+03    0.85509E-02   -0.19638E-01   768   0.135E-01    0.607E-01
DAV:   9    -0.658174568637E+03    0.33268E-02   -0.60611E-03   732   0.106E-01    0.102E+00
DAV:  10    -0.658171667163E+03    0.29015E-02   -0.20659E-03   780   0.587E-02    0.365E-01
DAV:  11    -0.658170909333E+03    0.75783E-03   -0.22134E-03   588   0.438E-02    0.596E-01
DAV:  12    -0.658170006296E+03    0.90304E-03   -0.15821E-03   516   0.299E-02    0.277E-01
DAV:  13    -0.658169718390E+03    0.28791E-03   -0.25161E-03   528   0.328E-02    0.345E-01
DAV:  14    -0.658169391740E+03    0.32665E-03   -0.13430E-03   420   0.191E-02    0.189E-01
DAV:  15    -0.658169353482E+03    0.38259E-04   -0.95056E-04   384   0.156E-02
   2 F= -.67306493E+03 E0= -.67300012E+03  d E =-.630645E-01
       N       E                     dE             d eps       ncg     rms          rms(c)
DAV:   1    -0.658172102822E+03   -0.27111E-02   -0.12922E-01   624   0.514E-01    0.316E-01
DAV:   2    -0.658173898425E+03   -0.17956E-02   -0.95420E-03   780   0.141E-01    0.550E-01
DAV:   3    -0.658178066819E+03   -0.41684E-02   -0.23662E-02   756   0.126E-01    0.683E-01
DAV:   4    -0.658172632422E+03    0.54344E-02   -0.12434E-02   612   0.921E-02    0.185E-01
DAV:   5    -0.658172553746E+03    0.78676E-04   -0.29932E-03   468   0.224E-02    0.211E-01
DAV:   6    -0.658172569030E+03   -0.15284E-04   -0.39927E-03   444   0.212E-02    0.171E-01
DAV:   7    -0.658173121824E+03   -0.55279E-03   -0.45839E-03   612   0.364E-02    0.382E-01
DAV:   8    -0.658172532249E+03    0.58957E-03   -0.29579E-03   492   0.331E-02    0.788E-02
DAV:   9    -0.658172443083E+03    0.89166E-04   -0.15402E-03   384   0.146E-02    0.121E-01
DAV:  10    -0.658172403861E+03    0.39223E-04   -0.10558E-03   384   0.109E-02    0.505E-02
DAV:  11    -0.658172395993E+03    0.78675E-05   -0.54856E-04   384   0.811E-03
   3 F= -.67306581E+03 E0= -.67300169E+03  d E =-.639385E-01
       N       E                     dE             d eps       ncg     rms          rms(c)
DAV:   1    -0.658164659316E+03    0.77445E-02   -0.93248E-01   600   0.145E+00    0.691E-01
DAV:   2    -0.658192883703E+03   -0.28224E-01   -0.12795E-01   804   0.498E-01    0.141E+00
DAV:   3    -0.658172568035E+03    0.20316E-01   -0.13991E-01   852   0.308E-01    0.988E-01
DAV:   4    -0.658172185409E+03    0.38263E-03   -0.28023E-02   660   0.763E-02    0.777E-01
DAV:   5    -0.658171752053E+03    0.43336E-03   -0.15845E-02   600   0.683E-02    0.666E-01
DAV:   6    -0.658175835574E+03   -0.40835E-02   -0.24996E-02   828   0.133E-01    0.148E+00
DAV:   7    -0.658168936097E+03    0.68995E-02   -0.12457E-02   768   0.960E-02    0.230E-01
DAV:   8    -0.658167442798E+03    0.14933E-02   -0.81228E-03   636   0.430E-02    0.186E-01
DAV:   9    -0.658167303913E+03    0.13888E-03   -0.44827E-03   456   0.270E-02    0.151E-01
DAV:  10    -0.658167244457E+03    0.59456E-04   -0.24104E-03   408   0.180E-02    0.120E-01
DAV:  11    -0.658167165359E+03    0.79098E-04   -0.12955E-03   396   0.126E-02    0.822E-02
DAV:  12    -0.658167142606E+03    0.22754E-04   -0.63396E-04   384   0.899E-03
   4 F= -.67306563E+03 E0= -.67300129E+03  d E =0.180073E-03
       N       E                     dE             d eps       ncg     rms          rms(c)
DAV:   1    -0.658171885532E+03   -0.47202E-02   -0.24085E-01   624   0.738E-01    0.327E-01
DAV:   2    -0.658181478214E+03   -0.95927E-02   -0.20252E-02   804   0.223E-01    0.166E+00
DAV:   3    -0.658177516699E+03    0.39615E-02   -0.20292E-02   744   0.136E-01    0.595E-01
DAV:   4    -0.658174686747E+03    0.28300E-02   -0.15429E-03   612   0.480E-02    0.524E-01
DAV:   5    -0.658173344552E+03    0.13422E-02   -0.94380E-04   492   0.324E-02    0.332E-01
DAV:   6    -0.658173038629E+03    0.30592E-03   -0.24031E-03   564   0.492E-02    0.289E-01
DAV:   7    -0.658172781975E+03    0.25665E-03   -0.64901E-04   492   0.268E-02    0.172E-01
DAV:   8    -0.658172618290E+03    0.16369E-03   -0.60529E-04   456   0.205E-02    0.127E-01
DAV:   9    -0.658172521856E+03    0.96434E-04   -0.49422E-04   360   0.140E-02
   5 F= -.67306842E+03 E0= -.67300487E+03  d E =-.260875E-02
       N       E                     dE             d eps       ncg     rms          rms(c)
DAV:   1    -0.658165874674E+03    0.67436E-02   -0.73056E-01   624   0.131E+00    0.550E-01
DAV:   2    -0.658174416435E+03   -0.85418E-02   -0.44113E-02   780   0.335E-01    0.770E-01
DAV:   3    -0.658190997278E+03   -0.16581E-01   -0.74384E-02   888   0.248E-01    0.295E+00
DAV:   4    -0.658177450951E+03    0.13546E-01   -0.22918E-02   756   0.154E-01    0.631E-01
DAV:   5    -0.658170453857E+03    0.69971E-02   -0.34951E-03   636   0.668E-02    0.553E-01
DAV:   6    -0.658168878265E+03    0.15756E-02   -0.23794E-03   684   0.676E-02    0.303E-01
DAV:   7    -0.658169174360E+03   -0.29609E-03   -0.19756E-03   588   0.397E-02    0.500E-01
DAV:   8    -0.658168573677E+03    0.60068E-03   -0.18987E-03   396   0.263E-02    0.271E-01
DAV:   9    -0.658168205530E+03    0.36815E-03   -0.16841E-03   456   0.235E-02    0.235E-01
DAV:  10    -0.658168000586E+03    0.20494E-03   -0.11978E-03   396   0.161E-02    0.103E-01
DAV:  11    -0.658167940982E+03    0.59603E-04   -0.80354E-04   408   0.142E-02
   6 F= -.67306745E+03 E0= -.67300266E+03  d E =0.969679E-03
       N       E                     dE             d eps       ncg     rms          rms(c)
DAV:   1    -0.658171679101E+03   -0.36785E-02   -0.24130E-01   624   0.755E-01    0.314E-01
DAV:   2    -0.658173066635E+03   -0.13875E-02   -0.12994E-02   804   0.172E-01    0.409E-01
DAV:   3    -0.658177268772E+03   -0.42021E-02   -0.21648E-02   768   0.114E-01    0.683E-01
DAV:   4    -0.658172635866E+03    0.46329E-02   -0.13277E-02   624   0.922E-02    0.215E-01
DAV:   5    -0.658172563994E+03    0.71872E-04   -0.25047E-03   480   0.239E-02    0.240E-01
DAV:   6    -0.658172579710E+03   -0.15717E-04   -0.40362E-03   456   0.252E-02    0.209E-01
DAV:   7    -0.658173104562E+03   -0.52485E-03   -0.53874E-03   612   0.411E-02    0.397E-01
DAV:   8    -0.658172441490E+03    0.66307E-03   -0.36286E-03   504   0.350E-02    0.986E-02
DAV:   9    -0.658172349739E+03    0.91750E-04   -0.23763E-03   396   0.162E-02    0.131E-01
DAV:  10    -0.658172302952E+03    0.46787E-04   -0.16883E-03   384   0.119E-02    0.621E-02
DAV:  11    -0.658172282885E+03    0.20067E-04   -0.84626E-04   384   0.860E-03
   7 F= -.67306971E+03 E0= -.67300568E+03  d E =-.129012E-02
       N       E                     dE             d eps       ncg     rms          rms(c)
DAV:   1    -0.658172418360E+03   -0.11541E-03   -0.80917E-03   600   0.997E-02    0.435E-02
DAV:   2    -0.658172931035E+03   -0.51267E-03   -0.15380E-03   540   0.366E-02    0.273E-01
DAV:   3    -0.658172462253E+03    0.46878E-03   -0.13050E-03   480   0.296E-02    0.715E-02
DAV:   4    -0.658172436375E+03    0.25878E-04   -0.17641E-04   384   0.921E-03
   8 F= -.67306976E+03 E0= -.67300659E+03  d E =-.509219E-04
       N       E                     dE             d eps       ncg     rms          rms(c)
DAV:   1    -0.658172453867E+03    0.83861E-05   -0.72313E-04   504   0.297E-02    0.329E-02
DAV:   2    -0.658172781919E+03   -0.32805E-03   -0.58836E-04   480   0.232E-02    0.255E-01
DAV:   3    -0.658172494630E+03    0.28729E-03   -0.58237E-04   468   0.228E-02    0.747E-02
DAV:   4    -0.658172448959E+03    0.45671E-04   -0.27021E-05   360   0.608E-03
   9 F= -.67306974E+03 E0= -.67300581E+03  d E =-.338453E-04
       N       E                     dE             d eps       ncg     rms          rms(c)
DAV:   1    -0.658172586161E+03   -0.91531E-04   -0.20439E-03   576   0.487E-02    0.327E-02
DAV:   2    -0.658172624117E+03   -0.37956E-04   -0.31171E-04   396   0.134E-02
  10 F= -.67306982E+03 E0= -.67300609E+03  d E =-.827008E-04
       N       E                     dE             d eps       ncg     rms          rms(c)
DAV:   1    -0.658172970262E+03   -0.38410E-03   -0.18740E-02   600   0.146E-01    0.775E-02
DAV:   2    -0.658175021977E+03   -0.20517E-02   -0.48915E-03   600   0.697E-02    0.480E-01
DAV:   3    -0.658173048329E+03    0.19736E-02   -0.41114E-03   564   0.587E-02    0.871E-02
DAV:   4    -0.658172997235E+03    0.51093E-04   -0.28470E-04   384   0.123E-02
  11 F= -.67306992E+03 E0= -.67300709E+03  d E =-.178795E-03
