 vasp.5.4.1 05Feb16 (build Apr 21 2017 13:36:42) gamma-only                     
  
 executed on           IFC91_ompi date 2020.09.15  02:02:11
 running on   36 total cores
 distrk:  each k-point on   36 cores,    1 groups
 distr:  one band on NCORES_PER_BAND=   3 cores,   12 groups


--------------------------------------------------------------------------------------------------------


 INCAR:
 POTCAR:    PAW_PBE C 08Apr2002                   
 POTCAR:    PAW_PBE Cr 06Sep2000                  
 POTCAR:    PAW_PBE H 15Jun2001                   
 POTCAR:    PAW_PBE Mo 08Apr2002                  
 POTCAR:    PAW_PBE S 06Sep2000                   
 POTCAR:    PAW_PBE C 08Apr2002                   
   VRHFIN =C: s2p2                                                              
   LEXCH  = PE                                                                  
   EATOM  =   147.1560 eV,   10.8157 Ry                                         
                                                                                
   TITEL  = PAW_PBE C 08Apr2002                                                 
   LULTRA =        F    use ultrasoft PP ?                                      
   IUNSCR =        1    unscreen: 0-lin 1-nonlin 2-no                           
   RPACOR =    1.200    partial core radius                                     
   POMASS =   12.011; ZVAL   =    4.000    mass and valenz                      
   RCORE  =    1.500    outmost cutoff radius                                   
   RWIGS  =    1.630; RWIGS  =    0.863    wigner-seitz radius (au A)           
   ENMAX  =  400.000; ENMIN  =  300.000 eV                                      
   ICORE  =        2    local potential                                         
   LCOR   =        T    correct aug charges                                     
   LPAW   =        T    paw PP                                                  
   EAUG   =  644.873                                                            
   DEXC   =    0.000                                                            
   RMAX   =    1.529    core radius for proj-oper                               
   RAUG   =    1.300    factor for augmentation sphere                          
   RDEP   =    1.501    radius for radial grids                                 
   RDEPT  =    1.300    core radius for aug-charge                              
                                                                                
   Atomic configuration                                                         
    4 entries                                                                   
     n  l   j            E        occ.                                          
     1  0  0.50      -273.3789   2.0000                                         
     2  0  0.50       -13.7508   2.0000                                         
     2  1  0.50        -5.2854   2.0000                                         
     3  2  1.50        -5.4423   0.0000                                         
   Description                                                                  
     l       E           TYP  RCUT    TYP  RCUT                                 
     0    -13.7508458     23  1.200                                             
     0     -8.2022199     23  1.200                                             
     1     -5.2854383     23  1.500                                             
     1     34.0145650     23  1.500                                             
     2     -5.4423304      7  1.500                                             
  local pseudopotential read in
  partial core-charges read in
  partial kinetic energy density read in
  atomic valenz-charges read in
  non local Contribution for L=           0  read in
    real space projection operators read in
  non local Contribution for L=           0  read in
    real space projection operators read in
  non local Contribution for L=           1  read in
    real space projection operators read in
  non local Contribution for L=           1  read in
    real space projection operators read in
    PAW grid and wavefunctions read in
 
   number of l-projection  operators is LMAX  =           4
   number of lm-projection operators is LMMAX =           8
 
 POTCAR:    PAW_PBE Cr 06Sep2000                  
   VRHFIN =Cr : d5 s1                                                           
   LEXCH  = PE                                                                  
   EATOM  =   276.8859 eV,   20.3505 Ry                                         
                                                                                
   TITEL  = PAW_PBE Cr 06Sep2000                                                
   LULTRA =        F    use ultrasoft PP ?                                      
   IUNSCR =        1    unscreen: 0-lin 1-nonlin 2-no                           
   RPACOR =    2.080    partial core radius                                     
   POMASS =   51.996; ZVAL   =    6.000    mass and valenz                      
   RCORE  =    2.500    outmost cutoff radius                                   
   RWIGS  =    2.500; RWIGS  =    1.323    wigner-seitz radius (au A)           
   ENMAX  =  227.080; ENMIN  =  170.310 eV                                      
   RCLOC  =    1.721    cutoff for local pot                                    
   LCOR   =        T    correct aug charges                                     
   LPAW   =        T    paw PP                                                  
   EAUG   =  402.108                                                            
   DEXC   =    0.000                                                            
   RMAX   =    2.552    core radius for proj-oper                               
   RAUG   =    1.300    factor for augmentation sphere                          
   RDEP   =    2.609    radius for radial grids                                 
   RDEPT  =    2.065    core radius for aug-charge                              
                                                                                
   Atomic configuration                                                         
    9 entries                                                                   
     n  l   j            E        occ.                                          
     1  0  0.50     -5880.4963   2.0000                                         
     2  0  0.50      -667.0865   2.0000                                         
     2  1  1.50      -560.6250   6.0000                                         
     3  0  0.50       -73.9860   2.0000                                         
     3  1  1.50       -45.4378   6.0000                                         
     3  2  2.50        -2.9137   5.0000                                         
     4  0  0.50        -4.0071   1.0000                                         
     4  1  0.50        -1.2789   0.0000                                         
     4  3  2.50        -1.3606   0.0000                                         
   Description                                                                  
     l       E           TYP  RCUT    TYP  RCUT                                 
     2     -2.9136677     23  2.500                                             
     2     -4.2742503     23  2.500                                             
     0     -4.0071322     23  2.500                                             
     0      9.4498801     23  2.500                                             
     1     -5.4423304     23  2.500                                             
     1     27.2116520     23  2.500                                             
  local pseudopotential read in
  partial core-charges read in
  partial kinetic energy density read in
  atomic valenz-charges read in
  non local Contribution for L=           2  read in
    real space projection operators read in
  non local Contribution for L=           2  read in
    real space projection operators read in
  non local Contribution for L=           0  read in
    real space projection operators read in
  non local Contribution for L=           0  read in
    real space projection operators read in
  non local Contribution for L=           1  read in
    real space projection operators read in
  non local Contribution for L=           1  read in
    real space projection operators read in
    PAW grid and wavefunctions read in
 
   number of l-projection  operators is LMAX  =           6
   number of lm-projection operators is LMMAX =          18
 
 POTCAR:    PAW_PBE H 15Jun2001                   
   VRHFIN =H: ultrasoft test                                                    
   LEXCH  = PE                                                                  
   EATOM  =    12.4884 eV,    0.9179 Ry                                         
                                                                                
   TITEL  = PAW_PBE H 15Jun2001                                                 
   LULTRA =        F    use ultrasoft PP ?                                      
   IUNSCR =        0    unscreen: 0-lin 1-nonlin 2-no                           
   RPACOR =    0.000    partial core radius                                     
   POMASS =    1.000; ZVAL   =    1.000    mass and valenz                      
   RCORE  =    1.100    outmost cutoff radius                                   
   RWIGS  =    0.700; RWIGS  =    0.370    wigner-seitz radius (au A)           
   ENMAX  =  250.000; ENMIN  =  200.000 eV                                      
   RCLOC  =    0.701    cutoff for local pot                                    
   LCOR   =        T    correct aug charges                                     
   LPAW   =        T    paw PP                                                  
   EAUG   =  400.000                                                            
   RMAX   =    1.123    core radius for proj-oper                               
   RAUG   =    1.200    factor for augmentation sphere                          
   RDEP   =    1.112    radius for radial grids                                 
   RDEPT  =    0.926    core radius for aug-charge                              
                                                                                
   Atomic configuration                                                         
    2 entries                                                                   
     n  l   j            E        occ.                                          
     1  0  0.50        -6.4927   1.0000                                         
     2  1  0.50        -3.4015   0.0000                                         
   Description                                                                  
     l       E           TYP  RCUT    TYP  RCUT                                 
     0     -6.4927494     23  1.100                                             
     0      6.8029130     23  1.100                                             
     1     -4.0817478     23  1.100                                             
  local pseudopotential read in
  atomic valenz-charges read in
  non local Contribution for L=           0  read in
    real space projection operators read in
  non local Contribution for L=           0  read in
    real space projection operators read in
  non local Contribution for L=           1  read in
    real space projection operators read in
    PAW grid and wavefunctions read in
 
   number of l-projection  operators is LMAX  =           3
   number of lm-projection operators is LMMAX =           5
 
 POTCAR:    PAW_PBE Mo 08Apr2002                  
   VRHFIN =Mo: 4p5s4d                                                           
   LEXCH  = PE                                                                  
   EATOM  =   217.5176 eV,   15.9871 Ry                                         
                                                                                
   TITEL  = PAW_PBE Mo 08Apr2002                                                
   LULTRA =        F    use ultrasoft PP ?                                      
   IUNSCR =        1    unscreen: 0-lin 1-nonlin 2-no                           
   RPACOR =    2.200    partial core radius                                     
   POMASS =   95.940; ZVAL   =    6.000    mass and valenz                      
   RCORE  =    2.750    outmost cutoff radius                                   
   RWIGS  =    2.750; RWIGS  =    1.455    wigner-seitz radius (au A)           
   ENMAX  =  224.584; ENMIN  =  168.438 eV                                      
   RCLOC  =    2.111    cutoff for local pot                                    
   LCOR   =        T    correct aug charges                                     
   LPAW   =        T    paw PP                                                  
   EAUG   =  345.278                                                            
   DEXC   =    0.000                                                            
   RMAX   =    2.821    core radius for proj-oper                               
   RAUG   =    1.300    factor for augmentation sphere                          
   RDEP   =    2.815    radius for radial grids                                 
   RDEPT  =    2.211    core radius for aug-charge                              
                                                                                
   Atomic configuration                                                         
   12 entries                                                                   
     n  l   j            E        occ.                                          
     1  0  0.50    -19819.0341   2.0000                                         
     2  0  0.50     -2799.0127   2.0000                                         
     2  1  1.50     -2502.0276   6.0000                                         
     3  0  0.50      -476.4448   2.0000                                         
     3  1  1.50      -379.1496   6.0000                                         
     3  2  2.50      -220.9367  10.0000                                         
     4  0  0.50       -64.3378   2.0000                                         
     4  1  1.50       -38.4773   6.0000                                         
     4  2  2.50        -3.7535   5.0000                                         
     5  0  0.50        -4.0862   1.0000                                         
     5  1  0.50        -2.7701   0.0000                                         
     4  3  2.50        -1.3606   0.0000                                         
   Description                                                                  
     l       E           TYP  RCUT    TYP  RCUT                                 
     2     -3.7534765     23  2.500                                             
     2     -5.1140591     23  2.500                                             
     0     -4.0861560     23  2.600                                             
     0     13.6058260     23  2.600                                             
     1      5.4423304     23  2.750                                             
     1     27.2116520     23  2.750                                             
  local pseudopotential read in
  partial core-charges read in
  partial kinetic energy density read in
  atomic valenz-charges read in
  non local Contribution for L=           2  read in
    real space projection operators read in
  non local Contribution for L=           2  read in
    real space projection operators read in
  non local Contribution for L=           0  read in
    real space projection operators read in
  non local Contribution for L=           0  read in
    real space projection operators read in
  non local Contribution for L=           1  read in
    real space projection operators read in
  non local Contribution for L=           1  read in
    real space projection operators read in
    PAW grid and wavefunctions read in
 
   number of l-projection  operators is LMAX  =           6
   number of lm-projection operators is LMMAX =          18
 
 POTCAR:    PAW_PBE S 06Sep2000                   
   VRHFIN =S : s2p4                                                             
   LEXCH  = PE                                                                  
   EATOM  =   276.8230 eV,   20.3459 Ry                                         
                                                                                
   TITEL  = PAW_PBE S 06Sep2000                                                 
   LULTRA =        F    use ultrasoft PP ?                                      
   IUNSCR =        1    unscreen: 0-lin 1-nonlin 2-no                           
   RPACOR =    1.500    partial core radius                                     
   POMASS =   32.066; ZVAL   =    6.000    mass and valenz                      
   RCORE  =    1.900    outmost cutoff radius                                   
   RWIGS  =    2.200; RWIGS  =    1.164    wigner-seitz radius (au A)           
   ENMAX  =  258.689; ENMIN  =  194.016 eV                                      
   ICORE  =        2    local potential                                         
   LCOR   =        T    correct aug charges                                     
   LPAW   =        T    paw PP                                                  
   EAUG   =  335.092                                                            
   DEXC   =    0.000                                                            
   RMAX   =    1.942    core radius for proj-oper                               
   RAUG   =    1.300    factor for augmentation sphere                          
   RDEP   =    1.954    radius for radial grids                                 
   RDEPT  =    1.744    core radius for aug-charge                              
                                                                                
   Atomic configuration                                                         
    6 entries                                                                   
     n  l   j            E        occ.                                          
     1  0  0.50     -2405.8406   2.0000                                         
     2  0  0.50      -211.7007   2.0000                                         
     2  1  1.50      -156.4958   6.0000                                         
     3  0  0.50       -17.2562   2.0000                                         
     3  1  0.50        -7.0085   4.0000                                         
     3  2  1.50        -6.8029   0.0000                                         
   Description                                                                  
     l       E           TYP  RCUT    TYP  RCUT                                 
     0    -17.2561641     23  1.900                                             
     0    -15.8743224     23  1.900                                             
     1     -7.0085400     23  1.900                                             
     1     -2.7779785     23  1.900                                             
     2     -6.8029130     23  1.900                                             
  local pseudopotential read in
  partial core-charges read in
  partial kinetic energy density read in
  atomic valenz-charges read in
  non local Contribution for L=           0  read in
    real space projection operators read in
  non local Contribution for L=           0  read in
    real space projection operators read in
  non local Contribution for L=           1  read in
    real space projection operators read in
  non local Contribution for L=           1  read in
    real space projection operators read in
    PAW grid and wavefunctions read in
 
   number of l-projection  operators is LMAX  =           4
   number of lm-projection operators is LMMAX =           8
 
 Optimization of the real space projectors (new method)

 maximal supplied QI-value         = 25.13
 optimisation between [QCUT,QGAM] = [ 10.05, 20.36] = [ 28.30,116.06] Ry 
 Optimized for a Real-space Cutoff    1.51 Angstroem

   l    n(q)    QCUT    max X(q) W(low)/X(q) W(high)/X(q)  e(spline) 
   0      9    10.053   115.676    0.19E-03    0.21E-03    0.38E-06
   0      9    10.053    87.132    0.19E-03    0.21E-03    0.38E-06
   1      9    10.053     4.429    0.87E-04    0.11E-03    0.39E-06
   1      9    10.053     2.733    0.59E-04    0.62E-04    0.43E-06
 Optimization of the real space projectors (new method)

 maximal supplied QI-value         = 15.12
 optimisation between [QCUT,QGAM] = [ 10.13, 20.41] = [ 28.73,116.64] Ry 
 Optimized for a Real-space Cutoff    1.55 Angstroem

   l    n(q)    QCUT    max X(q) W(low)/X(q) W(high)/X(q)  e(spline) 
   2      9    10.129    94.395    0.23E-03    0.29E-03    0.30E-06
   2      9    10.129    88.078    0.23E-03    0.29E-03    0.30E-06
   0      9    10.129    50.173    0.57E-04    0.58E-04    0.11E-06
   0      9    10.129    24.906    0.50E-04    0.51E-04    0.96E-07
   1      9    10.129    12.133    0.24E-03    0.21E-04    0.16E-06
   1      9    10.129     7.290    0.17E-03    0.12E-04    0.12E-06
 Optimization of the real space projectors (new method)

 maximal supplied QI-value         = 34.20
 optimisation between [QCUT,QGAM] = [  9.92, 20.18] = [ 27.55,114.04] Ry 
 Optimized for a Real-space Cutoff    1.34 Angstroem

   l    n(q)    QCUT    max X(q) W(low)/X(q) W(high)/X(q)  e(spline) 
   0      8     9.919    19.460    0.16E-03    0.20E-03    0.36E-06
   0      8     9.919    12.209    0.16E-03    0.20E-03    0.35E-06
   1      8     9.919     4.655    0.19E-03    0.46E-03    0.40E-06
 Optimization of the real space projectors (new method)

 maximal supplied QI-value         = 13.61
 optimisation between [QCUT,QGAM] = [ 10.20, 20.41] = [ 29.16,116.64] Ry 
 Optimized for a Real-space Cutoff    1.65 Angstroem

   l    n(q)    QCUT    max X(q) W(low)/X(q) W(high)/X(q)  e(spline) 
   2      9    10.205    80.908    0.21E-03    0.30E-03    0.60E-06
   2      9    10.205    79.000    0.21E-03    0.30E-03    0.60E-06
   0     10    10.205    52.066    0.39E-04    0.38E-04    0.19E-06
   0     10    10.205    24.514    0.33E-04    0.32E-04    0.16E-06
   1     10    10.205    16.033    0.64E-04    0.17E-03    0.19E-06
   1     10    10.205    11.179    0.49E-04    0.13E-03    0.15E-06
 Optimization of the real space projectors (new method)

 maximal supplied QI-value         = 19.84
 optimisation between [QCUT,QGAM] = [ 10.12, 20.44] = [ 28.68,116.96] Ry 
 Optimized for a Real-space Cutoff    1.42 Angstroem

   l    n(q)    QCUT    max X(q) W(low)/X(q) W(high)/X(q)  e(spline) 
   0      9    10.119   187.594    0.52E-04    0.93E-04    0.64E-07
   0      9    10.119   164.243    0.51E-04    0.92E-04    0.63E-07
   1      8    10.119    67.533    0.16E-03    0.17E-03    0.23E-06
   1      8    10.119    50.729    0.16E-03    0.16E-03    0.23E-06
  PAW_PBE C 08Apr2002                   :
 energy of atom  1       EATOM= -147.1560
 kinetic energy error for atom=    0.0288 (will be added to EATOM!!)
  PAW_PBE Cr 06Sep2000                  :
 energy of atom  2       EATOM= -276.8859
 kinetic energy error for atom=    0.0018 (will be added to EATOM!!)
  PAW_PBE H 15Jun2001                   :
 energy of atom  3       EATOM=  -12.4884
 kinetic energy error for atom=    0.0098 (will be added to EATOM!!)
  PAW_PBE Mo 08Apr2002                  :
 energy of atom  4       EATOM= -217.5176
 kinetic energy error for atom=    0.0025 (will be added to EATOM!!)
  PAW_PBE S 06Sep2000                   :
 energy of atom  5       EATOM= -276.8230
 kinetic energy error for atom=    0.0046 (will be added to EATOM!!)
 
 
 POSCAR:  C Cr  H Mo  S                          
  positions in cartesian coordinates
  No initial velocities read in
 exchange correlation table for  LEXCH =        8
   RHO(1)=    0.500       N(1)  =     2000
   RHO(2)=  100.500       N(2)  =     4000

 VTST: version 3.1, (03/28/14)

 CHAIN: initializing optimizer
 
 OPT: Using VASP Conjugate-Gradient optimizer
 CHAIN: Read ICHAIN            0
 
 POSCAR:  C Cr  H Mo  S                          
  positions in cartesian coordinates
  No initial velocities read in
 


--------------------------------------------------------------------------------------------------------


 ion  position               nearest neighbor table
   1  0.575  0.631  0.950-  18 1.09   2 1.42   3 1.43  11 2.20
   2  0.451  0.585  0.978-  17 1.09   1 1.42   5 1.43  11 2.18
   3  0.642  0.553  0.948-  19 1.09   1 1.43   4 1.44  11 2.15
   4  0.559  0.458  0.976-  20 1.09   3 1.44   5 1.44  11 2.09
   5  0.440  0.478  0.994-  12 1.09   2 1.43   4 1.44  11 2.11
   6  0.762  0.770  0.044-  16 1.09  10 1.44   8 1.44  11 2.11
   7  0.788  0.602  0.056-  15 1.09   9 1.43   8 1.44  11 2.15
   8  0.693  0.658  0.065-  13 1.09   7 1.44   6 1.44  11 2.10
   9  0.914  0.678  0.031-  14 1.09  10 1.42   7 1.43  11 2.20
  10  0.899  0.782  0.023-  21 1.09   9 1.42   6 1.44  11 2.18
  11  0.675  0.621  0.006-   4 2.09   8 2.10   5 2.11   6 2.11   3 2.15   7 2.15  10 2.18   2 2.18
                             1 2.20   9 2.20
  12  0.355  0.421  0.016-   5 1.09
  13  0.591  0.623  0.084-   8 1.09
  14  0.001  0.658  0.018-   9 1.09
  15  0.766  0.515  0.067-   7 1.09
  16  0.721  0.836  0.044-   6 1.09
  17  0.381  0.627  0.987-   2 1.09
  18  0.616  0.714  0.934-   1 1.09
  19  0.740  0.565  0.930-   3 1.09
  20  0.578  0.382  0.981-   4 1.09
  21  0.974  0.855  0.003-  10 1.09
  22  0.556  0.083  0.250-  46 2.42  67 2.42  48 2.42  66 2.42  76 2.42  78 2.42  23 3.19  27 3.19
                            37 3.19  43 3.19  29 3.19  38 3.19
  23  0.556  0.333  0.250-  52 2.42  76 2.42  65 2.42  78 2.42  80 2.42  82 2.42  22 3.19  25 3.19
                            29 3.19  42 3.19  32 3.19  43 3.19
  24  0.444  0.417  0.750-  90 2.42  87 2.42  84 2.42  89 2.42  81 2.42  83 2.42  26 3.19  39 3.19
                            31 3.19  41 3.19  33 3.19  44 3.19
  25  0.556  0.583  0.250-  59 2.42  80 2.42  61 2.42  82 2.42  86 2.42  88 2.42  23 3.19  27 3.19
                            32 3.19  40 3.19  34 3.19  42 3.19
  26  0.444  0.667  0.750-  69 2.42  92 2.42  68 2.42  55 2.42  87 2.42  89 2.42  24 3.19  28 3.19
                            33 3.19  45 3.19  35 3.19  41 3.19
  27  0.556  0.833  0.250-  63 2.42  86 2.42  75 2.42  88 2.42  67 2.42  66 2.42  22 3.19  25 3.19
                            34 3.19  38 3.19  37 3.19  40 3.19
  28  0.444  0.917  0.750-  71 2.42  77 2.42  73 2.42  79 2.42  92 2.42  55 2.42  26 3.19  39 3.19
                            35 3.19  36 3.19  30 3.19  45 3.19
  29  0.889  0.333  0.250-  91 2.42  46 2.42  85 2.42  48 2.42  52 2.42  65 2.42  32 3.19  37 3.19
                            23 3.19  42 3.19  22 3.19  40 3.19
  30  0.778  0.167  0.750-  77 2.42  53 2.42  79 2.42  56 2.42  47 2.42  49 2.42  31 3.19  35 3.19
                            39 3.19  44 3.19  28 3.19  41 3.19
  31  0.778  0.417  0.750-  81 2.42  60 2.42  83 2.42  62 2.42  53 2.42  56 2.42  30 3.19  33 3.19
                            24 3.19  41 3.19  39 3.19  45 3.19
  32  0.889  0.583  0.250-  74 2.42  52 2.42  54 2.42  65 2.42  59 2.42  61 2.42  29 3.19  34 3.19
                            25 3.19  40 3.19  23 3.19  38 3.19
  33  0.778  0.667  0.750-  87 2.42  64 2.42  89 2.42  93 2.42  60 2.42  62 2.42  31 3.19  35 3.19
                            26 3.19  45 3.19  24 3.19  36 3.19
  34  0.889  0.833  0.250-  70 2.42  59 2.42  72 2.42  61 2.42  63 2.42  75 2.42  32 3.19  37 3.19
                            27 3.19  38 3.19  25 3.19  43 3.19
  35  0.778  0.917  0.750-  92 2.42  47 2.42  55 2.42  49 2.42  64 2.42  93 2.42  30 3.19  33 3.19
                            28 3.19  36 3.19  26 3.19  44 3.19
  36  0.111  0.917  0.750-  64 2.42  57 2.42  93 2.42  50 2.42  71 2.42  73 2.42  44 3.19  45 3.19
                            28 3.19  35 3.19  33 3.19  39 3.19
  37  0.889  0.083  0.250-  58 2.42  63 2.42  51 2.42  75 2.42  46 2.42  48 2.42  29 3.19  34 3.19
                            22 3.19  43 3.19  27 3.19  42 3.19
  38  0.222  0.833  0.250-  67 2.42  74 2.42  66 2.42  54 2.42  70 2.42  72 2.42  40 3.19  43 3.19
                            27 3.19  34 3.19  32 3.19  22 3.19
  39  0.444  0.167  0.750-  57 2.42  81 2.42  50 2.42  83 2.42  77 2.42  79 2.42  24 3.19  28 3.19
                            30 3.19  44 3.19  31 3.19  36 3.19
  40  0.222  0.583  0.250-  86 2.42  91 2.42  88 2.42  85 2.42  74 2.42  54 2.42  38 3.19  42 3.19
                            25 3.19  32 3.19  29 3.19  27 3.19
  41  0.111  0.417  0.750-  53 2.42  69 2.42  56 2.42  68 2.42  90 2.42  84 2.42  44 3.19  45 3.19
                            24 3.19  31 3.19  30 3.19  26 3.19
  42  0.222  0.333  0.250-  80 2.42  58 2.42  82 2.42  51 2.42  91 2.42  85 2.42  40 3.19  43 3.19
                            23 3.19  29 3.19  25 3.19  37 3.19
  43  0.222  0.083  0.250-  76 2.42  70 2.42  78 2.42  72 2.42  58 2.42  51 2.42  38 3.19  42 3.19
                            22 3.19  37 3.19  34 3.19  23 3.19
  44  0.111  0.167  0.750-  47 2.42  90 2.42  49 2.42  84 2.42  57 2.42  50 2.42  36 3.19  41 3.19
                            39 3.19  30 3.19  35 3.19  24 3.19
  45  0.111  0.667  0.750-  60 2.42  71 2.42  62 2.42  73 2.42  69 2.42  68 2.42  36 3.19  41 3.19
                            26 3.19  33 3.19  31 3.19  28 3.19
  46  0.778  0.167  0.295-  22 2.42  29 2.42  37 2.42
  47  0.889  0.083  0.795-  44 2.42  35 2.42  30 2.42
  48  0.778  0.167  0.205-  22 2.42  29 2.42  37 2.42
  49  0.889  0.083  0.705-  44 2.42  35 2.42  30 2.42
  50  0.222  0.083  0.705-  39 2.42  36 2.42  44 2.42
  51  0.111  0.167  0.205-  37 2.42  42 2.42  43 2.42
  52  0.778  0.417  0.295-  23 2.42  32 2.42  29 2.42
  53  0.889  0.333  0.795-  41 2.42  30 2.42  31 2.42
  54  0.111  0.667  0.205-  32 2.42  38 2.42  40 2.42
  55  0.556  0.833  0.705-  35 2.42  26 2.42  28 2.42
  56  0.889  0.333  0.705-  41 2.42  30 2.42  31 2.42
  57  0.222  0.083  0.795-  39 2.42  36 2.42  44 2.42
  58  0.111  0.167  0.295-  37 2.42  42 2.42  43 2.42
  59  0.778  0.667  0.295-  25 2.42  34 2.42  32 2.42
  60  0.889  0.583  0.795-  45 2.42  31 2.42  33 2.42
  61  0.778  0.667  0.205-  25 2.42  34 2.42  32 2.42
  62  0.889  0.583  0.705-  45 2.42  31 2.42  33 2.42
  63  0.778  0.917  0.295-  27 2.42  37 2.42  34 2.42
  64  0.889  0.833  0.795-  36 2.42  33 2.42  35 2.42
  65  0.778  0.417  0.205-  23 2.42  32 2.42  29 2.42
  66  0.444  0.917  0.205-  38 2.42  22 2.42  27 2.42
  67  0.444  0.917  0.295-  38 2.42  22 2.42  27 2.42
  68  0.222  0.583  0.705-  26 2.42  41 2.42  45 2.42
  69  0.222  0.583  0.795-  26 2.42  41 2.42  45 2.42
  70  0.111  0.917  0.295-  34 2.42  43 2.42  38 2.42
  71  0.222  0.833  0.795-  28 2.42  45 2.42  36 2.42
  72  0.111  0.917  0.205-  34 2.42  43 2.42  38 2.42
  73  0.222  0.833  0.705-  28 2.42  45 2.42  36 2.42
  74  0.111  0.667  0.295-  32 2.42  38 2.42  40 2.42
  75  0.778  0.917  0.205-  27 2.42  37 2.42  34 2.42
  76  0.444  0.167  0.295-  43 2.42  23 2.42  22 2.42
  77  0.556  0.083  0.795-  30 2.42  28 2.42  39 2.42
  78  0.444  0.167  0.205-  43 2.42  23 2.42  22 2.42
  79  0.556  0.083  0.705-  30 2.42  28 2.42  39 2.42
  80  0.444  0.417  0.295-  42 2.42  25 2.42  23 2.42
  81  0.556  0.333  0.795-  31 2.42  39 2.42  24 2.42
  82  0.444  0.417  0.205-  42 2.42  25 2.42  23 2.42
  83  0.556  0.333  0.705-  31 2.42  39 2.42  24 2.42
  84  0.222  0.333  0.705-  24 2.42  44 2.42  41 2.42
  85  0.111  0.417  0.205-  29 2.42  40 2.42  42 2.42
  86  0.444  0.667  0.295-  40 2.42  27 2.42  25 2.42
  87  0.556  0.583  0.795-  33 2.42  24 2.42  26 2.42
  88  0.444  0.667  0.205-  40 2.42  27 2.42  25 2.42
  89  0.556  0.583  0.705-  33 2.42  24 2.42  26 2.42
  90  0.222  0.333  0.795-  24 2.42  44 2.42  41 2.42
  91  0.111  0.417  0.295-  29 2.42  40 2.42  42 2.42
  92  0.556  0.833  0.795-  35 2.42  26 2.42  28 2.42
  93  0.889  0.833  0.705-  36 2.42  33 2.42  35 2.42
 
  LATTYP: Found a simple monoclinic cell.
 ALAT       =    16.8815660915
 B/A-ratio  =     2.0661745669
 C/A-ratio  =     1.4759983605
 COS(beta)  =    -0.9678678488
  
  Lattice vectors:
  
 A1 = ( -12.7612648832, -11.0515787236,   0.0000000000)
 A2 = (   0.0000000000,   0.0000000000, -34.8802625070)
 A3 = (  22.3322113382,  11.0515787236,   0.0000000000)


Analysis of symmetry for initial positions (statically):
=====================================================================
 Subroutine PRICEL returns:
 Original cell was already a primitive cell.
 

 Routine SETGRP: Setting up the symmetry group for a 
 simple monoclinic supercell.


 Subroutine GETGRP returns: Found  1 space group operations
 (whereof  1 operations were pure point group operations)
 out of a pool of  4 trial point group operations.


The static configuration has the point symmetry C_1 .


Analysis of symmetry for dynamics (positions and initial velocities):
=====================================================================
 Subroutine PRICEL returns:
 Original cell was already a primitive cell.
 

 Routine SETGRP: Setting up the symmetry group for a 
 simple monoclinic supercell.


 Subroutine GETGRP returns: Found  1 space group operations
 (whereof  1 operations were pure point group operations)
 out of a pool of  4 trial point group operations.


The dynamic configuration has the point symmetry C_1 .


 Subroutine INISYM returns: Found  1 space group operations
 (whereof  1 operations are pure point group operations),
 and found     1 'primitive' translations

 
 
 KPOINTS: Gamma-point only                        
  k-points in reciprocal lattice
Space group operators:
 irot       det(A)        alpha          n_x          n_y          n_z        tau_x        tau_y        tau_z
    1     1.000000     0.000000     1.000000     0.000000     0.000000     0.000000     0.000000     0.000000


--------------------------------------------------------------------------------------------------------




 Dimension of arrays:
   k-points           NKPTS =      1   k-points in BZ     NKDIM =      1   number of bands    NBANDS=    300
   number of dos      NEDOS =    301   number of ions     NIONS =     93
   non local maximal  LDIM  =      6   non local SUM 2l+1 LMDIM =     18
   total plane-waves  NPLWV = ******
   max r-space proj   IRMAX =   6611   max aug-charges    IRDMAX=  22650
   dimension x,y,z NGX =    64 NGY =   84 NGZ =  240
   dimension x,y,z NGXF=   128 NGYF=  168 NGZF=  480
   support grid    NGXF=   128 NGYF=  168 NGZF=  480
   ions per type =              10   1  10  24  48
 NGX,Y,Z   is equivalent  to a cutoff of  11.12, 10.94, 11.44 a.u.
 NGXF,Y,Z  is equivalent  to a cutoff of  22.23, 21.89, 22.88 a.u.


 I would recommend the setting:
   dimension x,y,z NGX =    62 NGY =   83 NGZ =  228
 SYSTEM =  basalPlane                              
 POSCAR =   C Cr  H Mo  S                          

 Startparameter for this run:
   NWRITE =      2    write-flag & timer
   PREC   = accura    normal or accurate (medium, high low for compatibility)
   ISTART =      0    job   : 0-new  1-cont  2-samecut
   ICHARG =      2    charge: 1-file 2-atom 10-const
   ISPIN  =      1    spin polarized calculation?
   LNONCOLLINEAR =      F non collinear calculations
   LSORBIT =      F    spin-orbit coupling
   INIWAV =      1    electr: 0-lowe 1-rand  2-diag
   LASPH  =      F    aspherical Exc in radial PAW
   METAGGA=      F    non-selfconsistent MetaGGA calc.

 Electronic Relaxation 1
   ENCUT  =  400.0 eV  29.40 Ry    5.42 a.u.  15.61 20.81 56.88*2*pi/ulx,y,z
   ENINI  =  400.0     initial cutoff
   ENAUG  =  645.0 eV  augmentation charge cutoff
   NELM   =    200;   NELMIN=  2; NELMDL= -5     # of ELM steps 
   EDIFF  = 0.1E-03   stopping-criterion for ELM
   LREAL  =      T    real-space projection
   NLSPLINE    = F    spline interpolate recip. space projectors
   LCOMPAT=      F    compatible to vasp.4.4
   GGA_COMPAT  = T    GGA compatible to vasp.4.4-vasp.4.6
   LMAXPAW     = -100 max onsite density
   LMAXMIX     =    2 max onsite mixed and CHGCAR
   VOSKOWN=      0    Vosko Wilk Nusair interpolation
   ROPT   =   -0.00025  -0.00025  -0.00025  -0.00025
   ROPT   =   -0.00025
 Ionic relaxation
   EDIFFG = -.2E-01   stopping-criterion for IOM
   NSW    =  10000    number of steps for IOM
   NBLOCK =      1;   KBLOCK =  10000    inner block; outer block 
   IBRION =      2    ionic relax: 0-MD 1-quasi-New 2-CG
   NFREE  =      1    steps in history (QN), initial steepest desc. (CG)
   ISIF   =      2    stress and relaxation
   IWAVPR =     11    prediction:  0-non 1-charg 2-wave 3-comb
   ISYM   =      2    0-nonsym 1-usesym 2-fastsym
   LCORR  =      T    Harris-Foulkes like correction to forces

   POTIM  = 0.5000    time-step for ionic-motion
   TEIN   =    0.0    initial temperature
   TEBEG  =    0.0;   TEEND  =   0.0 temperature during run
   SMASS  =  -3.00    Nose mass-parameter (am)
   estimated Nose-frequenzy (Omega)   =  0.10E-29 period in steps =****** mass=  -0.209E-26a.u.
   SCALEE = 1.0000    scale energy and forces
   NPACO  =    256;   APACO  = 16.0  distance and # of slots for P.C.
   PSTRESS=    0.0 pullay stress

  Mass of Ions in am
   POMASS =  12.01 52.00  1.00 95.94 32.07
  Ionic Valenz
   ZVAL   =   4.00  6.00  1.00  6.00  6.00
  Atomic Wigner-Seitz radii
   RWIGS  =  -1.00 -1.00 -1.00 -1.00 -1.00
  virtual crystal weights 
   VCA    =   1.00  1.00  1.00  1.00  1.00
   NELECT =     488.0000    total number of electrons
   NUPDOWN=      -1.0000    fix difference up-down

 DOS related values:
   EMIN   =  10.00;   EMAX   =-10.00  energy-range for DOS
   EFERMI =   0.00
   ISMEAR =     0;   SIGMA  =   0.10  broadening in eV -4-tet -1-fermi 0-gaus

 Electronic relaxation 2 (details)
   IALGO  =     38    algorithm
   LDIAG  =      T    sub-space diagonalisation (order eigenvalues)
   LSUBROT=      F    optimize rotation matrix (better conditioning)
   TURBO    =      0    0=normal 1=particle mesh
   IRESTART =      0    0=no restart 2=restart with 2 vectors
   NREBOOT  =      0    no. of reboots
   NMIN     =      0    reboot dimension
   EREF     =   0.00    reference energy to select bands
   IMIX   =      4    mixing-type and parameters
     AMIX     =   0.40;   BMIX     =  1.00
     AMIX_MAG =   1.60;   BMIX_MAG =  1.00
     AMIN     =   0.10
     WC   =   100.;   INIMIX=   1;  MIXPRE=   1;  MAXMIX= -45

 Intra band minimization:
   WEIMIN = 0.0010     energy-eigenvalue tresh-hold
   EBREAK =  0.83E-07  absolut break condition
   DEPER  =   0.30     relativ break condition  

   TIME   =   0.40     timestep for ELM

  volume/ion in A,a.u.               =      39.67       267.71
  Fermi-wavevector in a.u.,A,eV,Ry     =   0.834120  1.576258  9.466334  0.695756
  Thomas-Fermi vector in A             =   1.947458
 
 Write flags
   LWAVE  =      F    write WAVECAR
   LCHARG =      F    write CHGCAR
   LVTOT  =      F    write LOCPOT, total local potential
   LVHAR  =      F    write LOCPOT, Hartree potential only
   LELF   =      F    write electronic localiz. function (ELF)
   LORBIT =      0    0 simple, 1 ext, 2 COOP (PROOUT)


 Dipole corrections
   LMONO  =      F    monopole corrections only (constant potential shift)
   LDIPOL =      F    correct potential (dipole corrections)
   IDIPOL =      0    1-x, 2-y, 3-z, 4-all directions 
   EPSILON=  1.0000000 bulk dielectric constant

 Exchange correlation treatment:
   GGA     =    --    GGA type
   LEXCH   =     8    internal setting for exchange type
   VOSKOWN=      0    Vosko Wilk Nusair interpolation
   LHFCALC =     F    Hartree Fock is set to
   LHFONE  =     F    Hartree Fock one center treatment
   AEXX    =    0.0000 exact exchange contribution

 Linear response parameters
   LEPSILON=     F    determine dielectric tensor
   LRPA    =     F    only Hartree local field effects (RPA)
   LNABLA  =     F    use nabla operator in PAW spheres
   LVEL    =     F    velocity operator in full k-point grid
   LINTERFAST=   F  fast interpolation
   KINTER  =     0    interpolate to denser k-point grid
   CSHIFT  =0.1000    complex shift for real part using Kramers Kronig
   OMEGAMAX=  -1.0    maximum frequency
   DEG_THRESHOLD= 0.2000000E-02 threshold for treating states as degnerate
   RTIME   =    0.100 relaxation time in fs

 Orbital magnetization related:
   ORBITALMAG=     F  switch on orbital magnetization
   LCHIMAG   =     F  perturbation theory with respect to B field
   DQ        =  0.001000  dq finite difference perturbation B field



--------------------------------------------------------------------------------------------------------


 conjugate gradient relaxation of ions
 charge density and potential will be updated during run
 non-spin polarized calculation
 Variant of blocked Davidson
 Davidson routine will perform the subspace rotation
 perform sub-space diagonalisation
    after iterative eigenvector-optimisation
 modified Broyden-mixing scheme, WC =      100.0
 initial mixing is a Kerker type mixing with AMIX =  0.4000 and BMIX =      1.0000
 Hartree-type preconditioning will be used
 using additional bands           56
 real space projection scheme for non local part
 use partial core corrections
 calculate Harris-corrections to forces 
   (improved forces if not selfconsistent)
 use gradient corrections 
 use of overlap-Matrix (Vanderbilt PP)
 Gauss-broadening in eV      SIGMA  =   0.10


--------------------------------------------------------------------------------------------------------


  energy-cutoff  :      400.00
  volume of cell :     3689.43
      direct lattice vectors                 reciprocal lattice vectors
     9.570946455  0.000000000  0.000000000     0.104482875  0.060323179  0.000000000
    -6.380628027 11.051578724  0.000000000     0.000000000  0.090484810  0.000000000
     0.000000000  0.000000000 34.880262507     0.000000000  0.000000000  0.028669509

  length of vectors
     9.570946455 12.761261940 34.880262507     0.120646413  0.090484810  0.028669509


 
 k-points in units of 2pi/SCALE and weight: Gamma-point only                        
   0.00000000  0.00000000  0.00000000       1.000
 
 k-points in reciprocal lattice and weights: Gamma-point only                        
   0.00000000  0.00000000  0.00000000       1.000
 
 position of ions in fractional coordinates (direct lattice) 
   0.57475014  0.63076961  0.94975870
   0.45077080  0.58506059  0.97795263
   0.64229505  0.55333945  0.94814804
   0.55879339  0.45761386  0.97566633
   0.43955050  0.47798143  0.99424984
   0.76241055  0.77010601  0.04363519
   0.78813197  0.60164585  0.05638554
   0.69334665  0.65773206  0.06474681
   0.91384851  0.67843280  0.03068764
   0.89851514  0.78161040  0.02267525
   0.67460279  0.62142027  0.00577607
   0.35468822  0.42133252  0.01621877
   0.59126135  0.62338705  0.08426372
   0.00119333  0.65826171  0.01772877
   0.76642747  0.51490313  0.06725567
   0.72140766  0.83566522  0.04416002
   0.38065353  0.62680726  0.98661543
   0.61627735  0.71404131  0.93356208
   0.74046089  0.56538775  0.92954395
   0.57847524  0.38184513  0.98060810
   0.97447838  0.85475043  0.00316932
   0.55555566  0.08333325  0.25000928
   0.55555566  0.33333325  0.25000928
   0.44444432  0.41666674  0.74999076
   0.55555566  0.58333325  0.25000928
   0.44444432  0.66666674  0.74999076
   0.55555566  0.83333325  0.25000928
   0.44444432  0.91666674  0.74999076
   0.88888899  0.33333325  0.25000928
   0.77777765  0.16666674  0.74999076
   0.77777765  0.41666674  0.74999076
   0.88888899  0.58333325  0.25000928
   0.77777765  0.66666674  0.74999076
   0.88888899  0.83333325  0.25000928
   0.77777765  0.91666674  0.74999076
   0.11111099  0.91666674  0.74999076
   0.88888899  0.08333325  0.25000928
   0.22222233  0.83333325  0.25000928
   0.44444432  0.16666674  0.74999076
   0.22222233  0.58333325  0.25000928
   0.11111099  0.41666674  0.74999076
   0.22222233  0.33333325  0.25000928
   0.22222233  0.08333325  0.25000928
   0.11111099  0.16666674  0.74999076
   0.11111099  0.66666674  0.74999076
   0.77777765  0.16666674  0.29487388
   0.88888899  0.08333325  0.79485533
   0.77777765  0.16666674  0.20514467
   0.88888899  0.08333325  0.70512613
   0.22222233  0.08333325  0.70512613
   0.11111099  0.16666674  0.20514467
   0.77777765  0.41666674  0.29487388
   0.88888899  0.33333325  0.79485533
   0.11111099  0.66666674  0.20514467
   0.55555566  0.83333325  0.70512613
   0.88888899  0.33333325  0.70512613
   0.22222233  0.08333325  0.79485533
   0.11111099  0.16666674  0.29487388
   0.77777765  0.66666674  0.29487388
   0.88888899  0.58333325  0.79485533
   0.77777765  0.66666674  0.20514467
   0.88888899  0.58333325  0.70512613
   0.77777765  0.91666674  0.29487388
   0.88888899  0.83333325  0.79485533
   0.77777765  0.41666674  0.20514467
   0.44444432  0.91666674  0.20514467
   0.44444432  0.91666674  0.29487388
   0.22222233  0.58333325  0.70512613
   0.22222233  0.58333325  0.79485533
   0.11111099  0.91666674  0.29487388
   0.22222233  0.83333325  0.79485533
   0.11111099  0.91666674  0.20514467
   0.22222233  0.83333325  0.70512613
   0.11111099  0.66666674  0.29487388
   0.77777765  0.91666674  0.20514467
   0.44444432  0.16666674  0.29487388
   0.55555566  0.08333325  0.79485533
   0.44444432  0.16666674  0.20514467
   0.55555566  0.08333325  0.70512613
   0.44444432  0.41666674  0.29487388
   0.55555566  0.33333325  0.79485533
   0.44444432  0.41666674  0.20514467
   0.55555566  0.33333325  0.70512613
   0.22222233  0.33333325  0.70512613
   0.11111099  0.41666674  0.20514467
   0.44444432  0.66666674  0.29487388
   0.55555566  0.58333325  0.79485533
   0.44444432  0.66666674  0.20514467
   0.55555566  0.58333325  0.70512613
   0.22222233  0.33333325  0.79485533
   0.11111099  0.41666674  0.29487388
   0.55555566  0.83333325  0.79485533
   0.88888899  0.83333325  0.70512613
 
 position of ions in cartesian coordinates  (Angst):
   1.47619654  6.97100004 33.12783290
   0.58124921  6.46584317 34.11124443
   2.61671836  6.11527447 33.07165253
   2.42831781  5.05735559 34.03149778
   1.15709258  5.28244937 34.67969541
   2.38323060  8.51088721  1.52200680
   3.70429050  6.64913646  1.96674244
   2.43924002  7.26897766  2.25838588
   4.41756788  7.49775346  1.07039298
   3.61247508  8.63802887  0.79091883
   2.49153562  6.86767500  0.20147094
   0.70633583  4.65638956  0.56571487
   1.68132989  6.88941103  2.93914055
  -4.18870185  7.27483108  0.61838405
   4.05003089  5.69049248  2.34589558
   1.57248514  9.23541994  1.54031318
  -0.35620945  6.92720976 34.41340522
   1.34232553  7.89128379 32.56289036
   3.47938261  6.24842720 32.42273712
   3.10014379  4.21999149 34.20386804
   3.87283587  9.44634171  0.11054663
   4.78547502  0.92096394  8.72038942
   3.19031801  3.68385862  8.72038942
   1.59515729  4.60482531 26.15987450
   1.59516100  6.44675330  8.72038942
   0.00000028  7.36771999 26.15987450
   0.00000400  9.20964798  8.72038942
  -1.59515673 10.13061467 26.15987450
   6.38063349  3.68385862  8.72038942
   6.38062978  1.84193063 26.15987450
   4.78547277  4.60482531 26.15987450
   4.78547649  6.44675330  8.72038942
   3.19031576  7.36771999 26.15987450
   3.19031948  9.20964798  8.72038942
   1.59515876 10.13061467 26.15987450
  -4.78547221 10.13061467 26.15987450
   7.97579050  0.92096394  8.72038942
  -3.19031149  9.20964798  8.72038942
   3.19031429  1.84193063 26.15987450
  -1.59515448  6.44675330  8.72038942
  -1.59515820  4.60482531 26.15987450
   0.00000252  3.68385862  8.72038942
   1.59515953  0.92096394  8.72038942
  -0.00000119  1.84193063 26.15987450
  -3.19031521  7.36771999 26.15987450
   6.38062978  1.84193063 10.28527839
   7.97579050  0.92096394 27.72476251
   6.38062978  1.84193063  7.15550000
   7.97579050  0.92096394 24.59498459
   1.59515953  0.92096394 24.59498459
  -0.00000119  1.84193063  7.15550000
   4.78547277  4.60482531 10.28527839
   6.38063349  3.68385862 27.72476251
  -3.19031521  7.36771999  7.15550000
   0.00000400  9.20964798 24.59498459
   6.38063349  3.68385862 24.59498459
   1.59515953  0.92096394 27.72476251
  -0.00000119  1.84193063 10.28527839
   3.19031576  7.36771999 10.28527839
   4.78547649  6.44675330 27.72476251
   3.19031576  7.36771999  7.15550000
   4.78547649  6.44675330 24.59498459
   1.59515876 10.13061467 10.28527839
   3.19031948  9.20964798 27.72476251
   4.78547277  4.60482531  7.15550000
  -1.59515673 10.13061467  7.15550000
  -1.59515673 10.13061467 10.28527839
  -1.59515448  6.44675330 24.59498459
  -1.59515448  6.44675330 27.72476251
  -4.78547221 10.13061467 10.28527839
  -3.19031149  9.20964798 27.72476251
  -4.78547221 10.13061467  7.15550000
  -3.19031149  9.20964798 24.59498459
  -3.19031521  7.36771999 10.28527839
   1.59515876 10.13061467  7.15550000
   3.19031429  1.84193063 10.28527839
   4.78547502  0.92096394 27.72476251
   3.19031429  1.84193063  7.15550000
   4.78547502  0.92096394 24.59498459
   1.59515729  4.60482531 10.28527839
   3.19031801  3.68385862 27.72476251
   1.59515729  4.60482531  7.15550000
   3.19031801  3.68385862 24.59498459
   0.00000252  3.68385862 24.59498459
  -1.59515820  4.60482531  7.15550000
   0.00000028  7.36771999 10.28527839
   1.59516100  6.44675330 27.72476251
   0.00000028  7.36771999  7.15550000
   1.59516100  6.44675330 24.59498459
   0.00000252  3.68385862 27.72476251
  -1.59515820  4.60482531 10.28527839
   0.00000400  9.20964798 27.72476251
   3.19031948  9.20964798 24.59498459
 


--------------------------------------------------------------------------------------------------------


 use parallel FFT for wavefunctions z direction half grid
 k-point  1 :   0.0000 0.0000 0.0000  plane waves:   33544

 maximum and minimum number of plane-waves per node :     11182    11180

 maximum number of plane-waves:     33544
 maximum index in each direction: 
   IXMAX=   15   IYMAX=   20   IZMAX=   56
   IXMIN=  -15   IYMIN=  -20   IZMIN=    0

 NGX is ok and might be reduce to  62
 NGY is ok and might be reduce to  82
 NGZ is ok and might be reduce to 226

 real space projection operators:
  total allocation   :      38919.71 KBytes
  max/ min on nodes  :      13313.44      12800.29


 parallel 3D FFT for wavefunctions:
    minimum data exchange during FFTs selected (reduces bandwidth)
 parallel 3D FFT for charge:
    minimum data exchange during FFTs selected (reduces bandwidth)


 total amount of memory used by VASP on root node   114582. kBytes
========================================================================

   base      :      30000. kBytes
   nonlr-proj:      16359. kBytes
   fftplans  :      19781. kBytes
   grid      :      43661. kBytes
   one-center:        241. kBytes
   wavefun   :       4540. kBytes
 
     INWAV:  cpu time    0.0000: real time    0.0002
 Broyden mixing: mesh for mixing (old mesh)
   NGX = 31   NGY = 41   NGZ =113
  (NGX  =128   NGY  =168   NGZ  =480)
  gives a total of 143623 points

 initial charge density was supplied:
 charge density of overlapping atoms calculated
 number of electron     488.0000000 magnetization 
 keeping initial charge density in first step


--------------------------------------------------------------------------------------------------------


 Maximum index for non-local projection operator         2301
 Maximum index for augmentation-charges         1165 (set IRDMAX)


--------------------------------------------------------------------------------------------------------


 First call to EWALD:  gamma=   0.115
 Maximum number of real-space cells 5x 4x 1
 Maximum number of reciprocal cells 2x 2x 6

 FEWALD executed in parallel
    FEWALD:  cpu time    0.0055: real time    0.0063


----------------------------------------- Iteration    1(   1)  ---------------------------------------


    POTLOK:  cpu time    0.3832: real time    0.3856
    SETDIJ:  cpu time    0.0112: real time    0.0114
     EDDAV:  cpu time    5.2786: real time    5.2999
       DOS:  cpu time    0.0013: real time    0.0013
    --------------------------------------------
      LOOP:  cpu time    5.6791: real time    5.7447

 eigenvalue-minimisations  :   600
 total energy-change (2. order) : 0.4397704E+04  (-0.1798154E+05)
 number of electron     488.0000000 magnetization 
 augmentation part      488.0000000 magnetization 

 Free energy of the ion-electron system (eV)
  ---------------------------------------------------
  alpha Z        PSCENC =       562.39184220
  Ewald energy   TEWEN  =     37333.49982569
  -Hartree energ DENC   =    -56254.73868959
  -exchange      EXHF   =         0.00000000
  -V(xc)+E(xc)   XCENC  =      -737.57571129
  PAW double counting   =     18197.44745459   -16322.33343364
  entropy T*S    EENTRO =        -0.19816866
  eigenvalues    EBANDS =      1238.62118541
  atomic energy  EATOM  =     20380.58938199
  Solvation  Ediel_sol  =         0.00000000
  ---------------------------------------------------
  free energy    TOTEN  =      4397.70368671 eV

  energy without entropy =     4397.90185537  energy(sigma->0) =     4397.80277104


--------------------------------------------------------------------------------------------------------




----------------------------------------- Iteration    1(   2)  ---------------------------------------


     EDDAV:  cpu time    8.6367: real time    8.6688
       DOS:  cpu time    0.0010: real time    0.0010
    --------------------------------------------
      LOOP:  cpu time    8.6407: real time    8.8128

 eigenvalue-minimisations  :   984
 total energy-change (2. order) :-0.4398478E+04  (-0.4222738E+04)
 number of electron     488.0000000 magnetization 
 augmentation part      488.0000000 magnetization 

 Free energy of the ion-electron system (eV)
  ---------------------------------------------------
  alpha Z        PSCENC =       562.39184220
  Ewald energy   TEWEN  =     37333.49982569
  -Hartree energ DENC   =    -56254.73868959
  -exchange      EXHF   =         0.00000000
  -V(xc)+E(xc)   XCENC  =      -737.57571129
  PAW double counting   =     18197.44745459   -16322.33343364
  entropy T*S    EENTRO =        -0.02971810
  eigenvalues    EBANDS =     -3160.02518136
  atomic energy  EATOM  =     20380.58938199
  Solvation  Ediel_sol  =         0.00000000
  ---------------------------------------------------
  free energy    TOTEN  =        -0.77422951 eV

  energy without entropy =       -0.74451140  energy(sigma->0) =       -0.75937045


--------------------------------------------------------------------------------------------------------




----------------------------------------- Iteration    1(   3)  ---------------------------------------


     EDDAV:  cpu time    6.7367: real time    6.7639
       DOS:  cpu time    0.0007: real time    0.0007
    --------------------------------------------
      LOOP:  cpu time    6.7381: real time    6.7679

 eigenvalue-minimisations  :   732
 total energy-change (2. order) :-0.6773735E+03  (-0.6673322E+03)
 number of electron     488.0000000 magnetization 
 augmentation part      488.0000000 magnetization 

 Free energy of the ion-electron system (eV)
  ---------------------------------------------------
  alpha Z        PSCENC =       562.39184220
  Ewald energy   TEWEN  =     37333.49982569
  -Hartree energ DENC   =    -56254.73868959
  -exchange      EXHF   =         0.00000000
  -V(xc)+E(xc)   XCENC  =      -737.57571129
  PAW double counting   =     18197.44745459   -16322.33343364
  entropy T*S    EENTRO =        -0.00000002
  eigenvalues    EBANDS =     -3837.42836258
  atomic energy  EATOM  =     20380.58938199
  Solvation  Ediel_sol  =         0.00000000
  ---------------------------------------------------
  free energy    TOTEN  =      -678.14769265 eV

  energy without entropy =     -678.14769262  energy(sigma->0) =     -678.14769263


--------------------------------------------------------------------------------------------------------




----------------------------------------- Iteration    1(   4)  ---------------------------------------


     EDDAV:  cpu time    7.8566: real time    7.8885
       DOS:  cpu time    0.0007: real time    0.0007
    --------------------------------------------
      LOOP:  cpu time    7.8579: real time    7.8925

 eigenvalue-minimisations  :   888
 total energy-change (2. order) :-0.3570777E+02  (-0.3550406E+02)
 number of electron     488.0000000 magnetization 
 augmentation part      488.0000000 magnetization 

 Free energy of the ion-electron system (eV)
  ---------------------------------------------------
  alpha Z        PSCENC =       562.39184220
  Ewald energy   TEWEN  =     37333.49982569
  -Hartree energ DENC   =    -56254.73868959
  -exchange      EXHF   =         0.00000000
  -V(xc)+E(xc)   XCENC  =      -737.57571129
  PAW double counting   =     18197.44745459   -16322.33343364
  entropy T*S    EENTRO =        -0.00000001
  eigenvalues    EBANDS =     -3873.13613134
  atomic energy  EATOM  =     20380.58938199
  Solvation  Ediel_sol  =         0.00000000
  ---------------------------------------------------
  free energy    TOTEN  =      -713.85546139 eV

  energy without entropy =     -713.85546138  energy(sigma->0) =     -713.85546138


--------------------------------------------------------------------------------------------------------




----------------------------------------- Iteration    1(   5)  ---------------------------------------


     EDDAV:  cpu time    8.2651: real time    8.2909
       DOS:  cpu time    0.0011: real time    0.0011
    CHARGE:  cpu time    0.5565: real time    0.5582
    MIXING:  cpu time    0.0111: real time    0.0111
    --------------------------------------------
      LOOP:  cpu time    8.8343: real time    8.8670

 eigenvalue-minimisations  :   936
 total energy-change (2. order) :-0.1149138E+01  (-0.1142120E+01)
 number of electron     488.0000081 magnetization 
 augmentation part      -19.9736127 magnetization 

 Broyden mixing:
  rms(total) = 0.12257E+02    rms(broyden)= 0.12257E+02
  rms(prec ) = 0.12326E+02
  weight for this iteration     100.00

 Free energy of the ion-electron system (eV)
  ---------------------------------------------------
  alpha Z        PSCENC =       562.39184220
  Ewald energy   TEWEN  =     37333.49982569
  -Hartree energ DENC   =    -56254.73868959
  -exchange      EXHF   =         0.00000000
  -V(xc)+E(xc)   XCENC  =      -737.57571129
  PAW double counting   =     18197.44745459   -16322.33343364
  entropy T*S    EENTRO =        -0.00000001
  eigenvalues    EBANDS =     -3874.28526944
  atomic energy  EATOM  =     20380.58938199
  Solvation  Ediel_sol  =         0.00000000
  ---------------------------------------------------
  free energy    TOTEN  =      -715.00459949 eV

  energy without entropy =     -715.00459948  energy(sigma->0) =     -715.00459949


--------------------------------------------------------------------------------------------------------




----------------------------------------- Iteration    1(   6)  ---------------------------------------


    POTLOK:  cpu time    0.3738: real time    0.3749
    SETDIJ:  cpu time    0.0114: real time    0.0114
     EDDAV:  cpu time    7.2893: real time    7.3253
       DOS:  cpu time    0.0012: real time    0.0012
    CHARGE:  cpu time    0.5519: real time    0.5537
    MIXING:  cpu time    0.0112: real time    0.0113
    --------------------------------------------
      LOOP:  cpu time    8.2403: real time    8.2816

 eigenvalue-minimisations  :   804
 total energy-change (2. order) : 0.1487096E+02  (-0.5966934E+02)
 number of electron     488.0000076 magnetization 
 augmentation part       -1.2051456 magnetization 

 Broyden mixing:
  rms(total) = 0.77014E+01    rms(broyden)= 0.77012E+01
  rms(prec ) = 0.78493E+01
  weight for this iteration     100.00

 eigenvalues of (default mixing * dielectric matrix)
  average eigenvalue GAMMA=   0.8588
  0.8588

 Free energy of the ion-electron system (eV)
  ---------------------------------------------------
  alpha Z        PSCENC =       562.39184220
  Ewald energy   TEWEN  =     37333.49982569
  -Hartree energ DENC   =    -56310.75990015
  -exchange      EXHF   =         0.00000000
  -V(xc)+E(xc)   XCENC  =      -711.11884293
  PAW double counting   =     26281.24379355   -24423.72084498
  entropy T*S    EENTRO =        -0.11258776
  eigenvalues    EBANDS =     -3812.14630656
  atomic energy  EATOM  =     20380.58938199
  Solvation  Ediel_sol  =         0.00000000
  ---------------------------------------------------
  free energy    TOTEN  =      -700.13363896 eV

  energy without entropy =     -700.02105120  energy(sigma->0) =     -700.07734508


--------------------------------------------------------------------------------------------------------




----------------------------------------- Iteration    1(   7)  ---------------------------------------


    POTLOK:  cpu time    0.3712: real time    0.3723
    SETDIJ:  cpu time    0.0112: real time    0.0112
     EDDAV:  cpu time    7.8332: real time    7.8578
       DOS:  cpu time    0.0012: real time    0.0012
    CHARGE:  cpu time    0.5947: real time    0.5966
    MIXING:  cpu time    0.0113: real time    0.0114
    --------------------------------------------
      LOOP:  cpu time    8.8240: real time    8.8539

 eigenvalue-minimisations  :   876
 total energy-change (2. order) :-0.9528874E+01  (-0.8276427E+02)
 number of electron     488.0000074 magnetization 
 augmentation part      -11.7082197 magnetization 

 Broyden mixing:
  rms(total) = 0.43700E+01    rms(broyden)= 0.43699E+01
  rms(prec ) = 0.45475E+01
  weight for this iteration     100.00

 eigenvalues of (default mixing * dielectric matrix)
  average eigenvalue GAMMA=   1.0747
  1.6510  0.4984

 Free energy of the ion-electron system (eV)
  ---------------------------------------------------
  alpha Z        PSCENC =       562.39184220
  Ewald energy   TEWEN  =     37333.49982569
  -Hartree energ DENC   =    -56504.64672178
  -exchange      EXHF   =         0.00000000
  -V(xc)+E(xc)   XCENC  =      -714.18840594
  PAW double counting   =     32300.46201637   -30465.54973414
  entropy T*S    EENTRO =        -0.28034707
  eigenvalues    EBANDS =     -3601.94037068
  atomic energy  EATOM  =     20380.58938199
  Solvation  Ediel_sol  =         0.00000000
  ---------------------------------------------------
  free energy    TOTEN  =      -709.66251337 eV

  energy without entropy =     -709.38216630  energy(sigma->0) =     -709.52233984


--------------------------------------------------------------------------------------------------------




----------------------------------------- Iteration    1(   8)  ---------------------------------------


    POTLOK:  cpu time    0.3719: real time    0.3732
    SETDIJ:  cpu time    0.0111: real time    0.0112
     EDDAV:  cpu time    7.1820: real time    7.2048
       DOS:  cpu time    0.0009: real time    0.0009
    CHARGE:  cpu time    0.5487: real time    0.5503
    MIXING:  cpu time    0.0113: real time    0.0114
    --------------------------------------------
      LOOP:  cpu time    8.1272: real time    8.1563

 eigenvalue-minimisations  :   792
 total energy-change (2. order) : 0.4093330E+02  (-0.1102690E+02)
 number of electron     488.0000077 magnetization 
 augmentation part      -13.9299116 magnetization 

 Broyden mixing:
  rms(total) = 0.27022E+01    rms(broyden)= 0.27021E+01
  rms(prec ) = 0.27837E+01
  weight for this iteration     100.00

 eigenvalues of (default mixing * dielectric matrix)
  average eigenvalue GAMMA=   1.0898
  2.0844  0.5925  0.5925

 Free energy of the ion-electron system (eV)
  ---------------------------------------------------
  alpha Z        PSCENC =       562.39184220
  Ewald energy   TEWEN  =     37333.49982569
  -Hartree energ DENC   =    -56610.96629123
  -exchange      EXHF   =         0.00000000
  -V(xc)+E(xc)   XCENC  =      -710.65517989
  PAW double counting   =     39210.72129151   -37378.08401722
  entropy T*S    EENTRO =        -0.00000246
  eigenvalues    EBANDS =     -3456.22606040
  atomic energy  EATOM  =     20380.58938199
  Solvation  Ediel_sol  =         0.00000000
  ---------------------------------------------------
  free energy    TOTEN  =      -668.72920982 eV

  energy without entropy =     -668.72920736  energy(sigma->0) =     -668.72920859


--------------------------------------------------------------------------------------------------------




----------------------------------------- Iteration    1(   9)  ---------------------------------------


    POTLOK:  cpu time    0.3717: real time    0.3727
    SETDIJ:  cpu time    0.0110: real time    0.0110
     EDDAV:  cpu time    7.3255: real time    7.3485
       DOS:  cpu time    0.0013: real time    0.0013
    CHARGE:  cpu time    0.5453: real time    0.5468
    MIXING:  cpu time    0.0117: real time    0.0118
    --------------------------------------------
      LOOP:  cpu time    8.2676: real time    8.2966

 eigenvalue-minimisations  :   816
 total energy-change (2. order) : 0.1020727E+02  (-0.5729713E+01)
 number of electron     488.0000077 magnetization 
 augmentation part       -9.7875749 magnetization 

 Broyden mixing:
  rms(total) = 0.16348E+01    rms(broyden)= 0.16346E+01
  rms(prec ) = 0.16393E+01
  weight for this iteration     100.00

 eigenvalues of (default mixing * dielectric matrix)
  average eigenvalue GAMMA=   0.9347
  2.1258  0.6451  0.6451  0.3227

 Free energy of the ion-electron system (eV)
  ---------------------------------------------------
  alpha Z        PSCENC =       562.39184220
  Ewald energy   TEWEN  =     37333.49982569
  -Hartree energ DENC   =    -56624.01859657
  -exchange      EXHF   =         0.00000000
  -V(xc)+E(xc)   XCENC  =      -703.34225979
  PAW double counting   =     42349.00133691   -40517.75042964
  entropy T*S    EENTRO =        -0.08289290
  eigenvalues    EBANDS =     -3438.81014993
  atomic energy  EATOM  =     20380.58938199
  Solvation  Ediel_sol  =         0.00000000
  ---------------------------------------------------
  free energy    TOTEN  =      -658.52194204 eV

  energy without entropy =     -658.43904914  energy(sigma->0) =     -658.48049559


--------------------------------------------------------------------------------------------------------




----------------------------------------- Iteration    1(  10)  ---------------------------------------


    POTLOK:  cpu time    0.3702: real time    0.3717
    SETDIJ:  cpu time    0.0112: real time    0.0112
     EDDAV:  cpu time    8.1716: real time    8.1969
       DOS:  cpu time    0.0014: real time    0.0014
    CHARGE:  cpu time    0.5644: real time    0.5661
    MIXING:  cpu time    0.0120: real time    0.0120
    --------------------------------------------
      LOOP:  cpu time    9.1319: real time    9.1629

 eigenvalue-minimisations  :   936
 total energy-change (2. order) :-0.3258581E+00  (-0.7578992E+00)
 number of electron     488.0000076 magnetization 
 augmentation part       -9.4388477 magnetization 

 Broyden mixing:
  rms(total) = 0.14115E+01    rms(broyden)= 0.14114E+01
  rms(prec ) = 0.14180E+01
  weight for this iteration     100.00

 eigenvalues of (default mixing * dielectric matrix)
  average eigenvalue GAMMA=   0.8117
  2.0861  0.6581  0.6581  0.3280  0.3280

 Free energy of the ion-electron system (eV)
  ---------------------------------------------------
  alpha Z        PSCENC =       562.39184220
  Ewald energy   TEWEN  =     37333.49982569
  -Hartree energ DENC   =    -56631.66689912
  -exchange      EXHF   =         0.00000000
  -V(xc)+E(xc)   XCENC  =      -702.65696204
  PAW double counting   =     42578.41923637   -40747.51358626
  entropy T*S    EENTRO =        -0.06135490
  eigenvalues    EBANDS =     -3431.84928410
  atomic energy  EATOM  =     20380.58938199
  Solvation  Ediel_sol  =         0.00000000
  ---------------------------------------------------
  free energy    TOTEN  =      -658.84780018 eV

  energy without entropy =     -658.78644528  energy(sigma->0) =     -658.81712273


--------------------------------------------------------------------------------------------------------




----------------------------------------- Iteration    1(  11)  ---------------------------------------


    POTLOK:  cpu time    0.3712: real time    0.3723
    SETDIJ:  cpu time    0.0112: real time    0.0112
     EDDAV:  cpu time    7.4989: real time    7.5220
       DOS:  cpu time    0.0014: real time    0.0014
    CHARGE:  cpu time    0.5461: real time    0.5478
    MIXING:  cpu time    0.0121: real time    0.0121
    --------------------------------------------
      LOOP:  cpu time    8.4421: real time    8.4705

 eigenvalue-minimisations  :   840
 total energy-change (2. order) : 0.2005824E+00  (-0.3083638E+00)
 number of electron     488.0000077 magnetization 
 augmentation part       -9.4448098 magnetization 

 Broyden mixing:
  rms(total) = 0.13037E+01    rms(broyden)= 0.13035E+01
  rms(prec ) = 0.13078E+01
  weight for this iteration     100.00

 eigenvalues of (default mixing * dielectric matrix)
  average eigenvalue GAMMA=   0.8501
  1.8906  0.8855  0.8855  0.6012  0.6012  0.2368

 Free energy of the ion-electron system (eV)
  ---------------------------------------------------
  alpha Z        PSCENC =       562.39184220
  Ewald energy   TEWEN  =     37333.49982569
  -Hartree energ DENC   =    -56633.16250658
  -exchange      EXHF   =         0.00000000
  -V(xc)+E(xc)   XCENC  =      -702.80240067
  PAW double counting   =     42461.83198573   -40630.34892164
  entropy T*S    EENTRO =        -0.05097520
  eigenvalues    EBANDS =     -3430.59544932
  atomic energy  EATOM  =     20380.58938199
  Solvation  Ediel_sol  =         0.00000000
  ---------------------------------------------------
  free energy    TOTEN  =      -658.64721781 eV

  energy without entropy =     -658.59624261  energy(sigma->0) =     -658.62173021


--------------------------------------------------------------------------------------------------------




----------------------------------------- Iteration    1(  12)  ---------------------------------------


    POTLOK:  cpu time    0.3690: real time    0.3700
    SETDIJ:  cpu time    0.0113: real time    0.0113
     EDDAV:  cpu time    7.8629: real time    7.8879
       DOS:  cpu time    0.0016: real time    0.0016
    CHARGE:  cpu time    0.5731: real time    0.5749
    MIXING:  cpu time    0.0122: real time    0.0123
    --------------------------------------------
      LOOP:  cpu time    8.8311: real time    8.9043

 eigenvalue-minimisations  :   888
 total energy-change (2. order) : 0.3859544E+00  (-0.1227411E+00)
 number of electron     488.0000077 magnetization 
 augmentation part       -9.8103791 magnetization 

 Broyden mixing:
  rms(total) = 0.10456E+01    rms(broyden)= 0.10456E+01
  rms(prec ) = 0.10478E+01
  weight for this iteration     100.00

 eigenvalues of (default mixing * dielectric matrix)
  average eigenvalue GAMMA=   0.9492
  1.9307  1.4377  1.4377  0.5752  0.5752  0.4351  0.2531

 Free energy of the ion-electron system (eV)
  ---------------------------------------------------
  alpha Z        PSCENC =       562.39184220
  Ewald energy   TEWEN  =     37333.49982569
  -Hartree energ DENC   =    -56640.78207128
  -exchange      EXHF   =         0.00000000
  -V(xc)+E(xc)   XCENC  =      -703.01661959
  PAW double counting   =     42187.45065327   -40355.09091860
  entropy T*S    EENTRO =        -0.12522240
  eigenvalues    EBANDS =     -3423.17813472
  atomic energy  EATOM  =     20380.58938199
  Solvation  Ediel_sol  =         0.00000000
  ---------------------------------------------------
  free energy    TOTEN  =      -658.26126344 eV

  energy without entropy =     -658.13604104  energy(sigma->0) =     -658.19865224


--------------------------------------------------------------------------------------------------------




----------------------------------------- Iteration    1(  13)  ---------------------------------------


    POTLOK:  cpu time    0.3726: real time    0.3737
    SETDIJ:  cpu time    0.0110: real time    0.0110
     EDDAV:  cpu time    7.7678: real time    7.8376
       DOS:  cpu time    0.0014: real time    0.0014
    CHARGE:  cpu time    0.5981: real time    0.6000
    MIXING:  cpu time    0.0123: real time    0.0123
    --------------------------------------------
      LOOP:  cpu time    8.7643: real time    8.8403

 eigenvalue-minimisations  :   876
 total energy-change (2. order) :-0.1591654E+01  (-0.1621825E+01)
 number of electron     488.0000074 magnetization 
 augmentation part      -10.6452347 magnetization 

 Broyden mixing:
  rms(total) = 0.19629E+01    rms(broyden)= 0.19627E+01
  rms(prec ) = 0.21967E+01
  weight for this iteration     100.00

 eigenvalues of (default mixing * dielectric matrix)
  average eigenvalue GAMMA=   0.8693
  2.1311  1.3011  1.3011  0.6569  0.6569  0.3309  0.3309  0.2455

 Free energy of the ion-electron system (eV)
  ---------------------------------------------------
  alpha Z        PSCENC =       562.39184220
  Ewald energy   TEWEN  =     37333.49982569
  -Hartree energ DENC   =    -56653.64884865
  -exchange      EXHF   =         0.00000000
  -V(xc)+E(xc)   XCENC  =      -702.35115539
  PAW double counting   =     42295.75682008   -40463.76773962
  entropy T*S    EENTRO =        -0.20468110
  eigenvalues    EBANDS =     -3412.11836230
  atomic energy  EATOM  =     20380.58938199
  Solvation  Ediel_sol  =         0.00000000
  ---------------------------------------------------
  free energy    TOTEN  =      -659.85291711 eV

  energy without entropy =     -659.64823601  energy(sigma->0) =     -659.75057656


--------------------------------------------------------------------------------------------------------




----------------------------------------- Iteration    1(  14)  ---------------------------------------


    POTLOK:  cpu time    0.3892: real time    0.3904
    SETDIJ:  cpu time    0.0162: real time    0.0163
     EDDAV:  cpu time    7.2363: real time    7.2613
       DOS:  cpu time    0.0013: real time    0.0013
    CHARGE:  cpu time    0.5429: real time    0.5447
    MIXING:  cpu time    0.0129: real time    0.0129
    --------------------------------------------
      LOOP:  cpu time    8.2000: real time    8.2303

 eigenvalue-minimisations  :   792
 total energy-change (2. order) : 0.6071590E+00  (-0.1878585E+01)
 number of electron     488.0000077 magnetization 
 augmentation part       -9.0878309 magnetization 

 Broyden mixing:
  rms(total) = 0.98585E+00    rms(broyden)= 0.98503E+00
  rms(prec ) = 0.10115E+01
  weight for this iteration     100.00

 eigenvalues of (default mixing * dielectric matrix)
  average eigenvalue GAMMA=   0.8251
  2.1334  1.3335  1.3335  0.6700  0.6700  0.4604  0.4604  0.2312  0.1337

 Free energy of the ion-electron system (eV)
  ---------------------------------------------------
  alpha Z        PSCENC =       562.39184220
  Ewald energy   TEWEN  =     37333.49982569
  -Hartree energ DENC   =    -56666.71256333
  -exchange      EXHF   =         0.00000000
  -V(xc)+E(xc)   XCENC  =      -701.82712477
  PAW double counting   =     42580.93768928   -40748.16794150
  entropy T*S    EENTRO =        -0.02139874
  eigenvalues    EBANDS =     -3399.93546895
  atomic energy  EATOM  =     20380.58938199
  Solvation  Ediel_sol  =         0.00000000
  ---------------------------------------------------
  free energy    TOTEN  =      -659.24575812 eV

  energy without entropy =     -659.22435939  energy(sigma->0) =     -659.23505875


--------------------------------------------------------------------------------------------------------




----------------------------------------- Iteration    1(  15)  ---------------------------------------


    POTLOK:  cpu time    0.3722: real time    0.3733
    SETDIJ:  cpu time    0.0116: real time    0.0116
     EDDAV:  cpu time    7.4917: real time    7.5160
       DOS:  cpu time    0.0013: real time    0.0013
    CHARGE:  cpu time    0.5431: real time    0.5448
    MIXING:  cpu time    0.0131: real time    0.0131
    --------------------------------------------
      LOOP:  cpu time    8.4342: real time    8.4652

 eigenvalue-minimisations  :   840
 total energy-change (2. order) : 0.3904724E+00  (-0.4800632E-01)
 number of electron     488.0000077 magnetization 
 augmentation part       -9.1224446 magnetization 

 Broyden mixing:
  rms(total) = 0.88819E+00    rms(broyden)= 0.88787E+00
  rms(prec ) = 0.91936E+00
  weight for this iteration     100.00

 eigenvalues of (default mixing * dielectric matrix)
  average eigenvalue GAMMA=   0.7597
  2.1307  1.3333  1.3333  0.6763  0.6763  0.4680  0.4680  0.2389  0.1361  0.1361

 Free energy of the ion-electron system (eV)
  ---------------------------------------------------
  alpha Z        PSCENC =       562.39184220
  Ewald energy   TEWEN  =     37333.49982569
  -Hartree energ DENC   =    -56673.80140241
  -exchange      EXHF   =         0.00000000
  -V(xc)+E(xc)   XCENC  =      -701.81914536
  PAW double counting   =     42588.00394905   -40755.68307546
  entropy T*S    EENTRO =        -0.16977958
  eigenvalues    EBANDS =     -3391.86688186
  atomic energy  EATOM  =     20380.58938199
  Solvation  Ediel_sol  =         0.00000000
  ---------------------------------------------------
  free energy    TOTEN  =      -658.85528574 eV

  energy without entropy =     -658.68550616  energy(sigma->0) =     -658.77039595


--------------------------------------------------------------------------------------------------------




----------------------------------------- Iteration    1(  16)  ---------------------------------------


    POTLOK:  cpu time    0.3717: real time    0.3728
    SETDIJ:  cpu time    0.0110: real time    0.0110
     EDDAV:  cpu time    7.8644: real time    7.8894
       DOS:  cpu time    0.0013: real time    0.0013
    CHARGE:  cpu time    0.5422: real time    0.5438
    MIXING:  cpu time    0.0136: real time    0.0136
    --------------------------------------------
      LOOP:  cpu time    8.8053: real time    8.8365

 eigenvalue-minimisations  :   888
 total energy-change (2. order) : 0.1285220E-01  (-0.6964075E-01)
 number of electron     488.0000077 magnetization 
 augmentation part       -9.1250071 magnetization 

 Broyden mixing:
  rms(total) = 0.91706E+00    rms(broyden)= 0.91683E+00
  rms(prec ) = 0.95149E+00
  weight for this iteration     100.00

 eigenvalues of (default mixing * dielectric matrix)
  average eigenvalue GAMMA=   0.8480
  2.1370  1.6527  1.6527  0.8129  0.8129  0.6199  0.6199  0.4436  0.2424  0.1671
  0.1671

 Free energy of the ion-electron system (eV)
  ---------------------------------------------------
  alpha Z        PSCENC =       562.39184220
  Ewald energy   TEWEN  =     37333.49982569
  -Hartree energ DENC   =    -56676.37714684
  -exchange      EXHF   =         0.00000000
  -V(xc)+E(xc)   XCENC  =      -701.83523592
  PAW double counting   =     42587.78560100   -40755.38696087
  entropy T*S    EENTRO =        -0.09252259
  eigenvalues    EBANDS =     -3389.41721818
  atomic energy  EATOM  =     20380.58938199
  Solvation  Ediel_sol  =         0.00000000
  ---------------------------------------------------
  free energy    TOTEN  =      -658.84243353 eV

  energy without entropy =     -658.74991094  energy(sigma->0) =     -658.79617224


--------------------------------------------------------------------------------------------------------




----------------------------------------- Iteration    1(  17)  ---------------------------------------


[...]
   0.549E+00 0.365E+01 0.144E+03   -.532E+00 -.359E+01 -.144E+03   -.157E-01 -.559E-01 0.647E-02   -.468E-04 -.266E-03 -.352E-01
   0.218E+01 0.264E+01 -.154E+03   -.219E+01 -.270E+01 0.154E+03   0.102E-01 0.525E-01 -.112E-01   0.201E-03 -.407E-03 0.378E-01
   0.214E+01 -.244E+01 0.144E+03   -.212E+01 0.249E+01 -.144E+03   -.181E-01 -.541E-01 0.105E-01   -.197E-03 0.479E-03 -.355E-01
   0.243E+01 -.421E+01 -.148E+03   -.245E+01 0.416E+01 0.148E+03   0.145E-01 0.535E-01 -.106E-01   -.259E-03 0.750E-03 0.368E-01
   0.501E+00 -.364E+01 0.137E+03   -.483E+00 0.370E+01 -.137E+03   -.167E-01 -.596E-01 0.136E-01   -.550E-05 0.104E-02 -.348E-01
   -.854E+00 0.467E+01 -.144E+03   0.834E+00 -.473E+01 0.144E+03   0.168E-01 0.588E-01 -.145E-01   0.273E-03 -.571E-03 0.363E-01
   0.117E+00 0.810E+00 0.136E+03   -.100E+00 -.749E+00 -.136E+03   -.166E-01 -.593E-01 0.108E-01   0.257E-03 -.496E-03 -.348E-01
   -.192E+01 0.319E+01 0.141E+03   0.194E+01 -.313E+01 -.141E+03   -.153E-01 -.538E-01 0.102E-01   0.628E-03 -.135E-02 -.353E-01
   -.282E+01 0.267E+01 -.153E+03   0.280E+01 -.272E+01 0.153E+03   0.183E-01 0.519E-01 -.829E-02   0.378E-03 0.147E-03 0.371E-01
   -.144E+01 -.250E+01 0.146E+03   0.146E+01 0.256E+01 -.146E+03   -.130E-01 -.545E-01 0.120E-01   0.331E-03 -.288E-03 -.359E-01
   -.430E+00 -.498E+01 -.152E+03   0.412E+00 0.492E+01 0.152E+03   0.140E-01 0.581E-01 -.446E-02   0.444E-03 0.821E-03 0.369E-01
   0.629E+00 -.477E+01 0.139E+03   -.612E+00 0.483E+01 -.139E+03   -.160E-01 -.599E-01 0.137E-01   0.143E-03 0.646E-03 -.354E-01
   -.122E+01 -.369E+01 0.138E+03   0.124E+01 0.376E+01 -.138E+03   -.172E-01 -.607E-01 0.130E-01   -.572E-04 0.508E-03 -.352E-01
   0.112E+01 -.233E+01 -.143E+03   -.114E+01 0.226E+01 0.143E+03   0.150E-01 0.618E-01 -.102E-01   0.901E-04 0.401E-03 0.363E-01
   -.191E+01 -.370E+01 -.147E+03   0.189E+01 0.364E+01 0.147E+03   0.196E-01 0.566E-01 -.656E-02   0.141E-04 0.133E-02 0.370E-01
   -.844E+00 0.204E+01 0.137E+03   0.862E+00 -.198E+01 -.137E+03   -.162E-01 -.603E-01 0.959E-02   0.210E-03 0.196E-03 -.347E-01
   0.723E+00 0.206E+01 -.149E+03   -.743E+00 -.212E+01 0.149E+03   0.203E-01 0.541E-01 -.124E-01   -.489E-03 0.577E-03 0.371E-01
   0.129E+01 0.273E+01 0.140E+03   -.127E+01 -.267E+01 -.140E+03   -.189E-01 -.557E-01 0.739E-02   -.439E-03 -.911E-03 -.353E-01
   0.162E+01 0.459E+01 -.145E+03   -.164E+01 -.465E+01 0.145E+03   0.167E-01 0.603E-01 -.148E-01   -.426E-03 -.345E-03 0.368E-01
   -.728E+00 -.136E+01 -.143E+03   0.710E+00 0.129E+01 0.143E+03   0.168E-01 0.638E-01 -.897E-02   -.870E-04 0.239E-03 0.367E-01
   0.641E+00 0.118E+01 0.137E+03   -.621E+00 -.112E+01 -.137E+03   -.168E-01 -.620E-01 0.788E-02   -.354E-03 -.115E-03 -.350E-01
   -.781E+00 -.202E+01 0.141E+03   0.803E+00 0.207E+01 -.141E+03   -.195E-01 -.558E-01 0.123E-01   -.751E-04 -.189E-03 -.354E-01
   -.253E-01 -.389E+00 -.630E+03   -.448E-01 0.884E-01 0.634E+03   0.713E-01 0.301E+00 -.446E+01   0.510E-04 0.129E-03 0.969E-02
   0.181E+01 -.194E+01 -.354E+03   -.173E+01 0.224E+01 0.358E+03   -.711E-01 -.302E+00 -.442E+01   -.646E-03 0.543E-03 -.611E-01
   0.336E+00 0.231E+00 0.351E+03   -.406E+00 -.533E+00 -.356E+03   0.707E-01 0.302E+00 0.442E+01   0.167E-03 0.369E-03 0.611E-01
   0.363E+00 0.235E+00 0.623E+03   -.293E+00 0.651E-01 -.628E+03   -.705E-01 -.301E+00 0.446E+01   -.320E-03 0.347E-04 -.674E-02
   -.826E-01 0.650E+00 0.623E+03   0.152E+00 -.350E+00 -.628E+03   -.704E-01 -.300E+00 0.446E+01   -.106E-03 -.367E-03 -.697E-02
   0.160E+01 -.963E+00 0.348E+03   -.167E+01 0.661E+00 -.352E+03   0.706E-01 0.303E+00 0.442E+01   -.423E-03 0.192E-03 0.616E-01
   -.829E+00 0.168E+01 -.632E+03   0.758E+00 -.198E+01 0.637E+03   0.711E-01 0.300E+00 -.447E+01   0.557E-03 -.761E-03 0.109E-01
   -.113E+01 0.842E+01 -.350E+03   0.120E+01 -.812E+01 0.354E+03   -.706E-01 -.302E+00 -.442E+01   -.151E-03 -.112E-02 -.613E-01
   -.676E+01 -.195E+01 0.332E+03   0.669E+01 0.165E+01 -.337E+03   0.706E-01 0.301E+00 0.443E+01   0.158E-02 -.151E-03 0.649E-01
   0.644E+00 -.121E+01 0.625E+03   -.574E+00 0.151E+01 -.629E+03   -.706E-01 -.299E+00 0.446E+01   0.152E-05 0.341E-03 -.759E-02
   -.203E-01 0.205E+01 0.624E+03   0.907E-01 -.175E+01 -.629E+03   -.705E-01 -.301E+00 0.446E+01   -.178E-03 -.194E-03 -.702E-02
   -.960E+00 0.140E+01 -.353E+03   0.103E+01 -.110E+01 0.357E+03   -.701E-01 -.302E+00 -.443E+01   0.355E-03 -.410E-03 -.610E-01
   0.180E+00 -.556E+00 -.630E+03   -.250E+00 0.256E+00 0.635E+03   0.707E-01 0.301E+00 -.446E+01   0.141E-03 0.916E-04 0.973E-02
   -.321E+00 -.813E+00 -.635E+03   0.251E+00 0.514E+00 0.640E+03   0.710E-01 0.300E+00 -.446E+01   0.637E-04 -.149E-03 0.114E-01
   -.684E+01 0.110E+01 -.336E+03   0.691E+01 -.804E+00 0.341E+03   -.702E-01 -.301E+00 -.440E+01   0.138E-02 -.410E-04 -.643E-01
   -.249E+01 -.240E+01 0.314E+03   0.242E+01 0.210E+01 -.319E+03   0.710E-01 0.300E+00 0.445E+01   0.831E-03 0.529E-03 0.698E-01
   -.649E+00 0.659E+00 0.626E+03   0.719E+00 -.360E+00 -.631E+03   -.704E-01 -.300E+00 0.446E+01   0.303E-03 0.250E-03 -.814E-02
   0.490E+00 -.289E+01 -.632E+03   -.560E+00 0.259E+01 0.637E+03   0.712E-01 0.301E+00 -.446E+01   -.409E-03 0.104E-02 0.105E-01
   -.270E+01 -.107E+02 -.341E+03   0.277E+01 0.110E+02 0.345E+03   -.702E-01 -.301E+00 -.440E+01   0.695E-03 0.210E-02 -.642E-01
   -.623E+01 0.130E+02 0.335E+03   0.616E+01 -.133E+02 -.339E+03   0.718E-01 0.300E+00 0.441E+01   0.177E-02 -.244E-02 0.651E-01
   0.748E+00 -.997E+01 0.345E+03   -.818E+00 0.966E+01 -.349E+03   0.709E-01 0.301E+00 0.443E+01   -.638E-04 0.197E-02 0.625E-01
   -.357E-01 -.238E+01 -.631E+03   -.339E-01 0.208E+01 0.635E+03   0.706E-01 0.300E+00 -.446E+01   -.224E-03 0.874E-03 0.982E-02
   0.584E+00 0.611E+00 0.626E+03   -.514E+00 -.312E+00 -.630E+03   -.701E-01 -.299E+00 0.446E+01   -.551E-03 -.815E-04 -.779E-02
   0.458E+01 0.105E+01 -.340E+03   -.451E+01 -.749E+00 0.345E+03   -.702E-01 -.300E+00 -.443E+01   -.112E-02 -.161E-03 -.634E-01
   -.738E+00 -.265E+01 -.632E+03   0.667E+00 0.235E+01 0.637E+03   0.705E-01 0.301E+00 -.446E+01   0.871E-03 0.819E-03 0.102E-01
   -.169E+01 -.703E+01 -.349E+03   0.176E+01 0.733E+01 0.353E+03   -.701E-01 -.301E+00 -.441E+01   0.382E-03 0.111E-02 -.620E-01
   -.557E+01 -.131E+02 0.337E+03   0.550E+01 0.128E+02 -.342E+03   0.707E-01 0.302E+00 0.445E+01   0.118E-02 0.232E-02 0.639E-01
   -.153E+00 -.897E+00 0.624E+03   0.223E+00 0.120E+01 -.629E+03   -.704E-01 -.299E+00 0.446E+01   -.149E-03 0.220E-03 -.752E-02
   -.829E+00 -.768E+00 -.633E+03   0.758E+00 0.469E+00 0.638E+03   0.702E-01 0.300E+00 -.446E+01   0.920E-03 -.113E-03 0.109E-01
   0.454E+01 -.151E+02 0.335E+03   -.461E+01 0.148E+02 -.340E+03   0.707E-01 0.302E+00 0.444E+01   -.879E-03 0.305E-02 0.645E-01
   -.438E+00 0.140E-01 -.630E+03   0.368E+00 -.313E+00 0.635E+03   0.706E-01 0.299E+00 -.446E+01   0.915E-04 0.269E-03 0.951E-02
   -.565E+00 0.747E+00 -.355E+03   0.635E+00 -.446E+00 0.360E+03   -.702E-01 -.301E+00 -.442E+01   0.122E-03 -.445E-03 -.607E-01
   -.222E+01 0.344E+01 0.348E+03   0.215E+01 -.374E+01 -.353E+03   0.713E-01 0.301E+00 0.442E+01   0.538E-03 -.717E-04 0.620E-01
   -.263E-03 0.562E+00 0.623E+03   0.701E-01 -.262E+00 -.627E+03   -.706E-01 -.300E+00 0.446E+01   0.309E-03 -.366E-03 -.670E-02
   0.383E+00 0.167E+01 -.633E+03   -.452E+00 -.196E+01 0.637E+03   0.705E-01 0.299E+00 -.446E+01   -.589E-03 -.455E-03 0.108E-01
   -.316E+01 0.122E+02 -.342E+03   0.323E+01 -.119E+02 0.346E+03   -.704E-01 -.301E+00 -.443E+01   0.810E-03 -.249E-02 -.632E-01
   0.418E+01 0.135E+02 0.331E+03   -.425E+01 -.138E+02 -.336E+03   0.704E-01 0.299E+00 0.440E+01   -.116E-02 -.252E-02 0.659E-01
   -.313E+00 0.241E+01 0.625E+03   0.382E+00 -.211E+01 -.630E+03   -.705E-01 -.300E+00 0.446E+01   0.661E-03 -.926E-03 -.730E-02
   0.613E+00 0.220E+01 0.625E+03   -.543E+00 -.190E+01 -.629E+03   -.702E-01 -.300E+00 0.446E+01   -.621E-03 -.785E-03 -.729E-02
   0.177E+01 0.877E+01 0.342E+03   -.184E+01 -.907E+01 -.347E+03   0.706E-01 0.301E+00 0.441E+01   -.376E-03 -.202E-02 0.628E-01
   0.869E+00 -.836E+00 -.634E+03   -.938E+00 0.537E+00 0.638E+03   0.706E-01 0.299E+00 -.446E+01   -.708E-03 0.669E-04 0.111E-01
   0.254E+01 0.107E+01 -.327E+03   -.247E+01 -.769E+00 0.332E+03   -.708E-01 -.300E+00 -.443E+01   -.267E-03 -.719E-03 -.670E-01
   0.896E+01 -.229E+01 0.328E+03   -.903E+01 0.199E+01 -.332E+03   0.701E-01 0.300E+00 0.440E+01   -.223E-02 0.584E-03 0.662E-01
   0.345E+00 0.619E+00 0.627E+03   -.275E+00 -.320E+00 -.632E+03   -.705E-01 -.299E+00 0.446E+01   0.200E-03 -.395E-04 -.804E-02
   0.457E+01 0.104E+02 -.344E+03   -.450E+01 -.101E+02 0.349E+03   -.702E-01 -.300E+00 -.445E+01   -.846E-03 -.195E-02 -.626E-01
   0.163E+00 0.125E+01 -.632E+03   -.233E+00 -.155E+01 0.636E+03   0.706E-01 0.300E+00 -.446E+01   0.275E-03 -.700E-03 0.105E-01
   0.467E+01 -.100E+02 -.344E+03   -.460E+01 0.103E+02 0.348E+03   -.715E-01 -.300E+00 -.441E+01   -.119E-02 0.163E-02 -.636E-01
   -.211E+00 -.122E+01 0.625E+03   0.281E+00 0.152E+01 -.630E+03   -.704E-01 -.300E+00 0.446E+01   0.648E-04 0.724E-03 -.774E-02
 -----------------------------------------------------------------------------------------------
   -.112E+01 -.193E+01 0.198E+01   0.247E-12 -.259E-12 0.114E-12   0.112E+01 0.198E+01 -.206E+01   0.403E-06 -.397E-01 0.879E-01
 
 
 POSITION                                       TOTAL-FORCE (eV/Angst)
 -----------------------------------------------------------------------------------
      1.47532      6.96879     33.12406        -0.016983      0.006428     -0.004279
      0.58080      6.46583     34.10893         0.013027      0.010440     -0.000596
      2.61458      6.11360     33.06896         0.009159     -0.013573      0.003120
      2.42681      5.05741     34.03059         0.010847      0.001192     -0.003209
      1.15638      5.28319     34.67940        -0.007605      0.007948      0.008519
      2.38437      8.51036      1.52394        -0.015000      0.000693      0.003171
      3.70641      6.65015      1.96882        -0.001706      0.016552     -0.004031
      2.44109      7.26881      2.26069         0.003083     -0.010388      0.002016
      4.41852      7.49965      1.07295        -0.006119     -0.011528      0.006474
      3.61314      8.63848      0.79317        -0.002889      0.002381      0.001989
      2.49058      6.86762      0.20255        -0.003425     -0.003860      0.003919
      0.70590      4.65802      0.56661        -0.000053      0.008743     -0.002025
      1.68259      6.88844      2.94114         0.012076     -0.000048      0.003358
     -4.18915      7.27650      0.61888         0.008162      0.004890      0.000992
      4.05117      5.69069      2.34684         0.008178     -0.001130      0.005583
      1.57252      9.23401      1.54173         0.007308     -0.010201      0.008255
     -0.35572      6.92879     34.41228        -0.000873      0.005739     -0.006441
      1.34317      7.89007     32.56011         0.002077     -0.011416     -0.010184
      3.47842      6.24708     32.42143        -0.006538     -0.008153     -0.005828
      3.09926      4.22051     34.20439        -0.009032      0.006345     -0.000681
      3.87179      9.44610      0.11165        -0.002555      0.000690      0.005993
      4.78598      0.92658      8.71999        -0.002140      0.000584      0.000811
      3.19088      3.68952      8.71981        -0.002114      0.000482      0.000194
      1.59465      4.59921     26.16048         0.001298     -0.000787     -0.000918
      1.59596      6.45262      8.71974        -0.002119      0.000800     -0.000486
     -0.00039      7.36191     26.16045         0.001261     -0.000958     -0.000734
      0.00063      9.21540      8.71980        -0.002165      0.000725      0.000388
     -1.59564     10.12496     26.16031         0.001380     -0.000800     -0.001122
      6.38114      3.68972      8.71986        -0.003052      0.000164      0.000338
      6.38037      1.83609     26.16021         0.000672     -0.000683     -0.001534
      4.78514      4.59886     26.16031         0.000488     -0.000645     -0.001120
      4.78582      6.45280      8.71961        -0.002924     -0.000272     -0.000209
      3.18987      7.36174     26.16040         0.000357     -0.000595     -0.000733
      3.19091      9.21532      8.71962        -0.003403      0.000184      0.000103
      1.59488     10.12478     26.16028         0.000598     -0.000435     -0.001304
     -4.78602     10.12482     26.16026         0.002377     -0.000346     -0.001424
      7.97638      0.92667      8.71993        -0.003182      0.000063      0.000827
     -3.19016      9.21552      8.71989        -0.000892      0.000143      0.000894
      3.18981      1.83636     26.16028         0.001372     -0.000703     -0.001321
     -1.59497      6.45274      8.71988        -0.000677      0.000374     -0.000014
     -1.59560      4.59896     26.16026         0.002593     -0.000046     -0.001454
      0.00030      3.68974      8.71994        -0.001066      0.000705      0.000161
      1.59541      0.92665      8.72001        -0.001109      0.000428      0.000443
     -0.00052      1.83623     26.16022         0.002783     -0.000110     -0.001904
     -3.19080      7.36183     26.16029         0.002087     -0.000284     -0.000917
      6.38028      1.83899     10.27469         0.001159     -0.000242     -0.002205
      7.97618      0.92394     27.71445        -0.000283      0.000117      0.004465
      6.38026      1.83882      7.16575         0.001035     -0.000276     -0.003178
      7.97616      0.92383     24.60548        -0.000116     -0.000070      0.000559
      1.59553      0.92394     24.60553        -0.000781      0.000339      0.001070
     -0.00033      1.83890      7.16570         0.000662      0.000054     -0.003716
      4.78507      4.60200     10.27453         0.000712      0.000062     -0.002570
      6.38102      3.68671     27.71452        -0.000162     -0.000164      0.004540
     -3.19081      7.36497      7.16540         0.000577      0.000226     -0.004148
      0.00032      9.21257     24.60562        -0.000303      0.000373      0.001329
      6.38098      3.68672     24.60550        -0.000221      0.000170      0.000555
      1.59549      0.92408     27.71444        -0.000816      0.000181      0.003993
     -0.00039      1.83906     10.27474         0.000473      0.000059     -0.001505
      3.19000      7.36484     10.27462         0.000877     -0.000363     -0.002752
      4.78571      6.44950     27.71474        -0.000006      0.000062      0.004581
      3.18989      7.36483      7.16465         0.000975     -0.000189     -0.003237
      4.78577      6.44956     24.60565        -0.000327     -0.000029      0.000720
      1.59489     10.12757     10.27463         0.001138     -0.000705     -0.002570
      3.19060      9.21246     27.71459        -0.000172      0.000253      0.004681
      4.78501      4.60200      7.16541         0.001090     -0.000524     -0.003390
     -1.59554     10.12758      7.16562         0.000725     -0.000482     -0.003146
     -1.59546     10.12756     10.27470         0.000699     -0.000928     -0.002441
     -1.59474      6.44969     24.60558        -0.000554      0.000373      0.001361
     -1.59474      6.44963     27.71459        -0.000895      0.000127      0.004078
     -4.78595     10.12764     10.27473         0.000251     -0.000317     -0.001687
     -3.18997      9.21263     27.71443        -0.000709      0.000192      0.004043
     -4.78589     10.12763      7.16540         0.000658      0.000366     -0.004169
     -3.18994      9.21258     24.60558        -0.000744      0.000146      0.001261
     -3.19081      7.36487     10.27465         0.000146      0.000024     -0.001964
      1.59490     10.12754      7.16534         0.000931      0.000136     -0.003319
      3.18999      1.83894     10.27472         0.000518     -0.000557     -0.002268
      4.78579      0.92409     27.71447        -0.000284      0.000527      0.003785
      3.18995      1.83875      7.16570         0.000683     -0.000891     -0.003049
      4.78576      0.92397     24.60551        -0.000431      0.000553      0.001269
      1.59492      4.60192     10.27457         0.000858     -0.000259     -0.002461
      3.19058      3.68693     27.71475        -0.000317      0.000357      0.003898
      1.59492      4.60199      7.16544         0.000648     -0.001093     -0.003262
      3.19055      3.68690     24.60554        -0.000454      0.000732      0.001533
      0.00044      3.68688     24.60552        -0.000504      0.000559      0.001288
     -1.59553      4.60202      7.16570         0.000549      0.000049     -0.003957
     -0.00023      7.36478     10.27453         0.000834     -0.000568     -0.002539
      1.59550      6.44970     27.71513        -0.000392      0.000637      0.003897
     -0.00012      7.36479      7.16528         0.000312     -0.000492     -0.003231
      1.59544      6.44968     24.60559        -0.000333      0.000618      0.001723
      0.00038      3.68687     27.71465        -0.000873      0.000092      0.004140
     -1.59557      4.60203     10.27467         0.000438      0.000353     -0.001721
      0.00041      9.21259     27.71461        -0.000558      0.000853      0.003937
      3.19064      9.21243     24.60559        -0.000276     -0.000177      0.000699
 -----------------------------------------------------------------------------------
    total drift:                                0.002591      0.002495      0.002735


--------------------------------------------------------------------------------------------------------



  FREE ENERGIE OF THE ION-ELECTRON SYSTEM (eV)
  ---------------------------------------------------
  free  energy   TOTEN  =      -673.06992043 eV

  energy  without entropy=     -672.94426662  energy(sigma->0) =     -673.00709352
 
 d Force = 0.9008647E-04[ 0.639E-04, 0.116E-03]  d Energy = 0.9609450E-04-0.601E-05
 d Force =-0.1882143E+00[-0.188E+00,-0.188E+00]  d Ewald  =-0.1882144E+00 0.183E-07


--------------------------------------------------------------------------------------------------------


    POTLOK:  cpu time    0.3852: real time    0.3861


--------------------------------------------------------------------------------------------------------


 stress matrix after NEB project (eV)
      9.53817     -0.00288     -0.16621
     -0.00288    -11.03778     -0.17568
     -0.16621     -0.17568     -3.73010
  FORCES: max atom, RMS     0.018657    0.006569
  FORCE total and by dimension    0.063350    0.016983
  Stress total and by dimension   15.061209   11.037781


--------------------------------------------------------------------------------------------------------


  
 reached required accuracy - stopping structural energy minimisation
     LOOP+:  cpu time   36.3886: real time   36.5356
    4ORBIT:  cpu time    0.0000: real time    0.0000

 total amount of memory used by VASP on root node   114582. kBytes
========================================================================

   base      :      30000. kBytes
   nonlr-proj:      16359. kBytes
   fftplans  :      19781. kBytes
   grid      :      43661. kBytes
   one-center:        241. kBytes
   wavefun   :       4540. kBytes
 
  
  
 General timing and accounting informations for this job:
 ========================================================
  
                  Total CPU time used (sec):     1028.398
                            User time (sec):      951.226
                          System time (sec):       77.172
                         Elapsed time (sec):     1040.504
  
                   Maximum memory used (kb):      179296.
                   Average memory used (kb):           0.
  
                          Minor page faults:      1141488
                          Major page faults:            0
                 Voluntary context switches:         6773
