<?xml version="1.0" encoding="ISO-8859-1"?>
<modeling>
 <generator>
  <i name="program" type="string">vasp </i>
  <i name="version" type="string">5.4.1  </i>
  <i name="subversion" type="string">05Feb16 (build Apr 21 2017 13:36:42) gamma-only                       parallel </i>
  <i name="platform" type="string">IFC91_ompi </i>
  <i name="date" type="string">2020 09 15 </i>
  <i name="time" type="string">02:02:11 </i>
 </generator>
 <incar>
  <i type="string" name="SYSTEM"> basalPlane</i>
  <i type="int" name="ISTART">     0</i>
  <i type="string" name="PREC">accurate  !=accurate, max(enmax) no wra</i>
  <i type="string" name="ALGO"> Normal    !=Normal, blocked Davidson it</i>
  <i type="int" name="NSIM">     4</i>
  <i type="int" name="ISPIN">     1</i>
  <i type="int" name="ICHARG">     2</i>
  <i type="int" name="INIWAV">     1</i>
  <i type="int" name="NELM">   200</i>
  <i type="int" name="NELMDL">    -5</i>
  <i type="int" name="NELMIN">     2</i>
  <i type="int" name="IBRION">     2</i>
  <i name="EDIFF">      0.00010000</i>
  <i name="EDIFFG">     -0.02000000</i>
  <i type="int" name="NSW"> 10000</i>
  <i type="int" name="ISIF">     2</i>
  <i type="int" name="ISYM">     2</i>
  <i name="ENCUT">    400.00000000</i>
  <i name="ENAUG">    645.00000000</i>
  <i type="string" name="LREAL"> Auto     !=Auto projection operators ev</i>
  <i type="logical" name="LPLANE"> T  </i>
  <i type="int" name="ISMEAR">     0</i>
  <i name="SIGMA">      0.10000000</i>
  <i type="int" name="NWRITE">     2</i>
  <i type="logical" name="LWAVE"> F  </i>
  <i type="logical" name="LCHARG"> F  </i>
  <i type="logical" name="LORBIT"> F  </i>
  <i type="logical" name="LELF"> F  </i>
  <i type="logical" name="LSCALU"> F  </i>
  <v type="int" name="KPOINT_BSE">    -1     0     0     0</v>
  <i type="int" name="NELM">   200</i>
 </incar>
 <kpoints>
  <varray name="kpointlist" >
   <v>       0.00000000       0.00000000       0.00000000 </v>
  </varray>
  <varray name="weights" >
   <v>       1.00000000 </v>
  </varray>
 </kpoints>
 <parameters>
  <separator name="general" >
   <i type="string" name="SYSTEM">basalPlane</i>
   <i type="logical" name="LCOMPAT"> F  </i>
  </separator>
  <separator name="electronic" >
   <i type="string" name="PREC">accura</i>
   <i name="ENMAX">    400.00000000</i>
   <i name="ENAUG">    645.00000000</i>
   <i name="EDIFF">      0.00010000</i>
   <i type="int" name="IALGO">    38</i>
   <i type="int" name="IWAVPR">    11</i>
   <i type="int" name="NBANDS">   300</i>
   <i name="NELECT">    488.00000000</i>
   <i type="int" name="TURBO">     0</i>
   <i type="int" name="IRESTART">     0</i>
   <i type="int" name="NREBOOT">     0</i>
   <i type="int" name="NMIN">     0</i>
   <i name="EREF">      0.00000000</i>
   <separator name="electronic smearing" >
    <i type="int" name="ISMEAR">     0</i>
    <i name="SIGMA">      0.10000000</i>
    <i name="KSPACING">      0.50000000</i>
    <i type="logical" name="KGAMMA"> T  </i>
   </separator>
   <separator name="electronic projectors" >
    <i type="logical" name="LREAL"> T  </i>
    <v name="ROPT">     -0.00025000     -0.00025000     -0.00025000     -0.00025000     -0.00025000</v>
    <i type="int" name="LMAXPAW">  -100</i>
    <i type="int" name="LMAXMIX">     2</i>
    <i type="logical" name="NLSPLINE"> F  </i>
   </separator>
   <separator name="electronic startup" >
    <i type="int" name="ISTART">     0</i>
    <i type="int" name="ICHARG">     2</i>
    <i type="int" name="INIWAV">     1</i>
   </separator>
   <separator name="electronic spin" >
    <i type="int" name="ISPIN">     1</i>
    <i type="logical" name="LNONCOLLINEAR"> F  </i>
    <v name="MAGMOM">      1.00000000      1.00000000      1.00000000      1.00000000      1.00000000      1.00000000      1.00000000      1.00000000      1.00000000      1.00000000      1.00000000      1.00000000      1.00000000      1.00000000      1.00000000      1.00000000      1.00000000      1.00000000      1.00000000      1.00000000
      1.00000000      1.00000000      1.00000000      1.00000000      1.00000000      1.00000000      1.00000000      1.00000000      1.00000000      1.00000000      1.00000000      1.00000000      1.00000000      1.00000000      1.00000000      1.00000000      1.00000000      1.00000000      1.00000000      1.00000000
      1.00000000      1.00000000      1.00000000      1.00000000      1.00000000      1.00000000      1.00000000      1.00000000      1.00000000      1.00000000      1.00000000      1.00000000      1.00000000      1.00000000      1.00000000      1.00000000      1.00000000      1.00000000      1.00000000      1.00000000
      1.00000000      1.00000000      1.00000000      1.00000000      1.00000000      1.00000000      1.00000000      1.00000000      1.00000000      1.00000000      1.00000000      1.00000000      1.00000000      1.00000000      1.00000000      1.00000000      1.00000000      1.00000000      1.00000000      1.00000000
      1.00000000      1.00000000      1.00000000      1.00000000      1.00000000      1.00000000      1.00000000      1.00000000      1.00000000      1.00000000      1.00000000      1.00000000      1.00000000</v>
    <i name="NUPDOWN">     -1.00000000</i>
    <i type="logical" name="LSORBIT"> F  </i>
    <v name="SAXIS">      0.00000000      0.00000000      1.00000000</v>
    <i type="logical" name="LSPIRAL"> F  </i>
    <v name="QSPIRAL">      0.00000000      0.00000000      0.00000000</v>
    <i type="logical" name="LZEROZ"> F  </i>
   </separator>
   <separator name="electronic exchange-correlation" >
    <i type="logical" name="LASPH"> F  </i>
    <i type="logical" name="LMETAGGA"> F  </i>
   </separator>
   <separator name="electronic convergence" >
    <i type="int" name="NELM">   200</i>
    <i type="int" name="NELMDL">    -5</i>
    <i type="int" name="NELMIN">     2</i>
    <i name="ENINI">    400.00000000</i>
    <separator name="electronic convergence detail" >
     <i type="logical" name="LDIAG"> T  </i>
     <i type="logical" name="LSUBROT"> F  </i>
     <i name="WEIMIN">      0.00100000</i>
     <i name="EBREAK">      0.00000008</i>
     <i name="DEPER">      0.30000000</i>
     <i type="int" name="NRMM">     4</i>
     <i name="TIME">      0.40000000</i>
    </separator>
   </separator>
   <separator name="electronic mixer" >
    <i name="AMIX">      0.40000000</i>
    <i name="BMIX">      1.00000000</i>
    <i name="AMIN">      0.10000000</i>
    <i name="AMIX_MAG">      1.60000000</i>
    <i name="BMIX_MAG">      1.00000000</i>
    <separator name="electronic mixer details" >
     <i type="int" name="IMIX">     4</i>
     <i type="logical" name="MIXFIRST"> F  </i>
     <i type="int" name="MAXMIX">   -45</i>
     <i name="WC">    100.00000000</i>
     <i type="int" name="INIMIX">     1</i>
     <i type="int" name="MIXPRE">     1</i>
     <i type="int" name="MREMOVE">     5</i>
    </separator>
   </separator>
   <separator name="electronic dipolcorrection" >
    <i type="logical" name="LDIPOL"> F  </i>
    <i type="logical" name="LMONO"> F  </i>
    <i type="int" name="IDIPOL">     0</i>
    <i name="EPSILON">      1.00000000</i>
    <v name="DIPOL">   -100.00000000   -100.00000000   -100.00000000</v>
    <i name="EFIELD">      0.00000000</i>
   </separator>
  </separator>
  <separator name="grids" >
   <i type="int" name="NGX">    64</i>
   <i type="int" name="NGY">    84</i>
   <i type="int" name="NGZ">   240</i>
   <i type="int" name="NGXF">   128</i>
   <i type="int" name="NGYF">   168</i>
   <i type="int" name="NGZF">   480</i>
   <i type="logical" name="ADDGRID"> F  </i>
  </separator>
  <separator name="ionic" >
   <i type="int" name="NSW"> 10000</i>
   <i type="int" name="IBRION">     2</i>
   <i type="int" name="ISIF">     2</i>
   <i name="PSTRESS">      0.00000000</i>
   <i name="EDIFFG">     -0.02000000</i>
   <i type="int" name="NFREE">     1</i>
   <i name="POTIM">      0.50000000</i>
   <i name="SMASS">     -3.00000000</i>
   <i name="SCALEE">      1.00000000</i>
  </separator>
  <separator name="ionic md" >
   <i name="TEBEG">      0.00010000</i>
   <i name="TEEND">      0.00010000</i>
   <i type="int" name="NBLOCK">     1</i>
   <i type="int" name="KBLOCK"> 10000</i>
   <i type="int" name="NPACO">   256</i>
   <i name="APACO">     16.00000000</i>
  </separator>
  <separator name="symmetry" >
   <i type="int" name="ISYM">     2</i>
   <i name="SYMPREC">      0.00001000</i>
  </separator>
  <separator name="dos" >
   <i type="logical" name="LORBIT"> F  </i>
   <v name="RWIGS">     -1.00000000     -1.00000000     -1.00000000     -1.00000000     -1.00000000</v>
   <i type="int" name="NEDOS">   301</i>
   <i name="EMIN">     10.00000000</i>
   <i name="EMAX">    -10.00000000</i>
   <i name="EFERMI">      0.00000000</i>
  </separator>
  <separator name="writing" >
   <i type="int" name="NWRITE">     2</i>
   <i type="logical" name="LWAVE"> F  </i>
   <i type="logical" name="LCHARG"> F  </i>
   <i type="logical" name="LPARD"> F  </i>
   <i type="logical" name="LVTOT"> F  </i>
   <i type="logical" name="LVHAR"> F  </i>
   <i type="logical" name="LELF"> F  </i>
   <i type="logical" name="LOPTICS"> F  </i>
   <v name="STM">      0.00000000      0.00000000      0.00000000      0.00000000      0.00000000      0.00000000      0.00000000</v>
  </separator>
  <separator name="performance" >
   <i type="int" name="NPAR">    12</i>
   <i type="int" name="NSIM">     4</i>
   <i type="int" name="NBLK">    -1</i>
   <i type="logical" name="LPLANE"> T  </i>
   <i type="logical" name="LSCALAPACK"> T  </i>
   <i type="logical" name="LSCAAWARE"> F  </i>
   <i type="logical" name="LSCALU"> F  </i>
   <i type="logical" name="LASYNC"> F  </i>
   <i type="logical" name="LORBITALREAL"> F  </i>
  </separator>
  <separator name="miscellaneous" >
   <i type="int" name="IDIOT">     3</i>
   <i type="logical" name="LMUSIC"> F  </i>
   <v name="POMASS">     12.01100000     51.99600000      1.00000000     95.94000000     32.06600000</v>
   <v name="DARWINR">      0.00000000      0.00000000      0.00000000      0.00000000      0.00000000</v>
   <v name="DARWINV">      1.00000000      1.00000000      1.00000000      1.00000000      1.00000000</v>
   <i type="logical" name="LCORR"> T  </i>
  </separator>
  <i type="logical" name="GGA_COMPAT"> T  </i>
  <i type="logical" name="LBERRY"> F  </i>
  <i type="int" name="ICORELEVEL">     0</i>
  <i type="logical" name="LDAU"> F  </i>
  <i type="int" name="I_CONSTRAINED_M">     0</i>
  <separator name="electronic exchange-correlation" >
   <i type="string" name="GGA">--</i>
   <i type="int" name="VOSKOWN">     0</i>
   <i type="logical" name="LHFCALC"> F  </i>
   <i type="string" name="PRECFOCK"></i>
   <i type="logical" name="LSYMGRAD"> F  </i>
   <i type="logical" name="LHFONE"> F  </i>
   <i type="logical" name="LRHFCALC"> F  </i>
   <i type="logical" name="LTHOMAS"> F  </i>
   <i type="logical" name="LMODELHF"> F  </i>
   <i name="ENCUT4O">     -1.00000000</i>
   <i type="int" name="EXXOEP">     0</i>
   <i type="int" name="FOURORBIT">     0</i>
   <i name="AEXX">      0.00000000</i>
   <i name="HFALPHA">      0.00000000</i>
   <i name="MCALPHA">      0.00000000</i>
   <i name="ALDAX">      1.00000000</i>
   <i name="AGGAX">      1.00000000</i>
   <i name="ALDAC">      1.00000000</i>
   <i name="AGGAC">      1.00000000</i>
   <i type="int" name="NKREDX">     1</i>
   <i type="int" name="NKREDY">     1</i>
   <i type="int" name="NKREDZ">     1</i>
   <i type="logical" name="SHIFTRED"> F  </i>
   <i type="logical" name="ODDONLY"> F  </i>
   <i type="logical" name="EVENONLY"> F  </i>
   <i type="int" name="LMAXFOCK">     0</i>
   <i type="int" name="NMAXFOCKAE">     0</i>
   <i type="logical" name="LFOCKAEDFT"> F  </i>
   <i name="HFSCREEN">      0.00000000</i>
   <i name="HFSCREENC">      0.00000000</i>
   <i type="int" name="NBANDSGWLOW">     0</i>
  </separator>
  <separator name="vdW DFT" >
   <i type="logical" name="LUSE_VDW"> F  </i>
   <i name="Zab_VDW">     -0.84910000</i>
   <i name="PARAM1">      0.12340000</i>
   <i name="PARAM2">      1.00000000</i>
   <i name="PARAM3">      0.00000000</i>
  </separator>
  <separator name="model GW" >
   <i type="int" name="MODEL_GW">     0</i>
   <i name="MODEL_EPS0">     23.80275655</i>
   <i name="MODEL_ALPHA">      1.00000000</i>
  </separator>
  <separator name="linear response parameters" >
   <i type="logical" name="LEPSILON"> F  </i>
   <i type="logical" name="LRPA"> F  </i>
   <i type="logical" name="LNABLA"> F  </i>
   <i type="logical" name="LVEL"> F  </i>
   <i type="int" name="KINTER">     0</i>
   <i name="CSHIFT">      0.10000000</i>
   <i name="OMEGAMAX">     -1.00000000</i>
   <i name="DEG_THRESHOLD">      0.00200000</i>
  </separator>
  <separator name="orbital magnetization" >
   <i type="logical" name="NUCIND"> F  </i>
   <v name="MAGPOS">      0.00000000      0.00000000      0.00000000</v>
   <i type="logical" name="LNICSALL"> T  </i>
   <i type="logical" name="ORBITALMAG"> F  </i>
   <i type="logical" name="LMAGBLOCH"> F  </i>
   <i type="logical" name="LCHIMAG"> F  </i>
   <i type="logical" name="LGAUGE"> T  </i>
   <i type="int" name="MAGATOM">     0</i>
   <v name="MAGDIPOL">      0.00000000      0.00000000      0.00000000</v>
   <v name="AVECCONST">      0.00000000      0.00000000      0.00000000</v>
  </separator>
  <separator name="response functions" >
   <i type="logical" name="LADDER"> F  </i>
   <i type="logical" name="LFXC"> F  </i>
   <i type="logical" name="LHARTREE"> T  </i>
   <i type="int" name="IBSE">     0</i>
   <v type="int" name="KPOINT">    -1     0     0     0</v>
   <i type="logical" name="LTCTE"> F  </i>
   <i type="logical" name="LTETE"> F  </i>
   <i type="logical" name="LTRIPLET"> F  </i>
   <i type="logical" name="LFXCEPS"> F  </i>
   <i type="logical" name="LFXHEG"> F  </i>
   <i type="int" name="NATURALO">     0</i>
   <i type="logical" name="L2ORDER"> F  </i>
   <i type="logical" name="LUSEW"> F  </i>
   <i name="ENCUTGW">     -2.00000000</i>
   <i name="ENCUTGWSOFT">     -2.00000000</i>
   <i name="ENCUTLF">     -1.00000000</i>
   <i type="int" name="LMAXMP2">    -1</i>
   <i name="SCISSOR">      0.00000000</i>
   <i type="int" name="NOMEGA">     0</i>
   <i type="int" name="NOMEGAR">     0</i>
   <i type="int" name="NBANDSGW">    -1</i>
   <i type="int" name="NBANDSO">    -1</i>
   <i type="int" name="NBANDSV">    -1</i>
   <i type="int" name="NELM">   200</i>
   <i type="int" name="NELMHF">     1</i>
   <i type="int" name="DIM">     3</i>
   <i type="int" name="ANTIRES">     0</i>
   <i name="OMEGAMAX">    -30.00000000</i>
   <i name="OMEGAMIN">    -30.00000000</i>
   <i name="OMEGATL">   -200.00000000</i>
   <i type="int" name="OMEGAGRID">     0</i>
   <i name="CSHIFT">     -0.10000000</i>
   <i type="logical" name="SELFENERGY"> F  </i>
   <i type="logical" name="LSPECTRAL"> F  </i>
   <i type="logical" name="LSPECTRALGW"> F  </i>
   <i type="logical" name="LSINGLES"> F  </i>
   <i type="logical" name="LFERMIGW"> F  </i>
   <i type="logical" name="ODDONLYGW"> F  </i>
   <i type="logical" name="EVENONLYGW"> F  </i>
   <i type="int" name="NKREDLFX">     1</i>
   <i type="int" name="NKREDLFY">     1</i>
   <i type="int" name="NKREDLFZ">     1</i>
   <i type="int" name="MAXMEM">  1800</i>
   <i type="int" name="TELESCOPE">     0</i>
   <i type="int" name="TAUPAR">     1</i>
   <i type="int" name="OMEGAPAR">    -1</i>
   <i name="LAMBDA">      1.00000000</i>
  </separator>
  <separator name="External order field" >
   <i name="OFIELD_KAPPA">      0.00000000</i>
   <v name="OFIELD_K">      0.00000000      0.00000000      0.00000000</v>
   <i name="OFIELD_Q6_NEAR">      0.00000000</i>
   <i name="OFIELD_Q6_FAR">      0.00000000</i>
   <i name="OFIELD_A">      0.00000000</i>
  </separator>
 </parameters>
 <atominfo>
  <atoms>      93 </atoms>
  <types>       5 </types>
  <array name="atoms" >
   <dimension dim="1">ion</dimension>
   <field type="string">element</field>
   <field type="int">atomtype</field>
   <set>
    <rc><c>C </c><c>   1</c></rc>
    <rc><c>C </c><c>   1</c></rc>
    <rc><c>C </c><c>   1</c></rc>
    <rc><c>C </c><c>   1</c></rc>
    <rc><c>C </c><c>   1</c></rc>
    <rc><c>C </c><c>   1</c></rc>
    <rc><c>C </c><c>   1</c></rc>
    <rc><c>C </c><c>   1</c></rc>
    <rc><c>C </c><c>   1</c></rc>
    <rc><c>C </c><c>   1</c></rc>
    <rc><c>Cr</c><c>   2</c></rc>
    <rc><c>H </c><c>   3</c></rc>
    <rc><c>H </c><c>   3</c></rc>
    <rc><c>H </c><c>   3</c></rc>
    <rc><c>H </c><c>   3</c></rc>
    <rc><c>H </c><c>   3</c></rc>
    <rc><c>H </c><c>   3</c></rc>
    <rc><c>H </c><c>   3</c></rc>
    <rc><c>H </c><c>   3</c></rc>
    <rc><c>H </c><c>   3</c></rc>
    <rc><c>H </c><c>   3</c></rc>
    <rc><c>Mo</c><c>   4</c></rc>
    <rc><c>Mo</c><c>   4</c></rc>
    <rc><c>Mo</c><c>   4</c></rc>
    <rc><c>Mo</c><c>   4</c></rc>
    <rc><c>Mo</c><c>   4</c></rc>
    <rc><c>Mo</c><c>   4</c></rc>
    <rc><c>Mo</c><c>   4</c></rc>
    <rc><c>Mo</c><c>   4</c></rc>
    <rc><c>Mo</c><c>   4</c></rc>
    <rc><c>Mo</c><c>   4</c></rc>
    <rc><c>Mo</c><c>   4</c></rc>
    <rc><c>Mo</c><c>   4</c></rc>
    <rc><c>Mo</c><c>   4</c></rc>
    <rc><c>Mo</c><c>   4</c></rc>
    <rc><c>Mo</c><c>   4</c></rc>
    <rc><c>Mo</c><c>   4</c></rc>
    <rc><c>Mo</c><c>   4</c></rc>
    <rc><c>Mo</c><c>   4</c></rc>
    <rc><c>Mo</c><c>   4</c></rc>
    <rc><c>Mo</c><c>   4</c></rc>
    <rc><c>Mo</c><c>   4</c></rc>
    <rc><c>Mo</c><c>   4</c></rc>
    <rc><c>Mo</c><c>   4</c></rc>
    <rc><c>Mo</c><c>   4</c></rc>
    <rc><c>S </c><c>   5</c></rc>
    <rc><c>S </c><c>   5</c></rc>
    <rc><c>S </c><c>   5</c></rc>
    <rc><c>S </c><c>   5</c></rc>
    <rc><c>S </c><c>   5</c></rc>
    <rc><c>S </c><c>   5</c></rc>
    <rc><c>S </c><c>   5</c></rc>
    <rc><c>S </c><c>   5</c></rc>
    <rc><c>S </c><c>   5</c></rc>
    <rc><c>S </c><c>   5</c></rc>
    <rc><c>S </c><c>   5</c></rc>
    <rc><c>S </c><c>   5</c></rc>
    <rc><c>S </c><c>   5</c></rc>
    <rc><c>S </c><c>   5</c></rc>
    <rc><c>S </c><c>   5</c></rc>
    <rc><c>S </c><c>   5</c></rc>
    <rc><c>S </c><c>   5</c></rc>
    <rc><c>S </c><c>   5</c></rc>
    <rc><c>S </c><c>   5</c></rc>
    <rc><c>S </c><c>   5</c></rc>
    <rc><c>S </c><c>   5</c></rc>
    <rc><c>S </c><c>   5</c></rc>
    <rc><c>S </c><c>   5</c></rc>
    <rc><c>S </c><c>   5</c></rc>
    <rc><c>S </c><c>   5</c></rc>
    <rc><c>S </c><c>   5</c></rc>
    <rc><c>S </c><c>   5</c></rc>
    <rc><c>S </c><c>   5</c></rc>
    <rc><c>S </c><c>   5</c></rc>
    <rc><c>S </c><c>   5</c></rc>
    <rc><c>S </c><c>   5</c></rc>
    <rc><c>S </c><c>   5</c></rc>
    <rc><c>S </c><c>   5</c></rc>
    <rc><c>S </c><c>   5</c></rc>
    <rc><c>S </c><c>   5</c></rc>
    <rc><c>S </c><c>   5</c></rc>
    <rc><c>S </c><c>   5</c></rc>
    <rc><c>S </c><c>   5</c></rc>
    <rc><c>S </c><c>   5</c></rc>
    <rc><c>S </c><c>   5</c></rc>
    <rc><c>S </c><c>   5</c></rc>
    <rc><c>S </c><c>   5</c></rc>
    <rc><c>S </c><c>   5</c></rc>
    <rc><c>S </c><c>   5</c></rc>
    <rc><c>S </c><c>   5</c></rc>
    <rc><c>S </c><c>   5</c></rc>
    <rc><c>S </c><c>   5</c></rc>
    <rc><c>S </c><c>   5</c></rc>
   </set>
  </array>
  <array name="atomtypes" >
   <dimension dim="1">type</dimension>
   <field type="int">atomspertype</field>
   <field type="string">element</field>
   <field>mass</field>
   <field>valence</field>
   <field type="string">pseudopotential</field>
   <set>
    <rc><c>  10</c><c>C </c><c>     12.01100000</c><c>      4.00000000</c><c>  PAW_PBE C 08Apr2002                   </c></rc>
    <rc><c>   1</c><c>Cr</c><c>     51.99600000</c><c>      6.00000000</c><c>  PAW_PBE Cr 06Sep2000                  </c></rc>
    <rc><c>  10</c><c>H </c><c>      1.00000000</c><c>      1.00000000</c><c>  PAW_PBE H 15Jun2001                   </c></rc>
    <rc><c>  24</c><c>Mo</c><c>     95.94000000</c><c>      6.00000000</c><c>  PAW_PBE Mo 08Apr2002                  </c></rc>
    <rc><c>  48</c><c>S </c><c>     32.06600000</c><c>      6.00000000</c><c>  PAW_PBE S 06Sep2000                   </c></rc>
   </set>
  </array>
 </atominfo>
 <structure name="initialpos" >
  <crystal>
   <varray name="basis" >
    <v>       9.57094646       0.00000000       0.00000000 </v>
    <v>      -6.38062803      11.05157872       0.00000000 </v>
    <v>       0.00000000       0.00000000      34.88026251 </v>
   </varray>
   <i name="volume">   3689.42726549 </i>
   <varray name="rec_basis" >
    <v>       0.10448287       0.06032318       0.00000000 </v>
    <v>       0.00000000       0.09048481       0.00000000 </v>
    <v>       0.00000000       0.00000000       0.02866951 </v>
   </varray>
  </crystal>
  <varray name="positions" >
   <v>       0.57475014       0.63076961       0.94975870 </v>
   <v>       0.45077080       0.58506059       0.97795263 </v>
   <v>       0.64229505       0.55333945       0.94814804 </v>
   <v>       0.55879339       0.45761386       0.97566633 </v>
   <v>       0.43955050       0.47798143       0.99424984 </v>
   <v>       0.76241055       0.77010601       0.04363519 </v>
   <v>       0.78813197       0.60164585       0.05638554 </v>
   <v>       0.69334665       0.65773206       0.06474681 </v>
   <v>       0.91384851       0.67843280       0.03068764 </v>
   <v>       0.89851514       0.78161040       0.02267525 </v>
   <v>       0.67460279       0.62142027       0.00577607 </v>
   <v>       0.35468822       0.42133252       0.01621877 </v>
   <v>       0.59126135       0.62338705       0.08426372 </v>
   <v>       0.00119333       0.65826171       0.01772877 </v>
   <v>       0.76642747       0.51490313       0.06725567 </v>
   <v>       0.72140766       0.83566522       0.04416002 </v>
   <v>       0.38065353       0.62680726       0.98661543 </v>
   <v>       0.61627735       0.71404131       0.93356208 </v>
   <v>       0.74046089       0.56538775       0.92954395 </v>
   <v>       0.57847524       0.38184513       0.98060810 </v>
   <v>       0.97447838       0.85475043       0.00316932 </v>
   <v>       0.55555566       0.08333325       0.25000928 </v>
   <v>       0.55555566       0.33333325       0.25000928 </v>
   <v>       0.44444432       0.41666674       0.74999076 </v>
   <v>       0.55555566       0.58333325       0.25000928 </v>
   <v>       0.44444432       0.66666674       0.74999076 </v>
   <v>       0.55555566       0.83333325       0.25000928 </v>
   <v>       0.44444432       0.91666674       0.74999076 </v>
   <v>       0.88888899       0.33333325       0.25000928 </v>
   <v>       0.77777765       0.16666674       0.74999076 </v>
   <v>       0.77777765       0.41666674       0.74999076 </v>
   <v>       0.88888899       0.58333325       0.25000928 </v>
   <v>       0.77777765       0.66666674       0.74999076 </v>
   <v>       0.88888899       0.83333325       0.25000928 </v>
   <v>       0.77777765       0.91666674       0.74999076 </v>
   <v>       0.11111099       0.91666674       0.74999076 </v>
   <v>       0.88888899       0.08333325       0.25000928 </v>
   <v>       0.22222233       0.83333325       0.25000928 </v>
   <v>       0.44444432       0.16666674       0.74999076 </v>
   <v>       0.22222233       0.58333325       0.25000928 </v>
   <v>       0.11111099       0.41666674       0.74999076 </v>
   <v>       0.22222233       0.33333325       0.25000928 </v>
   <v>       0.22222233       0.08333325       0.25000928 </v>
   <v>       0.11111099       0.16666674       0.74999076 </v>
   <v>       0.11111099       0.66666674       0.74999076 </v>
   <v>       0.77777765       0.16666674       0.29487388 </v>
   <v>       0.88888899       0.08333325       0.79485533 </v>
   <v>       0.77777765       0.16666674       0.20514467 </v>
   <v>       0.88888899       0.08333325       0.70512613 </v>
   <v>       0.22222233       0.08333325       0.70512613 </v>
   <v>       0.11111099       0.16666674       0.20514467 </v>
   <v>       0.77777765       0.41666674       0.29487388 </v>
   <v>       0.88888899       0.33333325       0.79485533 </v>
   <v>       0.11111099       0.66666674       0.20514467 </v>
   <v>       0.55555566       0.83333325       0.70512613 </v>
   <v>       0.88888899       0.33333325       0.70512613 </v>
   <v>       0.22222233       0.08333325       0.79485533 </v>
   <v>       0.11111099       0.16666674       0.29487388 </v>
   <v>       0.77777765       0.66666674       0.29487388 </v>
   <v>       0.88888899       0.58333325       0.79485533 </v>
   <v>       0.77777765       0.66666674       0.20514467 </v>
   <v>       0.88888899       0.58333325       0.70512613 </v>
   <v>       0.77777765       0.91666674       0.29487388 </v>
   <v>       0.88888899       0.83333325       0.79485533 </v>
   <v>       0.77777765       0.41666674       0.20514467 </v>
   <v>       0.44444432       0.91666674       0.20514467 </v>
   <v>       0.44444432       0.91666674       0.29487388 </v>
   <v>       0.22222233       0.58333325       0.70512613 </v>
   <v>       0.22222233       0.58333325       0.79485533 </v>
   <v>       0.11111099       0.91666674       0.29487388 </v>
   <v>       0.22222233       0.83333325       0.79485533 </v>
   <v>       0.11111099       0.91666674       0.20514467 </v>
   <v>       0.22222233       0.83333325       0.70512613 </v>
   <v>       0.11111099       0.66666674       0.29487388 </v>
   <v>       0.77777765       0.91666674       0.20514467 </v>
   <v>       0.44444432       0.16666674       0.29487388 </v>
   <v>       0.55555566       0.08333325       0.79485533 </v>
   <v>       0.44444432       0.16666674       0.20514467 </v>
   <v>       0.55555566       0.08333325       0.70512613 </v>
   <v>       0.44444432       0.41666674       0.29487388 </v>
   <v>       0.55555566       0.33333325       0.79485533 </v>
   <v>       0.44444432       0.41666674       0.20514467 </v>
   <v>       0.55555566       0.33333325       0.70512613 </v>
   <v>       0.22222233       0.33333325       0.70512613 </v>
   <v>       0.11111099       0.41666674       0.20514467 </v>
   <v>       0.44444432       0.66666674       0.29487388 </v>
   <v>       0.55555566       0.58333325       0.79485533 </v>
   <v>       0.44444432       0.66666674       0.20514467 </v>
   <v>       0.55555566       0.58333325       0.70512613 </v>
   <v>       0.22222233       0.33333325       0.79485533 </v>
   <v>       0.11111099       0.41666674       0.29487388 </v>
   <v>       0.55555566       0.83333325       0.79485533 </v>
   <v>       0.88888899       0.83333325       0.70512613 </v>
  </varray>
 </structure>
 <calculation>
  <scstep>
   <time name="dav">    5.28    5.30</time>
   <time name="total">    5.68    5.74</time>
   <energy>
    <i name="alphaZ">    562.39184220 </i>
    <i name="ewald">  37333.49982569 </i>
    <i name="hartreedc"> -56254.73868959 </i>
    <i name="XCdc">   -737.57571129 </i>
    <i name="pawpsdc">  18197.44745459 </i>
    <i name="pawaedc"> -16322.33343364 </i>
    <i name="eentropy">     -0.19816866 </i>
    <i name="bandstr">   1238.62118541 </i>
    <i name="atom">  20380.58938199 </i>
    <i name="e_fr_energy">   4397.70368671 </i>
    <i name="e_wo_entrp">   4397.90185537 </i>
    <i name="e_0_energy">   4397.80277104 </i>
   </energy>
  </scstep>
  <scstep>
   <time name="dav">    8.64    8.67</time>
   <time name="total">    8.64    8.81</time>
   <energy>
    <i name="e_fr_energy">     -0.77422951 </i>
    <i name="e_wo_entrp">     -0.74451140 </i>
    <i name="e_0_energy">     -0.75937045 </i>
   </energy>
  </scstep>
  <scstep>
   <time name="dav">    6.74    6.76</time>
   <time name="total">    6.74    6.77</time>
   <energy>
    <i name="e_fr_energy">   -678.14769265 </i>
    <i name="e_wo_entrp">   -678.14769262 </i>
    <i name="e_0_energy">   -678.14769263 </i>
   </energy>
  </scstep>
  <scstep>
   <time name="dav">    7.86    7.89</time>
   <time name="total">    7.86    7.89</time>
   <energy>
    <i name="e_fr_energy">   -713.85546139 </i>
    <i name="e_wo_entrp">   -713.85546138 </i>
    <i name="e_0_energy">   -713.85546138 </i>
   </energy>
  </scstep>
  <scstep>
   <time name="dav">    8.27    8.29</time>
   <time name="total">    8.83    8.87</time>
   <energy>
    <i name="e_fr_energy">   -715.00459949 </i>
    <i name="e_wo_entrp">   -715.00459948 </i>
    <i name="e_0_energy">   -715.00459949 </i>
   </energy>
  </scstep>
  <scstep>
   <time name="dav">    7.29    7.33</time>
   <time name="total">    8.24    8.28</time>
   <energy>
    <i name="e_fr_energy">   -700.13363896 </i>
    <i name="e_wo_entrp">   -700.02105120 </i>
    <i name="e_0_energy">   -700.07734508 </i>
   </energy>
  </scstep>
  <scstep>
   <time name="dav">    7.83    7.86</time>
   <time name="total">    8.82    8.85</time>
   <energy>
    <i name="e_fr_energy">   -709.66251337 </i>
    <i name="e_wo_entrp">   -709.38216630 </i>
    <i name="e_0_energy">   -709.52233984 </i>
   </energy>
  </scstep>
  <scstep>
   <time name="dav">    7.18    7.20</time>
   <time name="total">    8.13    8.16</time>
   <energy>
    <i name="e_fr_energy">   -668.72920982 </i>
    <i name="e_wo_entrp">   -668.72920736 </i>
    <i name="e_0_energy">   -668.72920859 </i>
   </energy>
  </scstep>
  <scstep>
   <time name="dav">    7.33    7.35</time>
   <time name="total">    8.27    8.30</time>
   <energy>
    <i name="e_fr_energy">   -658.52194204 </i>
    <i name="e_wo_entrp">   -658.43904914 </i>
    <i name="e_0_energy">   -658.48049559 </i>
   </energy>
  </scstep>
  <scstep>
   <time name="dav">    8.17    8.20</time>
   <time name="total">    9.13    9.16</time>
   <energy>
    <i name="e_fr_energy">   -658.84780018 </i>
    <i name="e_wo_entrp">   -658.78644528 </i>
    <i name="e_0_energy">   -658.81712273 </i>
   </energy>
  </scstep>
  <scstep>
   <time name="dav">    7.50    7.52</time>
   <time name="total">    8.44    8.47</time>
   <energy>
    <i name="e_fr_energy">   -658.64721781 </i>
    <i name="e_wo_entrp">   -658.59624261 </i>
    <i name="e_0_energy">   -658.62173021 </i>
   </energy>
  </scstep>
  <scstep>
   <time name="dav">    7.86    7.89</time>
   <time name="total">    8.83    8.90</time>
   <energy>
    <i name="e_fr_energy">   -658.26126344 </i>
    <i name="e_wo_entrp">   -658.13604104 </i>
    <i name="e_0_energy">   -658.19865224 </i>
   </energy>
  </scstep>
  <scstep>
   <time name="dav">    7.77    7.84</time>
   <time name="total">    8.76    8.84</time>
   <energy>
    <i name="e_fr_energy">   -659.85291711 </i>
    <i name="e_wo_entrp">   -659.64823601 </i>
    <i name="e_0_energy">   -659.75057656 </i>
   </energy>
  </scstep>
  <scstep>
   <time name="dav">    7.24    7.26</time>
   <time name="total">    8.20    8.23</time>
   <energy>
    <i name="e_fr_energy">   -659.24575812 </i>
    <i name="e_wo_entrp">   -659.22435939 </i>
    <i name="e_0_energy">   -659.23505875 </i>
   </energy>
  </scstep>
  <scstep>
   <time name="dav">    7.49    7.52</time>
   <time name="total">    8.43    8.47</time>
   <energy>
    <i name="e_fr_energy">   -658.85528574 </i>
    <i name="e_wo_entrp">   -658.68550616 </i>
    <i name="e_0_energy">   -658.77039595 </i>
   </energy>
  </scstep>
  <scstep>
   <time name="dav">    7.86    7.89</time>
   <time name="total">    8.81    8.84</time>
   <energy>
    <i name="e_fr_energy">   -658.84243353 </i>
    <i name="e_wo_entrp">   -658.74991094 </i>
    <i name="e_0_energy">   -658.79617224 </i>
   </energy>
  </scstep>
  <scstep>
   <time name="dav">    7.57    7.59</time>
   <time name="total">    8.52    8.54</time>
   <energy>
    <i name="e_fr_energy">   -658.86217972 </i>
    <i name="e_wo_entrp">   -658.73705678 </i>
    <i name="e_0_energy">   -658.79961825 </i>
   </energy>
  </scstep>
  <scstep>
   <time name="dav">    7.76    7.78</time>
   <time name="total">    8.71    8.73</time>
   <energy>
    <i name="e_fr_energy">   -658.45365248 </i>
    <i name="e_wo_entrp">   -658.35352784 </i>
    <i name="e_0_energy">   -658.40359016 </i>
   </energy>
  </scstep>
  <scstep>
   <time name="dav">    7.51    7.53</time>
   <time name="total">    8.46    8.50</time>
   <energy>
    <i name="e_fr_energy">   -658.38246836 </i>
    <i name="e_wo_entrp">   -658.26136298 </i>
    <i name="e_0_energy">   -658.32191567 </i>
   </energy>
  </scstep>
  <scstep>
   <time name="dav">    8.02    8.08</time>
   <time name="total">    8.97    9.04</time>
   <energy>
    <i name="e_fr_energy">   -658.38544940 </i>
    <i name="e_wo_entrp">   -658.28030100 </i>
    <i name="e_0_energy">   -658.33287520 </i>
   </energy>
  </scstep>
  <scstep>
   <time name="dav">    7.61    7.63</time>
   <time name="total">    8.56    8.59</time>
   <energy>
    <i name="e_fr_energy">   -658.37430345 </i>
    <i name="e_wo_entrp">   -658.25554409 </i>
    <i name="e_0_energy">   -658.31492377 </i>
   </energy>
  </scstep>
  <scstep>
   <time name="dav">    8.03    8.05</time>
   <time name="total">    8.97    9.00</time>
   <energy>
    <i name="e_fr_energy">   -658.36981230 </i>
    <i name="e_wo_entrp">   -658.26222453 </i>
    <i name="e_0_energy">   -658.31601841 </i>
   </energy>
  </scstep>
  <scstep>
   <time name="dav">    8.10    8.12</time>
   <time name="total">    9.04    9.07</time>
   <energy>
    <i name="e_fr_energy">   -658.32086195 </i>
    <i name="e_wo_entrp">   -658.20837404 </i>
    <i name="e_0_energy">   -658.26461799 </i>
   </energy>
  </scstep>
  <scstep>
   <time name="dav">    7.79    7.80</time>
   <time name="total">    8.74    8.76</time>
   <energy>
    <i name="e_fr_energy">   -658.29634134 </i>
    <i name="e_wo_entrp">   -658.18962869 </i>
    <i name="e_0_energy">   -658.24298501 </i>
   </energy>
  </scstep>
  <scstep>
   <time name="dav">    7.82    7.84</time>
   <time name="total">    8.78    8.80</time>
   <energy>
    <i name="e_fr_energy">   -658.27861897 </i>
    <i name="e_wo_entrp">   -658.16754954 </i>
    <i name="e_0_energy">   -658.22308426 </i>
   </energy>
  </scstep>
  <scstep>
   <time name="dav">    7.77    7.79</time>
   <time name="total">    8.72    8.75</time>
   <energy>
    <i name="e_fr_energy">   -658.26280203 </i>
    <i name="e_wo_entrp">   -658.15410406 </i>
    <i name="e_0_energy">   -658.20845304 </i>
   </energy>
  </scstep>
  <scstep>
   <time name="dav">    7.38    7.41</time>
   <time name="total">    8.33    8.38</time>
   <energy>
    <i name="e_fr_energy">   -658.24567089 </i>
    <i name="e_wo_entrp">   -658.13553365 </i>
    <i name="e_0_energy">   -658.19060227 </i>
   </energy>
  </scstep>
  <scstep>
   <time name="dav">    7.08    7.10</time>
   <time name="total">    8.04    8.07</time>
   <energy>
    <i name="e_fr_energy">   -658.22934098 </i>
    <i name="e_wo_entrp">   -658.12017762 </i>
    <i name="e_0_energy">   -658.17475930 </i>
   </energy>
  </scstep>
  <scstep>
   <time name="dav">    7.06    7.07</time>
   <time name="total">    8.03    8.05</time>
   <energy>
    <i name="e_fr_energy">   -658.21364231 </i>
    <i name="e_wo_entrp">   -658.10393425 </i>
    <i name="e_0_energy">   -658.15878828 </i>
   </energy>
  </scstep>
  <scstep>
   <time name="dav">    6.79    6.81</time>
   <time name="total">    7.76    7.78</time>
   <energy>
    <i name="e_fr_energy">   -658.18568066 </i>
    <i name="e_wo_entrp">   -658.07265415 </i>
    <i name="e_0_energy">   -658.12916740 </i>
   </energy>
  </scstep>
  <scstep>
   <time name="dav">    7.30    7.32</time>
   <time name="total">    8.27    8.29</time>
   <energy>
    <i name="e_fr_energy">   -658.17938874 </i>
    <i name="e_wo_entrp">   -658.06540563 </i>
    <i name="e_0_energy">   -658.12239718 </i>
   </energy>
  </scstep>
  <scstep>
   <time name="dav">    5.44    5.46</time>
   <time name="total">    6.41    6.45</time>
   <energy>
    <i name="e_fr_energy">   -658.18002768 </i>
    <i name="e_wo_entrp">   -658.06724635 </i>
    <i name="e_0_energy">   -658.12363702 </i>
   </energy>
  </scstep>
  <scstep>
   <time name="dav">    6.11    6.13</time>
   <time name="total">    7.10    7.12</time>
   <energy>
    <i name="e_fr_energy">   -658.17288039 </i>
    <i name="e_wo_entrp">   -658.05124696 </i>
    <i name="e_0_energy">   -658.11206367 </i>
   </energy>
  </scstep>
  <scstep>
   <time name="dav">    5.17    5.18</time>
   <time name="total">    6.15    6.17</time>
   <energy>
    <i name="e_fr_energy">   -658.17323325 </i>
    <i name="e_wo_entrp">   -658.05593255 </i>
    <i name="e_0_energy">   -658.11458290 </i>
   </energy>
  </scstep>
  <scstep>
   <time name="dav">    6.82    6.86</time>
   <time name="total">    7.80    7.85</time>
   <energy>
    <i name="e_fr_energy">   -658.16347553 </i>
    <i name="e_wo_entrp">   -658.04088284 </i>
    <i name="e_0_energy">   -658.10217918 </i>
   </energy>
  </scstep>
  <scstep>
   <time name="dav">    6.01    6.03</time>
   <time name="total">    7.01    7.04</time>
   <energy>
    <i name="e_fr_energy">   -658.15947780 </i>
    <i name="e_wo_entrp">   -658.04134629 </i>
    <i name="e_0_energy">   -658.10041205 </i>
   </energy>
  </scstep>
  <scstep>
   <time name="dav">    6.19    6.21</time>
   <time name="total">    7.17    7.19</time>
   <energy>
    <i name="e_fr_energy">   -658.15414959 </i>
    <i name="e_wo_entrp">   -658.03645510 </i>
    <i name="e_0_energy">   -658.09530235 </i>
   </energy>
  </scstep>
  <scstep>
   <time name="dav">    6.73    6.75</time>
   <time name="total">    7.72    7.75</time>
   <energy>
    <i name="e_fr_energy">   -658.14587268 </i>
    <i name="e_wo_entrp">   -658.02407431 </i>
    <i name="e_0_energy">   -658.08497350 </i>
   </energy>
  </scstep>
  <scstep>
   <time name="dav">    6.59    6.61</time>
   <time name="total">    7.58    7.61</time>
   <energy>
    <i name="e_fr_energy">   -658.13953019 </i>
    <i name="e_wo_entrp">   -658.01984448 </i>
    <i name="e_0_energy">   -658.07968733 </i>
   </energy>
  </scstep>
  <scstep>
   <time name="dav">    6.81    6.83</time>
   <time name="total">    7.81    7.83</time>
   <energy>
    <i name="e_fr_energy">   -658.13056194 </i>
    <i name="e_wo_entrp">   -658.01041156 </i>
    <i name="e_0_energy">   -658.07048675 </i>
   </energy>
  </scstep>
  <scstep>
   <time name="dav">    7.01    7.03</time>
   <time name="total">    8.02    8.05</time>
   <energy>
    <i name="e_fr_energy">   -658.12743383 </i>
    <i name="e_wo_entrp">   -657.98334004 </i>
    <i name="e_0_energy">   -658.05538694 </i>
   </energy>
  </scstep>
  <scstep>
   <time name="dav">    6.57    6.59</time>
   <time name="total">    7.58    7.60</time>
   <energy>
    <i name="e_fr_energy">   -658.12612131 </i>
    <i name="e_wo_entrp">   -657.99155133 </i>
    <i name="e_0_energy">   -658.05883632 </i>
   </energy>
  </scstep>
  <scstep>
   <time name="dav">    5.16    5.71</time>
   <time name="total">    6.17    6.73</time>
   <energy>
    <i name="e_fr_energy">   -658.12706376 </i>
    <i name="e_wo_entrp">   -657.98231690 </i>
    <i name="e_0_energy">   -658.05469033 </i>
   </energy>
  </scstep>
  <scstep>
   <time name="dav">    5.52    5.55</time>
   <time name="total">    6.55    6.58</time>
   <energy>
    <i name="e_fr_energy">   -658.12576763 </i>
    <i name="e_wo_entrp">   -657.99725460 </i>
    <i name="e_0_energy">   -658.06151111 </i>
   </energy>
  </scstep>
  <scstep>
   <time name="dav">    5.18    5.19</time>
   <time name="total">    6.18    6.20</time>
   <energy>
    <i name="e_fr_energy">   -658.12546400 </i>
    <i name="e_wo_entrp">   -657.99758322 </i>
    <i name="e_0_energy">   -658.06152361 </i>
   </energy>
  </scstep>
  <scstep>
   <time name="dav">    4.51    4.52</time>
   <time name="total">    4.90    4.92</time>
   <energy>
    <i name="alphaZ">    562.39184220 </i>
    <i name="ewald">  37333.49982569 </i>
    <i name="hartreedc"> -56740.19829313 </i>
    <i name="XCdc">   -700.40517886 </i>
    <i name="pawpsdc">  42708.80463736 </i>
    <i name="pawaedc"> -40876.51824635 </i>
    <i name="eentropy">     -0.12687915 </i>
    <i name="bandstr">  -3326.16248859 </i>
    <i name="atom">  20380.58938199 </i>
    <i name="e_fr_energy">   -658.12539884 </i>
    <i name="e_wo_entrp">   -657.99851969 </i>
    <i name="e_0_energy">   -658.06195927 </i>
   </energy>
  </scstep>
  <structure>
   <crystal>
    <varray name="basis" >
     <v>       9.57094646       0.00000000       0.00000000 </v>
     <v>      -6.38062803      11.05157872       0.00000000 </v>
     <v>       0.00000000       0.00000000      34.88026251 </v>
    </varray>
    <i name="volume">   3689.42726549 </i>
    <varray name="rec_basis" >
     <v>       0.10448287       0.06032318       0.00000000 </v>
     <v>       0.00000000       0.09048481       0.00000000 </v>
     <v>       0.00000000       0.00000000       0.02866951 </v>
    </varray>
   </crystal>
   <varray name="positions" >
    <v>       0.57475014       0.63076961       0.94975870 </v>
    <v>       0.45077080       0.58506059       0.97795263 </v>
    <v>       0.64229505       0.55333945       0.94814804 </v>
    <v>       0.55879339       0.45761386       0.97566633 </v>
    <v>       0.43955050       0.47798143       0.99424984 </v>
    <v>       0.76241055       0.77010601       0.04363519 </v>
    <v>       0.78813197       0.60164585       0.05638554 </v>
    <v>       0.69334665       0.65773206       0.06474681 </v>
    <v>       0.91384851       0.67843280       0.03068764 </v>
    <v>       0.89851514       0.78161040       0.02267525 </v>
    <v>       0.67460279       0.62142027       0.00577607 </v>
    <v>       0.35468822       0.42133252       0.01621877 </v>
    <v>       0.59126135       0.62338705       0.08426372 </v>
    <v>       0.00119333       0.65826171       0.01772877 </v>
    <v>       0.76642747       0.51490313       0.06725567 </v>
    <v>       0.72140766       0.83566522       0.04416002 </v>
    <v>       0.38065353       0.62680726       0.98661543 </v>
    <v>       0.61627735       0.71404131       0.93356208 </v>
    <v>       0.74046089       0.56538775       0.92954395 </v>
    <v>       0.57847524       0.38184513       0.98060810 </v>
    <v>       0.97447838       0.85475043       0.00316932 </v>
    <v>       0.55555566       0.08333325       0.25000928 </v>
    <v>       0.55555566       0.33333325       0.25000928 </v>
    <v>       0.44444432       0.41666674       0.74999076 </v>
    <v>       0.55555566       0.58333325       0.25000928 </v>
    <v>       0.44444432       0.66666674       0.74999076 </v>
    <v>       0.55555566       0.83333325       0.25000928 </v>
    <v>       0.44444432       0.91666674       0.74999076 </v>
    <v>       0.88888899       0.33333325       0.25000928 </v>
    <v>       0.77777765       0.16666674       0.74999076 </v>
    <v>       0.77777765       0.41666674       0.74999076 </v>
    <v>       0.88888899       0.58333325       0.25000928 </v>
    <v>       0.77777765       0.66666674       0.74999076 </v>
    <v>       0.88888899       0.83333325       0.25000928 </v>
    <v>       0.77777765       0.91666674       0.74999076 </v>
    <v>       0.11111099       0.91666674       0.74999076 </v>
    <v>       0.88888899       0.08333325       0.25000928 </v>
    <v>       0.22222233       0.83333325       0.25000928 </v>
    <v>       0.44444432       0.16666674       0.74999076 </v>
    <v>       0.22222233       0.58333325       0.25000928 </v>
    <v>       0.11111099       0.41666674       0.74999076 </v>
    <v>       0.22222233       0.33333325       0.25000928 </v>
    <v>       0.22222233       0.08333325       0.25000928 </v>
    <v>       0.11111099       0.16666674       0.74999076 </v>
    <v>       0.11111099       0.66666674       0.74999076 </v>
    <v>       0.77777765       0.16666674       0.29487388 </v>
    <v>       0.88888899       0.08333325       0.79485533 </v>
    <v>       0.77777765       0.16666674       0.20514467 </v>
    <v>       0.88888899       0.08333325       0.70512613 </v>
    <v>       0.22222233       0.08333325       0.70512613 </v>
    <v>       0.11111099       0.16666674       0.20514467 </v>
    <v>       0.77777765       0.41666674       0.29487388 </v>
    <v>       0.88888899       0.33333325       0.79485533 </v>
    <v>       0.11111099       0.66666674       0.20514467 </v>
    <v>       0.55555566       0.83333325       0.70512613 </v>
    <v>       0.88888899       0.33333325       0.70512613 </v>
    <v>       0.22222233       0.08333325       0.79485533 </v>
    <v>       0.11111099       0.16666674       0.29487388 </v>
    <v>       0.77777765       0.66666674       0.29487388 </v>
    <v>       0.88888899       0.58333325       0.79485533 </v>
    <v>       0.77777765       0.66666674       0.20514467 </v>
    <v>       0.88888899       0.58333325       0.70512613 </v>
    <v>       0.77777765       0.91666674       0.29487388 </v>
    <v>       0.88888899       0.83333325       0.79485533 </v>
    <v>       0.77777765       0.41666674       0.20514467 </v>
    <v>       0.44444432       0.91666674       0.20514467 </v>
    <v>       0.44444432       0.91666674       0.29487388 </v>
    <v>       0.22222233       0.58333325       0.70512613 </v>
    <v>       0.22222233       0.58333325       0.79485533 </v>
    <v>       0.11111099       0.91666674       0.29487388 </v>
    <v>       0.22222233       0.83333325       0.79485533 </v>
    <v>       0.11111099       0.91666674       0.20514467 </v>
    <v>       0.22222233       0.83333325       0.70512613 </v>
    <v>       0.11111099       0.66666674       0.29487388 </v>
    <v>       0.77777765       0.91666674       0.20514467 </v>
    <v>       0.44444432       0.16666674       0.29487388 </v>
    <v>       0.55555566       0.08333325       0.79485533 </v>
    <v>       0.44444432       0.16666674       0.20514467 </v>
    <v>       0.55555566       0.08333325       0.70512613 </v>
    <v>       0.44444432       0.41666674       0.29487388 </v>
    <v>       0.55555566       0.33333325       0.79485533 </v>
    <v>       0.44444432       0.41666674       0.20514467 </v>
    <v>       0.55555566       0.33333325       0.70512613 </v>
    <v>       0.22222233       0.33333325       0.70512613 </v>
    <v>       0.11111099       0.41666674       0.20514467 </v>
    <v>       0.44444432       0.66666674       0.29487388 </v>
    <v>       0.55555566       0.58333325       0.79485533 </v>
    <v>       0.44444432       0.66666674       0.20514467 </v>
    <v>       0.55555566       0.58333325       0.70512613 </v>
    <v>       0.22222233       0.33333325       0.79485533 </v>
    <v>       0.11111099       0.41666674       0.29487388 </v>
    <v>       0.55555566       0.83333325       0.79485533 </v>
    <v>       0.88888899       0.83333325       0.70512613 </v>
   </varray>
  </structure>
  <varray name="forces" >
   <v>      -0.01158281      -0.04937970      -0.02861507 </v>
   <v>       0.01445118       0.00704482      -0.01401970 </v>
   <v>      -0.01011025       0.01456194      -0.01547344 </v>
   <v>      -0.01341628       0.00853776      -0.00082581 </v>
   <v>      -0.00366220       0.00524853      -0.01044036 </v>
   <v>       0.01417195       0.00082180      -0.01370083 </v>
   <v>       0.01649491       0.04090204       0.00111219 </v>
   <v>       0.01568304      -0.01596283       0.00044748 </v>
   <v>      -0.00881889       0.01441686       0.00592405 </v>
   <v>       0.01992369      -0.01015323       0.04137688 </v>
   <v>      -0.01592553      -0.01220589       0.03026764 </v>
   <v>      -0.00190984       0.00853298       0.00800688 </v>
   <v>      -0.00192397      -0.00342802       0.01067351 </v>
   <v>      -0.00438277       0.00787984       0.00351506 </v>
   <v>       0.00270582      -0.00700020       0.00301922 </v>
   <v>       0.00108065      -0.00954720       0.00757296 </v>
   <v>      -0.00694418       0.00815559       0.00018839 </v>
   <v>       0.00604378       0.00269564      -0.00791330 </v>
   <v>      -0.00152984      -0.00737845      -0.00751316 </v>
   <v>      -0.00121750       0.00188925       0.00240566 </v>
   <v>      -0.00724541      -0.00638031       0.00233493 </v>
   <v>       0.01799499       0.17612830      -0.00525122 </v>
   <v>       0.01911177       0.17575611      -0.00555388 </v>
   <v>      -0.01711424      -0.17618784       0.00664380 </v>
   <v>       0.02166202       0.17771016      -0.00423454 </v>
   <v>      -0.01599899      -0.17740523       0.00592464 </v>
   <v>       0.01912034       0.17792490      -0.00513282 </v>
   <v>      -0.01696060      -0.17584344       0.00555823 </v>
   <v>       0.01956184       0.17596373      -0.00545299 </v>
   <v>      -0.01105533      -0.17810267       0.00522115 </v>
   <v>      -0.01167912      -0.17938221       0.00470241 </v>
   <v>       0.01822727       0.17818113      -0.00658741 </v>
   <v>      -0.01318365      -0.17874076       0.00469921 </v>
   <v>       0.02020367       0.17534240      -0.00708484 </v>
   <v>      -0.01132773      -0.17747293       0.00499478 </v>
   <v>      -0.01792563      -0.17573027       0.00443138 </v>
   <v>       0.01963486       0.17567292      -0.00489678 </v>
   <v>       0.01054690       0.17774655      -0.00541080 </v>
   <v>      -0.01655622      -0.17575858       0.00533115 </v>
   <v>       0.00999739       0.17775844      -0.00353658 </v>
   <v>      -0.01700867      -0.17656545       0.00465809 </v>
   <v>       0.01145686       0.17707915      -0.00434842 </v>
   <v>       0.01208138       0.17624977      -0.00477772 </v>
   <v>      -0.01825587      -0.17516070       0.00449908 </v>
   <v>      -0.01680800      -0.17603754       0.00383175 </v>
   <v>      -0.00953237      -0.08842648      -0.19541100 </v>
   <v>       0.00802030       0.08935060      -0.19476574 </v>
   <v>      -0.00944547      -0.08960949       0.19797142 </v>
   <v>       0.00780461       0.08833193       0.19187531 </v>
   <v>       0.00881286       0.08848550       0.19171891 </v>
   <v>      -0.00848052      -0.08984593       0.19769514 </v>
   <v>      -0.00947582      -0.08851513      -0.19570208 </v>
   <v>       0.00792964       0.08854415      -0.19384516 </v>
   <v>      -0.00992419      -0.08801035       0.19538493 </v>
   <v>       0.00793919       0.08854572       0.19206760 </v>
   <v>       0.00771111       0.08831498       0.19163167 </v>
   <v>       0.00864558       0.08982534      -0.19436791 </v>
   <v>      -0.00865402      -0.08825265      -0.19558017 </v>
   <v>      -0.00954706      -0.08851820      -0.19507384 </v>
   <v>       0.00660636       0.08785743      -0.19118456 </v>
   <v>      -0.00989707      -0.08829844       0.18837844 </v>
   <v>       0.00784053       0.08828806       0.19216849 </v>
   <v>      -0.00962581      -0.08851331      -0.19522791 </v>
   <v>       0.00719400       0.08780398      -0.19332785 </v>
   <v>      -0.01032709      -0.08715317       0.19529074 </v>
   <v>      -0.00885474      -0.08887634       0.19702218 </v>
   <v>      -0.00852548      -0.08841023      -0.19533775 </v>
   <v>       0.00857279       0.08850748       0.19181080 </v>
   <v>       0.00940029       0.08838142      -0.19339055 </v>
   <v>      -0.00855149      -0.08829474      -0.19513796 </v>
   <v>       0.00881008       0.08886158      -0.19498377 </v>
   <v>      -0.00933614      -0.08966324       0.19559067 </v>
   <v>       0.00884662       0.08838044       0.19209722 </v>
   <v>      -0.00836777      -0.08829114      -0.19535764 </v>
   <v>      -0.00848962      -0.09002460       0.19470966 </v>
   <v>      -0.00863091      -0.08837642      -0.19560669 </v>
   <v>       0.00784459       0.08945028      -0.19481664 </v>
   <v>      -0.00882918      -0.08958888       0.19795039 </v>
   <v>       0.00801380       0.08843357       0.19170431 </v>
   <v>      -0.00869334      -0.08837372      -0.19597600 </v>
   <v>       0.00721957       0.08957844      -0.19229253 </v>
   <v>      -0.00790093      -0.08691060       0.19489239 </v>
   <v>       0.00797228       0.08853990       0.19160045 </v>
   <v>       0.00883439       0.08849596       0.19152987 </v>
   <v>      -0.00867361      -0.08820589       0.19795089 </v>
   <v>      -0.00869181      -0.08831481      -0.19580943 </v>
   <v>       0.00831740       0.08831713      -0.18871099 </v>
   <v>      -0.00665366      -0.08808633       0.19261144 </v>
   <v>       0.00804607       0.08849831       0.19176849 </v>
   <v>       0.00928646       0.08930317      -0.19309658 </v>
   <v>      -0.00856173      -0.08814787      -0.19577446 </v>
   <v>       0.00860037       0.08796633      -0.19343730 </v>
   <v>       0.00779011       0.08826906       0.19222228 </v>
  </varray>
  <varray name="stress" >
   <v>       1.35997258      -0.02165117       0.01857208 </v>
   <v>      -0.02165118      -6.30617954      -0.05525576 </v>
   <v>       0.01857199      -0.05525576      -7.72454833 </v>
  </varray>
  <energy>
   <i name="e_fr_energy">   -673.00187039 </i>
   <i name="e_wo_entrp">   -672.93843082 </i>
   <i name="e_0_energy">     -0.12687915 </i>
  </energy>
  <time name="totalsc">  373.93  376.17</time>
 </calculation>
 <calculation>
  <scstep>
   <time name="dav">    5.97    5.99</time>
   <time name="total">    6.96    6.98</time>
   <energy>
    <i name="alphaZ">    562.39184220 </i>
    <i name="ewald">  37555.09380787 </i>
    <i name="hartreedc"> -56952.71689701 </i>
    <i name="XCdc">   -699.35793243 </i>
    <i name="pawpsdc">  42709.66595712 </i>
    <i name="pawaedc"> -40877.38430577 </i>
    <i name="eentropy">     -0.13933582 </i>
    <i name="bandstr">  -3336.27840902 </i>
    <i name="atom">  20380.58938199 </i>
    <i name="e_fr_energy">   -658.13589087 </i>
    <i name="e_wo_entrp">   -657.99655505 </i>
    <i name="e_0_energy">   -658.06622296 </i>
   </energy>
  </scstep>
  <scstep>
   <time name="dav">    6.49    6.51</time>
   <time name="total">    7.42    7.49</time>
   <energy>
    <i name="e_fr_energy">   -658.22455729 </i>
    <i name="e_wo_entrp">   -658.11832119 </i>
    <i name="e_0_energy">   -658.17143924 </i>
   </energy>
  </scstep>
  <scstep>
   <time name="dav">    7.38    7.40</time>
   <time name="total">    8.36    8.39</time>
   <energy>
    <i name="e_fr_energy">   -658.39339903 </i>
    <i name="e_wo_entrp">   -658.18409401 </i>
    <i name="e_0_energy">   -658.28874652 </i>
   </energy>
  </scstep>
  <scstep>
   <time name="dav">    6.74    6.78</time>
   <time name="total">    7.67    7.96</time>
   <energy>
    <i name="e_fr_energy">   -658.25420285 </i>
    <i name="e_wo_entrp">   -658.14728709 </i>
    <i name="e_0_energy">   -658.20074497 </i>
   </energy>
  </scstep>
  <scstep>
   <time name="dav">    6.59    6.61</time>
   <time name="total">    7.53    7.56</time>
   <energy>
    <i name="e_fr_energy">   -658.21225878 </i>
    <i name="e_wo_entrp">   -658.10764920 </i>
    <i name="e_0_energy">   -658.15995399 </i>
   </energy>
  </scstep>
  <scstep>
   <time name="dav">    7.05    7.07</time>
   <time name="total">    8.02    8.04</time>
   <energy>
    <i name="e_fr_energy">   -658.18974758 </i>
    <i name="e_wo_entrp">   -658.09075876 </i>
    <i name="e_0_energy">   -658.14025317 </i>
   </energy>
  </scstep>
  <scstep>
   <time name="dav">    7.01    7.03</time>
   <time name="total">    7.97    8.01</time>
   <energy>
    <i name="e_fr_energy">   -658.18644634 </i>
    <i name="e_wo_entrp">   -658.04230499 </i>
    <i name="e_0_energy">   -658.11437566 </i>
   </energy>
  </scstep>
  <scstep>
   <time name="dav">    6.61    6.63</time>
   <time name="total">    7.58    7.61</time>
   <energy>
    <i name="e_fr_energy">   -658.17789547 </i>
    <i name="e_wo_entrp">   -658.04712802 </i>
    <i name="e_0_energy">   -658.11251175 </i>
   </energy>
  </scstep>
  <scstep>
   <time name="dav">    6.35    6.37</time>
   <time name="total">    7.32    7.52</time>
   <energy>
    <i name="e_fr_energy">   -658.17456864 </i>
    <i name="e_wo_entrp">   -658.03058054 </i>
    <i name="e_0_energy">   -658.10257459 </i>
   </energy>
  </scstep>
  <scstep>
   <time name="dav">    6.71    6.74</time>
   <time name="total">    7.68    7.72</time>
   <energy>
    <i name="e_fr_energy">   -658.17166716 </i>
    <i name="e_wo_entrp">   -658.03867302 </i>
    <i name="e_0_energy">   -658.10517009 </i>
   </energy>
  </scstep>
  <scstep>
   <time name="dav">    5.44    5.45</time>
   <time name="total">    6.41    6.43</time>
   <energy>
    <i name="e_fr_energy">   -658.17090933 </i>
    <i name="e_wo_entrp">   -658.03565880 </i>
    <i name="e_0_energy">   -658.10328407 </i>
   </energy>
  </scstep>
  <scstep>
   <time name="dav">    5.17    5.21</time>
   <time name="total">    6.15    6.59</time>
   <energy>
    <i name="e_fr_energy">   -658.17000630 </i>
    <i name="e_wo_entrp">   -658.03749301 </i>
    <i name="e_0_energy">   -658.10374965 </i>
   </energy>
  </scstep>
  <scstep>
   <time name="dav">    5.17    5.19</time>
   <time name="total">    6.18    6.20</time>
   <energy>
    <i name="e_fr_energy">   -658.16971839 </i>
    <i name="e_wo_entrp">   -658.04054048 </i>
    <i name="e_0_energy">   -658.10512944 </i>
   </energy>
  </scstep>
  <scstep>
   <time name="dav">    4.42    4.43</time>
   <time name="total">    5.38    5.41</time>
   <energy>
    <i name="e_fr_energy">   -658.16939174 </i>
    <i name="e_wo_entrp">   -658.04120098 </i>
    <i name="e_0_energy">   -658.10529636 </i>
   </energy>
  </scstep>
  <scstep>
   <time name="dav">    4.16    4.17</time>
   <time name="total">    4.54    4.56</time>
   <energy>
    <i name="alphaZ">    562.39184220 </i>
    <i name="ewald">  37555.09380787 </i>
    <i name="hartreedc"> -56953.63376159 </i>
    <i name="XCdc">   -699.37647769 </i>
    <i name="pawpsdc">  43073.88031208 </i>
    <i name="pawaedc"> -41242.20823745 </i>
    <i name="eentropy">     -0.12962702 </i>
    <i name="bandstr">  -3334.77659386 </i>
    <i name="atom">  20380.58938199 </i>
    <i name="e_fr_energy">   -658.16935348 </i>
    <i name="e_wo_entrp">   -658.03972646 </i>
    <i name="e_0_energy">   -658.10453997 </i>
   </energy>
  </scstep>
  <structure>
   <crystal>
    <varray name="basis" >
     <v>       9.57094646       0.00000000       0.00000000 </v>
     <v>      -6.38062803      11.05157872       0.00000000 </v>
     <v>       0.00000000       0.00000000      34.88026251 </v>
    </varray>
    <i name="volume">   3689.42726549 </i>
    <varray name="rec_basis" >
     <v>       0.10448287       0.06032318       0.00000000 </v>
     <v>       0.00000000       0.09048481       0.00000000 </v>
     <v>       0.00000000       0.00000000       0.02866951 </v>
    </varray>
   </crystal>
   <varray name="positions" >
    <v>       0.57454805       0.63055406       0.94971913 </v>
    <v>       0.45086415       0.58509134       0.97793324 </v>
    <v>       0.64228647       0.55340301       0.94812664 </v>
    <v>       0.55875061       0.45765113       0.97566519 </v>
    <v>       0.43954731       0.47800434       0.99423540 </v>
    <v>       0.76248438       0.77010960       0.04361624 </v>
    <v>       0.78833414       0.60182439       0.05638708 </v>
    <v>       0.69337924       0.65766238       0.06474743 </v>
    <v>       0.91384602       0.67849573       0.03069583 </v>
    <v>       0.89858602       0.78156608       0.02273248 </v>
    <v>       0.67448700       0.62136699       0.00581794 </v>
    <v>       0.35470342       0.42136977       0.01622984 </v>
    <v>       0.59124168       0.62337208       0.08427848 </v>
    <v>       0.00119417       0.65829610       0.01773363 </v>
    <v>       0.76642073       0.51487257       0.06725985 </v>
    <v>       0.72138532       0.83562354       0.04417050 </v>
    <v>       0.38064226       0.62684286       0.98661569 </v>
    <v>       0.61631566       0.71405308       0.93355113 </v>
    <v>       0.74043170       0.56535554       0.92953356 </v>
    <v>       0.57847460       0.38185337       0.98061143 </v>
    <v>       0.97442330       0.85472258       0.00317255 </v>
    <v>       0.55615892       0.08410209       0.25000202 </v>
    <v>       0.55616347       0.33410046       0.25000160 </v>
    <v>       0.44384532       0.41589764       0.74999995 </v>
    <v>       0.55618201       0.58410899       0.25000343 </v>
    <v>       0.44384740       0.66589233       0.74999895 </v>
    <v>       0.55616982       0.83410993       0.25000218 </v>
    <v>       0.44384710       0.91589915       0.74999845 </v>
    <v>       0.88949968       0.33410137       0.25000174 </v>
    <v>       0.77720362       0.16588928       0.74999798 </v>
    <v>       0.77719675       0.41588370       0.74999726 </v>
    <v>       0.88949940       0.58411105       0.25000017 </v>
    <v>       0.77719104       0.66588650       0.74999726 </v>
    <v>       0.88950110       0.83409866       0.24999948 </v>
    <v>       0.77720408       0.91589203       0.74999767 </v>
    <v>       0.11050923       0.91589964       0.74999689 </v>
    <v>       0.88949920       0.08410010       0.25000251 </v>
    <v>       0.22279276       0.83410915       0.25000180 </v>
    <v>       0.44384938       0.16589952       0.74999813 </v>
    <v>       0.22279002       0.58410920       0.25000439 </v>
    <v>       0.11051142       0.41589599       0.74999720 </v>
    <v>       0.22279540       0.33410624       0.25000327 </v>
    <v>       0.22279614       0.08410262       0.25000267 </v>
    <v>       0.11050922       0.16590213       0.74999698 </v>
    <v>       0.11051397       0.66589830       0.74999606 </v>
    <v>       0.77747227       0.16628074       0.29460361 </v>
    <v>       0.88918944       0.08372328       0.79458595 </v>
    <v>       0.77746927       0.16627558       0.20541848 </v>
    <v>       0.88918539       0.08371884       0.70539151 </v>
    <v>       0.22252425       0.08371951       0.70539130 </v>
    <v>       0.11080677       0.16627454       0.20541810 </v>
    <v>       0.77747230       0.41628035       0.29460321 </v>
    <v>       0.88918664       0.33371976       0.79458722 </v>
    <v>       0.11080484       0.66628256       0.20541491 </v>
    <v>       0.55585336       0.83371977       0.70539178 </v>
    <v>       0.88918487       0.33371876       0.70539118 </v>
    <v>       0.22252731       0.08372536       0.79458650 </v>
    <v>       0.11081054       0.16628150       0.29460338 </v>
    <v>       0.77747193       0.66628034       0.29460408 </v>
    <v>       0.88917797       0.58371676       0.79459090 </v>
    <v>       0.77747080       0.66628130       0.20540522 </v>
    <v>       0.88918544       0.58371864       0.70539192 </v>
    <v>       0.77747155       0.91628036       0.29460386 </v>
    <v>       0.88918078       0.83371653       0.79458794 </v>
    <v>       0.77747197       0.41628630       0.20541478 </v>
    <v>       0.44414104       0.91627878       0.20541717 </v>
    <v>       0.44414406       0.91628081       0.29460371 </v>
    <v>       0.22252311       0.58371960       0.70539142 </v>
    <v>       0.22252691       0.58371905       0.79458785 </v>
    <v>       0.11081093       0.91628132       0.29460399 </v>
    <v>       0.22252533       0.83372115       0.79458565 </v>
    <v>       0.11080299       0.91627534       0.20541519 </v>
    <v>       0.22252412       0.83371905       0.70539182 </v>
    <v>       0.11081187       0.66628133       0.29460368 </v>
    <v>       0.77747288       0.91627376       0.20541397 </v>
    <v>       0.44414363       0.16628096       0.29460334 </v>
    <v>       0.55585551       0.08372372       0.79458588 </v>
    <v>       0.44413910       0.16627567       0.20541846 </v>
    <v>       0.55585341       0.08371928       0.70539128 </v>
    <v>       0.44414332       0.41628097       0.29460283 </v>
    <v>       0.55585274       0.33372428       0.79458937 </v>
    <v>       0.44415157       0.41628736       0.20541423 </v>
    <v>       0.55585351       0.33371974       0.70539113 </v>
    <v>       0.22252439       0.33371955       0.70539104 </v>
    <v>       0.11081057       0.41628170       0.20541846 </v>
    <v>       0.44414350       0.66628123       0.29460306 </v>
    <v>       0.55585460       0.58371877       0.79459432 </v>
    <v>       0.44415444       0.66628223       0.20541107 </v>
    <v>       0.55585376       0.58371956       0.70539137 </v>
    <v>       0.22252902       0.33372308       0.79458826 </v>
    <v>       0.11081131       0.41628196       0.29460311 </v>
    <v>       0.55585500       0.83371724       0.79458779 </v>
    <v>       0.88918514       0.83371856       0.70539199 </v>
   </varray>
  </structure>
  <varray name="forces" >
   <v>      -0.01299673       0.09926888      -0.07543963 </v>
   <v>      -0.06934994       0.00276773       0.03638351 </v>
   <v>       0.02864726      -0.06320421       0.00273561 </v>
   <v>       0.02061151      -0.02575720      -0.02730847 </v>
   <v>      -0.02062544      -0.03232410       0.01878577 </v>
   <v>      -0.02711648      -0.01421119       0.05393181 </v>
   <v>       0.02624819      -0.10813476       0.07158787 </v>
   <v>      -0.03477859       0.03781826       0.03473103 </v>
   <v>       0.07783882      -0.02157089      -0.02000722 </v>
   <v>      -0.00584934       0.10135739      -0.05129806 </v>
   <v>       0.00593509       0.02135077      -0.03015418 </v>
   <v>       0.00495780       0.01679252      -0.00666218 </v>
   <v>       0.01823979       0.00037870      -0.00207638 </v>
   <v>      -0.01708940       0.01153220       0.00831948 </v>
   <v>      -0.01094178       0.04981229      -0.01812569 </v>
   <v>       0.00727275      -0.00924927       0.00256671 </v>
   <v>       0.02914066      -0.00536478      -0.01468321 </v>
   <v>       0.00992110      -0.04689172       0.01551542 </v>
   <v>      -0.00392900      -0.00316649      -0.00642371 </v>
   <v>      -0.01463513       0.01810288       0.00006304 </v>
   <v>      -0.01151779      -0.03107729       0.02588582 </v>
   <v>      -0.01156251      -0.08137231       0.00411012 </v>
   <v>      -0.01198676      -0.08066547       0.00254325 </v>
   <v>       0.00961084       0.08152336      -0.00335087 </v>
   <v>      -0.01149619      -0.08022624       0.00038503 </v>
   <v>       0.01011016       0.08032400      -0.00292050 </v>
   <v>      -0.01138639      -0.08143392       0.00210264 </v>
   <v>       0.00980987       0.08086326      -0.00395959 </v>
   <v>      -0.01451005      -0.08120290       0.00268536 </v>
   <v>       0.00592357       0.08225693      -0.00478161 </v>
   <v>       0.00569467       0.08214335      -0.00319939 </v>
   <v>      -0.01492875      -0.08103572       0.00139335 </v>
   <v>       0.00582809       0.08129898      -0.00226621 </v>
   <v>      -0.01427974      -0.08272959       0.00213577 </v>
   <v>       0.00601896       0.08187883      -0.00383129 </v>
   <v>       0.01137589       0.08141610      -0.00331830 </v>
   <v>      -0.01376348      -0.08262628       0.00316167 </v>
   <v>      -0.00759885      -0.08192552       0.00346588 </v>
   <v>       0.00911380       0.08172649      -0.00424958 </v>
   <v>      -0.00674965      -0.08072656       0.00107760 </v>
   <v>       0.01161730       0.08160476      -0.00367275 </v>
   <v>      -0.00701206      -0.08097669       0.00234141 </v>
   <v>      -0.00801575      -0.08229712       0.00381581 </v>
   <v>       0.01206649       0.08203798      -0.00411806 </v>
   <v>       0.01103981       0.08085988      -0.00230240 </v>
   <v>       0.00568646       0.03987080      -0.01930739 </v>
   <v>      -0.00319480      -0.04085137      -0.01619907 </v>
   <v>       0.00582679       0.03942702       0.01419335 </v>
   <v>      -0.00339193      -0.04112348       0.02132831 </v>
   <v>      -0.00447469      -0.03947515       0.02250626 </v>
   <v>       0.00449162       0.04054662       0.01295125 </v>
   <v>       0.00576565       0.04053052      -0.02014879 </v>
   <v>      -0.00325082      -0.04145913      -0.01609604 </v>
   <v>       0.00374220       0.04180016       0.01169505 </v>
   <v>      -0.00380939      -0.04034312       0.02330838 </v>
   <v>      -0.00321509      -0.04153152       0.02144986 </v>
   <v>      -0.00486150      -0.03924472      -0.01761034 </v>
   <v>       0.00424297       0.04100975      -0.01784221 </v>
   <v>       0.00642737       0.04070322      -0.01921752 </v>
   <v>      -0.00394747      -0.04175005      -0.01604380 </v>
   <v>       0.00546341       0.04036617       0.00944046 </v>
   <v>      -0.00359319      -0.04156451       0.02207637 </v>
   <v>       0.00644873       0.03976357      -0.01959232 </v>
   <v>      -0.00376970      -0.04181895      -0.01603516 </v>
   <v>       0.00541794       0.04087887       0.01310806 </v>
   <v>       0.00463962       0.03995620       0.01412705 </v>
   <v>       0.00463666       0.04000764      -0.01983053 </v>
   <v>      -0.00395264      -0.04002656       0.02236097 </v>
   <v>      -0.00433916      -0.04041210      -0.01703868 </v>
   <v>       0.00378282       0.04087012      -0.01799825 </v>
   <v>      -0.00480780      -0.04002309      -0.01771071 </v>
   <v>       0.00405422       0.04083675       0.01105423 </v>
   <v>      -0.00437527      -0.03968183       0.02221447 </v>
   <v>       0.00329489       0.04172365      -0.01792264 </v>
   <v>       0.00629931       0.03969192       0.01254145 </v>
   <v>       0.00484230       0.03993245      -0.01957824 </v>
   <v>      -0.00394549      -0.03955969      -0.01734269 </v>
   <v>       0.00461939       0.03935594       0.01414624 </v>
   <v>      -0.00377547      -0.03993925       0.02279438 </v>
   <v>       0.00535936       0.04015564      -0.02022448 </v>
   <v>      -0.00403706      -0.03979167      -0.01619580 </v>
   <v>       0.00533532       0.04097321       0.01413085 </v>
   <v>      -0.00424484      -0.04004436       0.02286786 </v>
   <v>      -0.00416617      -0.03964043       0.02222332 </v>
   <v>       0.00433330       0.04165156       0.01319900 </v>
   <v>       0.00524399       0.04050193      -0.02050529 </v>
   <v>      -0.00368086      -0.04035934      -0.01448445 </v>
   <v>       0.00585504       0.04022950       0.01406112 </v>
   <v>      -0.00412724      -0.04058356       0.02286570 </v>
   <v>      -0.00456276      -0.03985454      -0.01622243 </v>
   <v>       0.00389151       0.04124273      -0.01772929 </v>
   <v>      -0.00350442      -0.04044917      -0.01696855 </v>
   <v>      -0.00357575      -0.04144361       0.02162606 </v>
  </varray>
  <varray name="stress" >
   <v>       3.93016302       0.08268907      -0.01873369 </v>
   <v>       0.08268906      -5.43479616      -0.01518719 </v>
   <v>      -0.01873374      -0.01518723      -2.07104915 </v>
  </varray>
  <energy>
   <i name="e_fr_energy">   -673.06493491 </i>
   <i name="e_wo_entrp">   -673.00012140 </i>
   <i name="e_0_energy">     -0.12962702 </i>
  </energy>
  <time name="totalsc">  115.86  117.21</time>
 </calculation>
 <calculation>
  <scstep>
   <time name="dav">    5.81    5.83</time>
   <time name="total">    6.79    6.82</time>
   <energy>
    <i name="alphaZ">    562.39184220 </i>
    <i name="ewald">  37530.67075248 </i>
    <i name="hartreedc"> -56930.20617318 </i>
    <i name="XCdc">   -699.49258586 </i>
    <i name="pawpsdc">  43074.19780563 </i>
    <i name="pawaedc"> -41242.52273105 </i>
    <i name="eentropy">     -0.12666224 </i>
    <i name="bandstr">  -3333.67373278 </i>
    <i name="atom">  20380.58938199 </i>
    <i name="e_fr_energy">   -658.17210282 </i>
    <i name="e_wo_entrp">   -658.04544058 </i>
    <i name="e_0_energy">   -658.10877170 </i>
   </energy>
  </scstep>
  <scstep>
   <time name="dav">    6.68    6.70</time>
   <time name="total">    7.65    7.68</time>
   <energy>
    <i name="e_fr_energy">   -658.17389843 </i>
    <i name="e_wo_entrp">   -658.03712445 </i>
    <i name="e_0_energy">   -658.10551144 </i>
   </energy>
  </scstep>
  <scstep>
   <time name="dav">    6.52    6.54</time>
   <time name="total">    7.49    7.52</time>
   <energy>
    <i name="e_fr_energy">   -658.17806682 </i>
    <i name="e_wo_entrp">   -658.06645976 </i>
    <i name="e_0_energy">   -658.12226329 </i>
   </energy>
  </scstep>
  <scstep>
   <time name="dav">    5.59    5.60</time>
   <time name="total">    6.55    6.58</time>
   <energy>
    <i name="e_fr_energy">   -658.17263242 </i>
    <i name="e_wo_entrp">   -658.04584196 </i>
    <i name="e_0_energy">   -658.10923719 </i>
   </energy>
  </scstep>
  <scstep>
   <time name="dav">    4.67    4.70</time>
   <time name="total">    5.63    5.68</time>
   <energy>
    <i name="e_fr_energy">   -658.17255375 </i>
    <i name="e_wo_entrp">   -658.04744092 </i>
    <i name="e_0_energy">   -658.10999733 </i>
   </energy>
  </scstep>
  <scstep>
   <time name="dav">    4.46    4.48</time>
   <time name="total">    5.44    5.46</time>
   <energy>
    <i name="e_fr_energy">   -658.17256903 </i>
    <i name="e_wo_entrp">   -658.04755170 </i>
    <i name="e_0_energy">   -658.11006036 </i>
   </energy>
  </scstep>
  <scstep>
   <time name="dav">    5.56    5.58</time>
   <time name="total">    6.52    6.55</time>
   <energy>
    <i name="e_fr_energy">   -658.17312182 </i>
    <i name="e_wo_entrp">   -658.03604386 </i>
    <i name="e_0_energy">   -658.10458284 </i>
   </energy>
  </scstep>
  <scstep>
   <time name="dav">    4.76    4.77</time>
   <time name="total">    5.73    5.75</time>
   <energy>
    <i name="e_fr_energy">   -658.17253225 </i>
    <i name="e_wo_entrp">   -658.04602154 </i>
    <i name="e_0_energy">   -658.10927689 </i>
   </energy>
  </scstep>
  <scstep>
   <time name="dav">    4.02    4.04</time>
   <time name="total">    4.99    5.01</time>
   <energy>
    <i name="e_fr_energy">   -658.17244308 </i>
    <i name="e_wo_entrp">   -658.04400284 </i>
    <i name="e_0_energy">   -658.10822296 </i>
   </energy>
  </scstep>
  <scstep>
   <time name="dav">    4.02    4.03</time>
   <time name="total">    4.99    5.01</time>
   <energy>
    <i name="e_fr_energy">   -658.17240386 </i>
    <i name="e_wo_entrp">   -658.04469786 </i>
    <i name="e_0_energy">   -658.10855086 </i>
   </energy>
  </scstep>
  <scstep>
   <time name="dav">    4.03    4.04</time>
   <time name="total">    4.41    4.43</time>
   <energy>
    <i name="alphaZ">    562.39184220 </i>
    <i name="ewald">  37530.67075248 </i>
    <i name="hartreedc"> -56930.02257859 </i>
    <i name="XCdc">   -699.49077230 </i>
    <i name="pawpsdc">  43033.92386126 </i>
    <i name="pawaedc"> -41202.18275379 </i>
    <i name="eentropy">     -0.12823292 </i>
    <i name="bandstr">  -3333.92389631 </i>
    <i name="atom">  20380.58938199 </i>
    <i name="e_fr_energy">   -658.17239599 </i>
    <i name="e_wo_entrp">   -658.04416307 </i>
    <i name="e_0_energy">   -658.10827953 </i>
   </energy>
  </scstep>
  <structure>
   <crystal>
    <varray name="basis" >
     <v>       9.57094646       0.00000000       0.00000000 </v>
     <v>      -6.38062803      11.05157872       0.00000000 </v>
     <v>       0.00000000       0.00000000      34.88026251 </v>
    </varray>
    <i name="volume">   3689.42726549 </i>
    <varray name="rec_basis" >
     <v>       0.10448287       0.06032318       0.00000000 </v>
     <v>       0.00000000       0.09048481       0.00000000 </v>
     <v>       0.00000000       0.00000000       0.02866951 </v>
    </varray>
   </crystal>
   <varray name="positions" >
    <v>       0.57457030       0.63057779       0.94972348 </v>
    <v>       0.45085387       0.58508796       0.97793537 </v>
    <v>       0.64228741       0.55339602       0.94812899 </v>
    <v>       0.55875532       0.45764703       0.97566532 </v>
    <v>       0.43954766       0.47800182       0.99423699 </v>
    <v>       0.76247625       0.77010920       0.04361832 </v>
    <v>       0.78831189       0.60180474       0.05638691 </v>
    <v>       0.69337566       0.65767005       0.06474737 </v>
    <v>       0.91384629       0.67848880       0.03069493 </v>
    <v>       0.89857822       0.78157096       0.02272618 </v>
    <v>       0.67449974       0.62137285       0.00581333 </v>
    <v>       0.35470175       0.42136567       0.01622862 </v>
    <v>       0.59124385       0.62337373       0.08427685 </v>
    <v>       0.00119407       0.65829232       0.01773309 </v>
    <v>       0.76642147       0.51487594       0.06725939 </v>
    <v>       0.72138778       0.83562813       0.04416934 </v>
    <v>       0.38064350       0.62683894       0.98661566 </v>
    <v>       0.61631144       0.71405179       0.93355234 </v>
    <v>       0.74043492       0.56535908       0.92953471 </v>
    <v>       0.57847467       0.38185247       0.98061106 </v>
    <v>       0.97442936       0.85472565       0.00317219 </v>
    <v>       0.55609252       0.08401746       0.25000282 </v>
    <v>       0.55609656       0.33401601       0.25000245 </v>
    <v>       0.44391126       0.41598230       0.74999894 </v>
    <v>       0.55611306       0.58402360       0.25000407 </v>
    <v>       0.44391311       0.66597757       0.74999805 </v>
    <v>       0.55610222       0.83402444       0.25000297 </v>
    <v>       0.44391284       0.91598364       0.74999760 </v>
    <v>       0.88943245       0.33401682       0.25000257 </v>
    <v>       0.77726681       0.16597486       0.74999718 </v>
    <v>       0.77726070       0.41596989       0.74999655 </v>
    <v>       0.88943221       0.58402543       0.25000117 </v>
    <v>       0.77725561       0.66597239       0.74999654 </v>
    <v>       0.88943372       0.83401440       0.25000056 </v>
    <v>       0.77726722       0.91597731       0.74999691 </v>
    <v>       0.11057547       0.91598408       0.74999621 </v>
    <v>       0.88943203       0.08401569       0.25000326 </v>
    <v>       0.22272997       0.83402374       0.25000262 </v>
    <v>       0.44391487       0.16598397       0.74999732 </v>
    <v>       0.22272753       0.58402379       0.25000493 </v>
    <v>       0.11057742       0.41598084       0.74999649 </v>
    <v>       0.22273232       0.33402115       0.25000393 </v>
    <v>       0.22273297       0.08401793       0.25000340 </v>
    <v>       0.11057546       0.16598629       0.74999630 </v>
    <v>       0.11057969       0.66598289       0.74999547 </v>
    <v>       0.77750589       0.16632323       0.29463336 </v>
    <v>       0.88915637       0.08368035       0.79461560 </v>
    <v>       0.77750321       0.16631864       0.20538834 </v>
    <v>       0.88915276       0.08367639       0.70536230 </v>
    <v>       0.22249102       0.08367699       0.70536211 </v>
    <v>       0.11084026       0.16631772       0.20538800 </v>
    <v>       0.77750591       0.41632289       0.29463300 </v>
    <v>       0.88915388       0.33367722       0.79461673 </v>
    <v>       0.11083854       0.66632485       0.20538516 </v>
    <v>       0.55582059       0.83367722       0.70536254 </v>
    <v>       0.88915230       0.33367633       0.70536200 </v>
    <v>       0.22249374       0.08368219       0.79461609 </v>
    <v>       0.11084361       0.16632391       0.29463315 </v>
    <v>       0.77750558       0.66632287       0.29463378 </v>
    <v>       0.88914616       0.58367455       0.79462001 </v>
    <v>       0.77750458       0.66632373       0.20537654 </v>
    <v>       0.88915281       0.58367622       0.70536266 </v>
    <v>       0.77750524       0.91632289       0.29463359 </v>
    <v>       0.88914866       0.83367434       0.79461737 </v>
    <v>       0.77750562       0.41632818       0.20538504 </v>
    <v>       0.44417443       0.91632148       0.20538718 </v>
    <v>       0.44417711       0.91632329       0.29463345 </v>
    <v>       0.22249000       0.58367707       0.70536222 </v>
    <v>       0.22249338       0.58367658       0.79461729 </v>
[...]
       <r>   -17.3559     0.0000     4.0000 </r>
       <r>   -17.2838     0.0000     4.0000 </r>
       <r>   -17.2117     0.0000     4.0000 </r>
       <r>   -17.1396     0.0000     4.0000 </r>
       <r>   -17.0675     0.0000     4.0000 </r>
       <r>   -16.9954     0.0000     4.0000 </r>
       <r>   -16.9233     0.0000     4.0000 </r>
       <r>   -16.8512     0.0000     4.0000 </r>
       <r>   -16.7791     0.0000     4.0000 </r>
       <r>   -16.7069     0.0000     4.0000 </r>
       <r>   -16.6348     0.0000     4.0000 </r>
       <r>   -16.5627     0.0000     4.0000 </r>
       <r>   -16.4906     0.0000     4.0000 </r>
       <r>   -16.4185     0.0000     4.0000 </r>
       <r>   -16.3464     0.0000     4.0000 </r>
       <r>   -16.2743     0.0000     4.0000 </r>
       <r>   -16.2022     0.0000     4.0000 </r>
       <r>   -16.1301     0.0000     4.0000 </r>
       <r>   -16.0580     0.0028     4.0002 </r>
       <r>   -15.9859     0.1120     4.0083 </r>
       <r>   -15.9138     1.6788     4.1293 </r>
       <r>   -15.8417     9.5165     4.8155 </r>
       <r>   -15.7695    20.6476     6.3044 </r>
       <r>   -15.6974    17.2565     7.5487 </r>
       <r>   -15.6253     5.5469     7.9487 </r>
       <r>   -15.5532     0.6797     7.9977 </r>
       <r>   -15.4811     0.0313     8.0000 </r>
       <r>   -15.4090     0.0005     8.0000 </r>
       <r>   -15.3369     0.0001     8.0000 </r>
       <r>   -15.2648     0.0108     8.0008 </r>
       <r>   -15.1927     0.3711     8.0275 </r>
       <r>   -15.1206     4.7475     8.3699 </r>
       <r>   -15.0485    23.0217    10.0299 </r>
       <r>   -14.9764    42.8037    13.1164 </r>
       <r>   -14.9043    31.0389    15.3545 </r>
       <r>   -14.8321    13.3435    16.3167 </r>
       <r>   -14.7600    24.4655    18.0808 </r>
       <r>   -14.6879    45.8268    21.3853 </r>
       <r>   -14.6158    50.8199    25.0498 </r>
       <r>   -14.5437    64.1184    29.6732 </r>
       <r>   -14.4716    59.7179    33.9793 </r>
       <r>   -14.3995    24.1406    35.7201 </r>
       <r>   -14.3274     5.7523    36.1348 </r>
       <r>   -14.2553    14.5146    37.1815 </r>
       <r>   -14.1832    42.7878    40.2668 </r>
       <r>   -14.1111    74.6255    45.6478 </r>
       <r>   -14.0390   121.4336    54.4041 </r>
       <r>   -13.9669   143.1910    64.7293 </r>
       <r>   -13.8947    99.9250    71.9346 </r>
       <r>   -13.8226    88.7115    78.3314 </r>
       <r>   -13.7505   126.8738    87.4800 </r>
       <r>   -13.6784   132.9889    97.0695 </r>
       <r>   -13.6063    92.8432   103.7642 </r>
       <r>   -13.5342    45.0042   107.0093 </r>
       <r>   -13.4621    12.2191   107.8904 </r>
       <r>   -13.3900     1.4511   107.9951 </r>
       <r>   -13.3179     0.0674   107.9999 </r>
       <r>   -13.2458     0.0012   108.0000 </r>
       <r>   -13.1737     0.0000   108.0000 </r>
       <r>   -13.1016     0.0000   108.0000 </r>
       <r>   -13.0295     0.0000   108.0000 </r>
       <r>   -12.9574     0.0000   108.0000 </r>
       <r>   -12.8852     0.0000   108.0000 </r>
       <r>   -12.8131     0.0000   108.0000 </r>
       <r>   -12.7410     0.0000   108.0000 </r>
       <r>   -12.6689     0.0000   108.0000 </r>
       <r>   -12.5968     0.0000   108.0000 </r>
       <r>   -12.5247     0.0000   108.0000 </r>
       <r>   -12.4526     0.0000   108.0000 </r>
       <r>   -12.3805     0.0000   108.0000 </r>
       <r>   -12.3084     0.0000   108.0000 </r>
       <r>   -12.2363     0.0000   108.0000 </r>
       <r>   -12.1642     0.0000   108.0000 </r>
       <r>   -12.0921     0.0000   108.0000 </r>
       <r>   -12.0200     0.0000   108.0000 </r>
       <r>   -11.9478     0.0000   108.0000 </r>
       <r>   -11.8757     0.0000   108.0000 </r>
       <r>   -11.8036     0.0000   108.0000 </r>
       <r>   -11.7315     0.0000   108.0000 </r>
       <r>   -11.6594     0.0000   108.0000 </r>
       <r>   -11.5873     0.0000   108.0000 </r>
       <r>   -11.5152     0.0000   108.0000 </r>
       <r>   -11.4431     0.0000   108.0000 </r>
       <r>   -11.3710     0.0000   108.0000 </r>
       <r>   -11.2989     0.0000   108.0000 </r>
       <r>   -11.2268     0.0000   108.0000 </r>
       <r>   -11.1547     0.0000   108.0000 </r>
       <r>   -11.0826     0.0000   108.0000 </r>
       <r>   -11.0104     0.0000   108.0000 </r>
       <r>   -10.9383     0.0000   108.0000 </r>
       <r>   -10.8662     0.0000   108.0000 </r>
       <r>   -10.7941     0.0000   108.0000 </r>
       <r>   -10.7220     0.0000   108.0000 </r>
       <r>   -10.6499     0.0000   108.0000 </r>
       <r>   -10.5778     0.0000   108.0000 </r>
       <r>   -10.5057     0.0000   108.0000 </r>
       <r>   -10.4336     0.0000   108.0000 </r>
       <r>   -10.3615     0.0000   108.0000 </r>
       <r>   -10.2894     0.0000   108.0000 </r>
       <r>   -10.2173     0.0000   108.0000 </r>
       <r>   -10.1452     0.0000   108.0000 </r>
       <r>   -10.0730     0.0000   108.0000 </r>
       <r>   -10.0009     0.0000   108.0000 </r>
       <r>    -9.9288     0.0001   108.0000 </r>
       <r>    -9.8567     0.0054   108.0004 </r>
       <r>    -9.7846     0.1728   108.0129 </r>
       <r>    -9.7125     2.1274   108.1663 </r>
       <r>    -9.6404    10.5001   108.9234 </r>
       <r>    -9.5683    22.4059   110.5390 </r>
       <r>    -9.4962    26.8890   112.4779 </r>
       <r>    -9.4241    27.7360   114.4779 </r>
       <r>    -9.3520    23.7701   116.1919 </r>
       <r>    -9.2799    15.9407   117.3414 </r>
       <r>    -9.2078     7.8412   117.9068 </r>
       <r>    -9.1356     5.0771   118.2729 </r>
       <r>    -9.0635     9.5051   118.9582 </r>
       <r>    -8.9914     9.8275   119.6669 </r>
       <r>    -8.9193     3.9699   119.9531 </r>
       <r>    -8.8472     0.6132   119.9974 </r>
       <r>    -8.7751     0.0358   119.9999 </r>
       <r>    -8.7030     0.0008   120.0000 </r>
       <r>    -8.6309     0.0000   120.0000 </r>
       <r>    -8.5588     0.0000   120.0000 </r>
       <r>    -8.4867     0.0000   120.0000 </r>
       <r>    -8.4146     0.0000   120.0000 </r>
       <r>    -8.3425     0.0000   120.0000 </r>
       <r>    -8.2704     0.0000   120.0000 </r>
       <r>    -8.1982     0.0000   120.0000 </r>
       <r>    -8.1261     0.0000   120.0000 </r>
       <r>    -8.0540     0.0000   120.0000 </r>
       <r>    -7.9819     0.0000   120.0000 </r>
       <r>    -7.9098     0.0000   120.0000 </r>
       <r>    -7.8377     0.0000   120.0000 </r>
       <r>    -7.7656     0.0001   120.0000 </r>
       <r>    -7.6935     0.0095   120.0007 </r>
       <r>    -7.6214     0.2819   120.0210 </r>
       <r>    -7.5493     3.1494   120.2481 </r>
       <r>    -7.4772    13.5166   121.2228 </r>
       <r>    -7.4051    24.1913   122.9671 </r>
       <r>    -7.3330    25.5355   124.8084 </r>
       <r>    -7.2609    24.7656   126.5942 </r>
       <r>    -7.1887    15.6005   127.7191 </r>
       <r>    -7.1166    10.2614   128.4591 </r>
       <r>    -7.0445    37.3950   131.1555 </r>
       <r>    -6.9724    97.0190   138.1513 </r>
       <r>    -6.9003   117.0148   146.5890 </r>
       <r>    -6.8282    73.7372   151.9060 </r>
       <r>    -6.7561    72.1673   157.1098 </r>
       <r>    -6.6840   124.8361   166.1114 </r>
       <r>    -6.6119   130.9258   175.5522 </r>
       <r>    -6.5398    90.7783   182.0980 </r>
       <r>    -6.4677    53.5282   185.9578 </r>
       <r>    -6.3956    26.9564   187.9015 </r>
       <r>    -6.3235    15.3695   189.0098 </r>
       <r>    -6.2513    10.0008   189.7309 </r>
       <r>    -6.1792     5.2324   190.1082 </r>
       <r>    -6.1071    10.3621   190.8554 </r>
       <r>    -6.0350    21.6293   192.4150 </r>
       <r>    -5.9629    27.6724   194.4104 </r>
       <r>    -5.8908    49.7048   197.9945 </r>
       <r>    -5.8187    77.2967   203.5682 </r>
       <r>    -5.7466    64.7403   208.2365 </r>
       <r>    -5.6745    59.4954   212.5265 </r>
       <r>    -5.6024   140.7447   222.6753 </r>
       <r>    -5.5303   238.6409   239.8831 </r>
       <r>    -5.4582   196.2870   254.0369 </r>
       <r>    -5.3861    94.1893   260.8287 </r>
       <r>    -5.3139    59.9785   265.1536 </r>
       <r>    -5.2418    65.6804   269.8896 </r>
       <r>    -5.1697    55.1974   273.8698 </r>
       <r>    -5.0976    25.4363   275.7039 </r>
       <r>    -5.0255    19.2884   277.0948 </r>
       <r>    -4.9534    62.0286   281.5675 </r>
       <r>    -4.8813   107.9424   289.3510 </r>
       <r>    -4.8092    89.7605   295.8234 </r>
       <r>    -4.7371    71.5846   300.9852 </r>
       <r>    -4.6650    81.9090   306.8914 </r>
       <r>    -4.5929    81.5637   312.7728 </r>
       <r>    -4.5208    63.5386   317.3544 </r>
       <r>    -4.4487    35.6728   319.9267 </r>
       <r>    -4.3765    33.1800   322.3192 </r>
       <r>    -4.3044    55.2709   326.3047 </r>
       <r>    -4.2323    65.0219   330.9932 </r>
       <r>    -4.1602    59.7909   335.3046 </r>
       <r>    -4.0881    54.2351   339.2154 </r>
       <r>    -4.0160    44.2332   342.4049 </r>
       <r>    -3.9439    18.7116   343.7542 </r>
       <r>    -3.8718     3.3343   343.9946 </r>
       <r>    -3.7997     2.5824   344.1808 </r>
       <r>    -3.7276    15.8938   345.3269 </r>
       <r>    -3.6555    44.3895   348.5277 </r>
       <r>    -3.5834    71.7996   353.7050 </r>
       <r>    -3.5113   111.7726   361.7647 </r>
       <r>    -3.4391   147.5413   372.4035 </r>
       <r>    -3.3670   134.1162   382.0743 </r>
       <r>    -3.2949   103.6979   389.5517 </r>
       <r>    -3.2228    84.0347   395.6113 </r>
       <r>    -3.1507    69.8805   400.6502 </r>
       <r>    -3.0786    82.7429   406.6166 </r>
       <r>    -3.0065   109.9143   414.5422 </r>
       <r>    -2.9344   100.0798   421.7587 </r>
       <r>    -2.8623    57.4408   425.9006 </r>
       <r>    -2.7902    33.1505   428.2910 </r>
       <r>    -2.7181    45.2415   431.5533 </r>
       <r>    -2.6460    73.5661   436.8580 </r>
       <r>    -2.5739    77.2531   442.4285 </r>
       <r>    -2.5018    58.8407   446.6714 </r>
       <r>    -2.4296    50.8875   450.3408 </r>
       <r>    -2.3575    74.8778   455.7400 </r>
       <r>    -2.2854    81.3405   461.6053 </r>
       <r>    -2.2133    64.6231   466.2651 </r>
       <r>    -2.1412    50.1673   469.8825 </r>
       <r>    -2.0691    24.7082   471.6642 </r>
       <r>    -1.9970    11.7850   472.5140 </r>
       <r>    -1.9249    28.1999   474.5474 </r>
       <r>    -1.8528    43.6392   477.6941 </r>
       <r>    -1.7807    29.8762   479.8484 </r>
       <r>    -1.7086    20.8630   481.3528 </r>
       <r>    -1.6365    22.0070   482.9397 </r>
       <r>    -1.5644    11.9516   483.8015 </r>
       <r>    -1.4922     2.5418   483.9847 </r>
       <r>    -1.4201     0.2052   483.9995 </r>
       <r>    -1.3480     0.0062   484.0000 </r>
       <r>    -1.2759     0.0001   484.0000 </r>
       <r>    -1.2038     0.0000   484.0000 </r>
       <r>    -1.1317     0.0000   484.0000 </r>
       <r>    -1.0596     0.0000   484.0000 </r>
       <r>    -0.9875     0.0000   484.0000 </r>
       <r>    -0.9154     0.0000   484.0000 </r>
       <r>    -0.8433     0.0000   484.0000 </r>
       <r>    -0.7712     0.0000   484.0000 </r>
       <r>    -0.6991     0.0000   484.0000 </r>
       <r>    -0.6270     0.0000   484.0000 </r>
       <r>    -0.5548     0.0000   484.0000 </r>
       <r>    -0.4827     0.0007   484.0001 </r>
       <r>    -0.4106     0.0329   484.0024 </r>
       <r>    -0.3385     0.5787   484.0442 </r>
       <r>    -0.2664     3.8394   484.3210 </r>
       <r>    -0.1943     9.8293   485.0298 </r>
       <r>    -0.1222    11.0372   485.8256 </r>
       <r>    -0.0501    12.2636   486.7099 </r>
       <r>     0.0220    21.5792   488.2660 </r>
       <r>     0.0941    30.7031   490.4799 </r>
       <r>     0.1662    43.5208   493.6181 </r>
       <r>     0.2383    44.8611   496.8529 </r>
       <r>     0.3104    38.8783   499.6563 </r>
       <r>     0.3826    64.7321   504.3240 </r>
       <r>     0.4547   122.4487   513.1535 </r>
       <r>     0.5268   169.3357   525.3639 </r>
       <r>     0.5989   149.7408   536.1613 </r>
       <r>     0.6710   133.9215   545.8181 </r>
       <r>     0.7431   108.6686   553.6539 </r>
       <r>     0.8152    49.2747   557.2070 </r>
       <r>     0.8873    15.8469   558.3496 </r>
       <r>     0.9594    31.8515   560.6464 </r>
       <r>     1.0315    80.5762   566.4565 </r>
       <r>     1.1036   113.2478   574.6226 </r>
       <r>     1.1757   112.0955   582.7055 </r>
       <r>     1.2478   102.7788   590.1166 </r>
       <r>     1.3200    82.8134   596.0881 </r>
       <r>     1.3921    42.0834   599.1226 </r>
       <r>     1.4642    10.8229   599.9031 </r>
       <r>     1.5363     1.2783   599.9952 </r>
       <r>     1.6084     0.0649   599.9999 </r>
       <r>     1.6805     0.0013   600.0000 </r>
       <r>     1.7526     0.0000   600.0000 </r>
       <r>     1.8247     0.0000   600.0000 </r>
       <r>     1.8968     0.0000   600.0000 </r>
       <r>     1.9689     0.0000   600.0000 </r>
       <r>     2.0410     0.0000   600.0000 </r>
       <r>     2.1131     0.0000   600.0000 </r>
       <r>     2.1852     0.0000   600.0000 </r>
       <r>     2.2574     0.0000   600.0000 </r>
       <r>     2.3295     0.0000   600.0000 </r>
      </set>
     </set>
    </array>
   </total>
  </dos>
 </calculation>
 <structure name="finalpos" >
  <crystal>
   <varray name="basis" >
    <v>       9.57094646       0.00000000       0.00000000 </v>
    <v>      -6.38062803      11.05157872       0.00000000 </v>
    <v>       0.00000000       0.00000000      34.88026251 </v>
   </varray>
   <i name="volume">   3689.42726549 </i>
   <varray name="rec_basis" >
    <v>       0.10448287       0.06032318       0.00000000 </v>
    <v>       0.00000000       0.09048481       0.00000000 </v>
    <v>       0.00000000       0.00000000       0.02866951 </v>
   </varray>
  </crystal>
  <varray name="positions" >
   <v>       0.57452558       0.63056959       0.94965054 </v>
   <v>       0.45072255       0.58505920       0.97788632 </v>
   <v>       0.64197004       0.55318768       0.94807078 </v>
   <v>       0.55863905       0.45761889       0.97564037 </v>
   <v>       0.43952130       0.47804860       0.99424144 </v>
   <v>       0.76249800       0.77005801       0.04369073 </v>
   <v>       0.78841417       0.60173755       0.05644506 </v>
   <v>       0.69352932       0.65771656       0.06481291 </v>
   <v>       0.91406250       0.67860420       0.03076086 </v>
   <v>       0.89861187       0.78165085       0.02273972 </v>
   <v>       0.67449981       0.62141523       0.00580689 </v>
   <v>       0.35474126       0.42148002       0.01624454 </v>
   <v>       0.59133460       0.62329915       0.08432114 </v>
   <v>       0.00124723       0.65841231       0.01774311 </v>
   <v>       0.76655786       0.51492058       0.06728282 </v>
   <v>       0.72132585       0.83553724       0.04420059 </v>
   <v>       0.38079941       0.62695010       0.98658317 </v>
   <v>       0.61629234       0.71393185       0.93348242 </v>
   <v>       0.74027892       0.56526588       0.92950652 </v>
   <v>       0.57841441       0.38189244       0.98062313 </v>
   <v>       0.97435442       0.85472860       0.00320108 </v>
   <v>       0.55594713       0.08384176       0.24999793 </v>
   <v>       0.55595550       0.33384551       0.24999275 </v>
   <v>       0.44405224       0.41615861       0.75000825 </v>
   <v>       0.55599336       0.58386426       0.24999057 </v>
   <v>       0.44405354       0.66614100       0.75000722 </v>
   <v>       0.55596760       0.83385358       0.24999238 </v>
   <v>       0.44405272       0.91615468       0.75000324 </v>
   <v>       0.88929523       0.33386356       0.24999401 </v>
   <v>       0.77739785       0.16613798       0.75000024 </v>
   <v>       0.77738320       0.41612718       0.75000325 </v>
   <v>       0.88928998       0.58388049       0.24998696 </v>
   <v>       0.77737059       0.66612570       0.75000569 </v>
   <v>       0.88929289       0.83384611       0.24998728 </v>
   <v>       0.77739641       0.91613845       0.75000226 </v>
   <v>       0.11070358       0.91614200       0.75000177 </v>
   <v>       0.88929482       0.08384923       0.24999613 </v>
   <v>       0.22259226       0.83386495       0.24999507 </v>
   <v>       0.44405488       0.16616226       0.75000225 </v>
   <v>       0.22260293       0.58387535       0.24999478 </v>
   <v>       0.11071114       0.41613641       0.75000193 </v>
   <v>       0.22260781       0.33386532       0.24999649 </v>
   <v>       0.22259174       0.08384781       0.24999838 </v>
   <v>       0.11071279       0.16615134       0.75000053 </v>
   <v>       0.11070578       0.66613415       0.75000279 </v>
   <v>       0.77756322       0.16640021       0.29457046 </v>
   <v>       0.88910941       0.08360247       0.79455974 </v>
   <v>       0.77755139       0.16638538       0.20543844 </v>
   <v>       0.88910008       0.08359261       0.70542696 </v>
   <v>       0.22244081       0.08360258       0.70542841 </v>
   <v>       0.11089361       0.16639287       0.20543724 </v>
   <v>       0.77756531       0.41641074       0.29456571 </v>
   <v>       0.88910111       0.33359114       0.79456171 </v>
   <v>       0.11089354       0.66641792       0.20542864 </v>
   <v>       0.55576506       0.83359769       0.70543104 </v>
   <v>       0.88909844       0.33359240       0.70542756 </v>
   <v>       0.22244433       0.08361484       0.79455935 </v>
   <v>       0.11089739       0.16640682       0.29457187 </v>
   <v>       0.77757152       0.66640645       0.29456825 </v>
   <v>       0.88907937       0.58358201       0.79456801 </v>
   <v>       0.77755959       0.66640566       0.20540687 </v>
   <v>       0.88908934       0.58358730       0.70543193 </v>
   <v>       0.77756594       0.91639112       0.29456869 </v>
   <v>       0.88908729       0.83358734       0.79456356 </v>
   <v>       0.77755916       0.41641112       0.20542870 </v>
   <v>       0.44422192       0.91639247       0.20543475 </v>
   <v>       0.44422855       0.91639039       0.29457070 </v>
   <v>       0.22244280       0.58359875       0.70542997 </v>
   <v>       0.22243941       0.58359338       0.79456370 </v>
   <v>       0.11088188       0.91639770       0.29457154 </v>
   <v>       0.22243828       0.83360339       0.79455903 </v>
   <v>       0.11088731       0.91639673       0.20542856 </v>
   <v>       0.22243797       0.83359827       0.70542976 </v>
   <v>       0.11088757       0.66640910       0.29456923 </v>
   <v>       0.77756500       0.91638821       0.20542683 </v>
   <v>       0.44422985       0.16639602       0.29457129 </v>
   <v>       0.55577681       0.08361581       0.79456035 </v>
   <v>       0.44421421       0.16637916       0.20543711 </v>
   <v>       0.55576700       0.08360493       0.70542779 </v>
   <v>       0.44424489       0.41640425       0.29456674 </v>
   <v>       0.55576884       0.33361158       0.79456839 </v>
   <v>       0.44424890       0.41641013       0.20542965 </v>
   <v>       0.55576375       0.33360856       0.70542884 </v>
   <v>       0.22244978       0.33360633       0.70542808 </v>
   <v>       0.11090280       0.41641250       0.20543698 </v>
   <v>       0.44424281       0.66640047       0.29456570 </v>
   <v>       0.55576847       0.58359995       0.79457926 </v>
   <v>       0.44425532       0.66640196       0.20542505 </v>
   <v>       0.55576201       0.58359828       0.70543011 </v>
   <v>       0.22244412       0.33360613       0.79456534 </v>
   <v>       0.11089960       0.41641356       0.29456971 </v>
   <v>       0.55577593       0.83359980       0.79456436 </v>
   <v>       0.88908998       0.83358475       0.70543031 </v>
  </varray>
 </structure>
</modeling>
