basalPlane                              
           1
     9.570946    0.000000    0.000000
    -6.380628   11.051579    0.000000
     0.000000    0.000000   34.880263
   C    Cr   H    Mo   S 
  10   1  10  24  48
Direct configuration=     1
   0.57475014  0.63076961  0.94975870
   0.45077080  0.58506059  0.97795263
   0.64229505  0.55333945  0.94814804
   0.55879339  0.45761386  0.97566633
   0.43955050  0.47798143  0.99424984
   0.76241055  0.77010601  0.04363519
   0.78813197  0.60164585  0.05638554
   0.69334665  0.65773206  0.06474681
   0.91384851  0.67843280  0.03068764
   0.89851514  0.78161040  0.02267525
   0.67460279  0.62142027  0.00577607
   0.35468822  0.42133252  0.01621877
   0.59126135  0.62338705  0.08426372
   0.00119333  0.65826171  0.01772877
   0.76642747  0.51490313  0.06725567
   0.72140766  0.83566522  0.04416002
   0.38065353  0.62680726  0.98661543
   0.61627735  0.71404131  0.93356208
   0.74046089  0.56538775  0.92954395
   0.57847524  0.38184513  0.98060810
   0.97447838  0.85475043  0.00316932
   0.55555566  0.08333325  0.25000928
   0.55555566  0.33333325  0.25000928
   0.44444432  0.41666674  0.74999076
   0.55555566  0.58333325  0.25000928
   0.44444432  0.66666674  0.74999076
   0.55555566  0.83333325  0.25000928
   0.44444432  0.91666674  0.74999076
   0.88888899  0.33333325  0.25000928
   0.77777765  0.16666674  0.74999076
   0.77777765  0.41666674  0.74999076
   0.88888899  0.58333325  0.25000928
   0.77777765  0.66666674  0.74999076
   0.88888899  0.83333325  0.25000928
   0.77777765  0.91666674  0.74999076
   0.11111099  0.91666674  0.74999076
   0.88888899  0.08333325  0.25000928
   0.22222233  0.83333325  0.25000928
   0.44444432  0.16666674  0.74999076
   0.22222233  0.58333325  0.25000928
   0.11111099  0.41666674  0.74999076
   0.22222233  0.33333325  0.25000928
   0.22222233  0.08333325  0.25000928
   0.11111099  0.16666674  0.74999076
   0.11111099  0.66666674  0.74999076
   0.77777765  0.16666674  0.29487388
   0.88888899  0.08333325  0.79485533
   0.77777765  0.16666674  0.20514467
   0.88888899  0.08333325  0.70512613
   0.22222233  0.08333325  0.70512613
   0.11111099  0.16666674  0.20514467
   0.77777765  0.41666674  0.29487388
   0.88888899  0.33333325  0.79485533
   0.11111099  0.66666674  0.20514467
   0.55555566  0.83333325  0.70512613
   0.88888899  0.33333325  0.70512613
   0.22222233  0.08333325  0.79485533
   0.11111099  0.16666674  0.29487388
   0.77777765  0.66666674  0.29487388
   0.88888899  0.58333325  0.79485533
   0.77777765  0.66666674  0.20514467
   0.88888899  0.58333325  0.70512613
   0.77777765  0.91666674  0.29487388
   0.88888899  0.83333325  0.79485533
   0.77777765  0.41666674  0.20514467
   0.44444432  0.91666674  0.20514467
   0.44444432  0.91666674  0.29487388
   0.22222233  0.58333325  0.70512613
   0.22222233  0.58333325  0.79485533
   0.11111099  0.91666674  0.29487388
   0.22222233  0.83333325  0.79485533
   0.11111099  0.91666674  0.20514467
   0.22222233  0.83333325  0.70512613
   0.11111099  0.66666674  0.29487388
   0.77777765  0.91666674  0.20514467
   0.44444432  0.16666674  0.29487388
   0.55555566  0.08333325  0.79485533
   0.44444432  0.16666674  0.20514467
   0.55555566  0.08333325  0.70512613
   0.44444432  0.41666674  0.29487388
   0.55555566  0.33333325  0.79485533
   0.44444432  0.41666674  0.20514467
   0.55555566  0.33333325  0.70512613
   0.22222233  0.33333325  0.70512613
   0.11111099  0.41666674  0.20514467
   0.44444432  0.66666674  0.29487388
   0.55555566  0.58333325  0.79485533
   0.44444432  0.66666674  0.20514467
   0.55555566  0.58333325  0.70512613
   0.22222233  0.33333325  0.79485533
   0.11111099  0.41666674  0.29487388
   0.55555566  0.83333325  0.79485533
   0.88888899  0.83333325  0.70512613
Direct configuration=     2
   0.57454805  0.63055406  0.94971913
   0.45086415  0.58509134  0.97793324
   0.64228647  0.55340301  0.94812664
   0.55875061  0.45765113  0.97566519
   0.43954731  0.47800434  0.99423540
   0.76248438  0.77010960  0.04361624
   0.78833414  0.60182439  0.05638708
   0.69337924  0.65766238  0.06474743
   0.91384602  0.67849573  0.03069583
   0.89858602  0.78156608  0.02273248
   0.67448700  0.62136699  0.00581794
   0.35470342  0.42136977  0.01622984
   0.59124168  0.62337208  0.08427848
   0.00119417  0.65829610  0.01773363
   0.76642073  0.51487257  0.06725985
   0.72138532  0.83562354  0.04417050
   0.38064226  0.62684286  0.98661569
   0.61631566  0.71405308  0.93355113
   0.74043170  0.56535554  0.92953356
   0.57847460  0.38185337  0.98061143
   0.97442330  0.85472258  0.00317255
   0.55615892  0.08410209  0.25000202
   0.55616347  0.33410046  0.25000160
   0.44384532  0.41589764  0.74999995
   0.55618201  0.58410899  0.25000343
   0.44384740  0.66589233  0.74999895
   0.55616982  0.83410993  0.25000218
   0.44384710  0.91589915  0.74999845
   0.88949968  0.33410137  0.25000174
   0.77720362  0.16588928  0.74999798
   0.77719675  0.41588370  0.74999726
   0.88949940  0.58411105  0.25000017
   0.77719104  0.66588650  0.74999726
   0.88950110  0.83409866  0.24999948
   0.77720408  0.91589203  0.74999767
   0.11050923  0.91589964  0.74999689
   0.88949920  0.08410010  0.25000251
   0.22279276  0.83410915  0.25000180
   0.44384938  0.16589952  0.74999813
   0.22279002  0.58410920  0.25000439
   0.11051142  0.41589599  0.74999720
   0.22279540  0.33410624  0.25000327
   0.22279614  0.08410262  0.25000267
   0.11050922  0.16590213  0.74999698
   0.11051397  0.66589830  0.74999606
   0.77747227  0.16628074  0.29460361
   0.88918944  0.08372328  0.79458595
   0.77746927  0.16627558  0.20541848
   0.88918539  0.08371884  0.70539151
   0.22252425  0.08371951  0.70539130
   0.11080677  0.16627454  0.20541810
   0.77747230  0.41628035  0.29460321
   0.88918664  0.33371976  0.79458722
   0.11080484  0.66628256  0.20541491
   0.55585336  0.83371977  0.70539178
   0.88918487  0.33371876  0.70539118
   0.22252731  0.08372536  0.79458650
   0.11081054  0.16628150  0.29460338
   0.77747193  0.66628034  0.29460408
   0.88917797  0.58371676  0.79459090
   0.77747080  0.66628130  0.20540522
   0.88918544  0.58371864  0.70539192
   0.77747155  0.91628036  0.29460386
   0.88918078  0.83371653  0.79458794
   0.77747197  0.41628630  0.20541478
   0.44414104  0.91627878  0.20541717
   0.44414406  0.91628081  0.29460371
   0.22252311  0.58371960  0.70539142
   0.22252691  0.58371905  0.79458785
   0.11081093  0.91628132  0.29460399
   0.22252533  0.83372115  0.79458565
   0.11080299  0.91627534  0.20541519
   0.22252412  0.83371905  0.70539182
   0.11081187  0.66628133  0.29460368
   0.77747288  0.91627376  0.20541397
   0.44414363  0.16628096  0.29460334
   0.55585551  0.08372372  0.79458588
   0.44413910  0.16627567  0.20541846
   0.55585341  0.08371928  0.70539128
   0.44414332  0.41628097  0.29460283
   0.55585274  0.33372428  0.79458937
   0.44415157  0.41628736  0.20541423
   0.55585351  0.33371974  0.70539113
   0.22252439  0.33371955  0.70539104
   0.11081057  0.41628170  0.20541846
   0.44414350  0.66628123  0.29460306
   0.55585460  0.58371877  0.79459432
   0.44415444  0.66628223  0.20541107
   0.55585376  0.58371956  0.70539137
   0.22252902  0.33372308  0.79458826
   0.11081131  0.41628196  0.29460311
   0.55585500  0.83371724  0.79458779
   0.88918514  0.83371856  0.70539199
Direct configuration=     3
   0.57457030  0.63057779  0.94972348
   0.45085387  0.58508796  0.97793537
   0.64228741  0.55339602  0.94812899
   0.55875532  0.45764703  0.97566532
   0.43954766  0.47800182  0.99423699
   0.76247625  0.77010920  0.04361832
   0.78831189  0.60180474  0.05638691
   0.69337566  0.65767005  0.06474737
   0.91384629  0.67848880  0.03069493
   0.89857822  0.78157096  0.02272618
   0.67449974  0.62137285  0.00581333
   0.35470175  0.42136567  0.01622862
   0.59124385  0.62337373  0.08427685
   0.00119407  0.65829232  0.01773309
   0.76642147  0.51487594  0.06725939
   0.72138778  0.83562813  0.04416934
   0.38064350  0.62683894  0.98661566
   0.61631144  0.71405179  0.93355234
   0.74043492  0.56535908  0.92953471
   0.57847467  0.38185247  0.98061106
   0.97442936  0.85472565  0.00317219
   0.55609252  0.08401746  0.25000282
   0.55609656  0.33401601  0.25000245
   0.44391126  0.41598230  0.74999894
   0.55611306  0.58402360  0.25000407
   0.44391311  0.66597757  0.74999805
   0.55610222  0.83402444  0.25000297
   0.44391284  0.91598364  0.74999760
   0.88943245  0.33401682  0.25000257
   0.77726681  0.16597486  0.74999718
   0.77726070  0.41596989  0.74999655
   0.88943221  0.58402543  0.25000117
   0.77725561  0.66597239  0.74999654
   0.88943372  0.83401440  0.25000056
   0.77726722  0.91597731  0.74999691
   0.11057547  0.91598408  0.74999621
   0.88943203  0.08401569  0.25000326
   0.22272997  0.83402374  0.25000262
   0.44391487  0.16598397  0.74999732
   0.22272753  0.58402379  0.25000493
   0.11057742  0.41598084  0.74999649
   0.22273232  0.33402115  0.25000393
   0.22273297  0.08401793  0.25000340
   0.11057546  0.16598629  0.74999630
   0.11057969  0.66598289  0.74999547
   0.77750589  0.16632323  0.29463336
   0.88915637  0.08368035  0.79461560
   0.77750321  0.16631864  0.20538834
   0.88915276  0.08367639  0.70536230
   0.22249102  0.08367699  0.70536211
   0.11084026  0.16631772  0.20538800
   0.77750591  0.41632289  0.29463300
   0.88915388  0.33367722  0.79461673
   0.11083854  0.66632485  0.20538516
   0.55582059  0.83367722  0.70536254
   0.88915230  0.33367633  0.70536200
   0.22249374  0.08368219  0.79461609
   0.11084361  0.16632391  0.29463315
   0.77750558  0.66632287  0.29463378
   0.88914616  0.58367455  0.79462001
   0.77750458  0.66632373  0.20537654
   0.88915281  0.58367622  0.70536266
   0.77750524  0.91632289  0.29463359
   0.88914866  0.83367434  0.79461737
   0.77750562  0.41632818  0.20538504
   0.44417443  0.91632148  0.20538718
   0.44417711  0.91632329  0.29463345
   0.22249000  0.58367707  0.70536222
   0.22249338  0.58367658  0.79461729
   0.11084396  0.91632374  0.29463370
   0.22249198  0.83367845  0.79461533
   0.11083690  0.91631843  0.20538541
   0.22249090  0.83367658  0.70536257
   0.11084479  0.66632376  0.29463343
   0.77750642  0.91631702  0.20538433
   0.44417673  0.16632343  0.29463312
   0.55582251  0.08368074  0.79461554
   0.44417270  0.16631872  0.20538832
   0.55582063  0.08367679  0.70536209
   0.44417645  0.41632344  0.29463267
   0.55582004  0.33368123  0.79461865
   0.44418380  0.41632912  0.20538455
   0.55582072  0.33367720  0.70536196
   0.22249114  0.33367703  0.70536188
   0.11084364  0.41632409  0.20538832
   0.44417661  0.66632366  0.29463287
   0.55582169  0.58367633  0.79462305
   0.44418635  0.66632455  0.20538175
   0.55582095  0.58367704  0.70536217
   0.22249526  0.33368016  0.79461766
   0.11084429  0.41632431  0.29463291
   0.55582205  0.83367497  0.79461724
   0.88915254  0.83367615  0.70536273
Direct configuration=     4
   0.57473842  0.63093963  0.94962765
   0.45059555  0.58505707  0.97794946
   0.64216769  0.55317184  0.94813143
   0.55884249  0.45759853  0.97563901
   0.43939779  0.47793289  0.99427088
   0.76234176  0.77003040  0.04367281
   0.78820075  0.60140289  0.05645990
   0.69333296  0.65779699  0.06477697
   0.91411856  0.67847773  0.03070269
   0.89883780  0.78193452  0.02266039
   0.67448011  0.62137710  0.00580369
   0.35476049  0.42142682  0.01622117
   0.59131670  0.62336113  0.08427860
   0.00115549  0.65833506  0.01773943
   0.76650482  0.51506099  0.06724194
   0.72140002  0.83559493  0.04417182
   0.38075887  0.62683966  0.98659986
   0.61623120  0.71386886  0.93356576
   0.74041895  0.56535451  0.92952398
   0.57844244  0.38191572  0.98061247
   0.97430244  0.85461157  0.00320709
   0.55594591  0.08384979  0.25000609
   0.55595069  0.33385062  0.25000378
   0.44404955  0.41615073  0.74999685
   0.55597494  0.58386230  0.25000353
   0.44405101  0.66614076  0.74999626
   0.55595872  0.83385799  0.25000420
   0.44405058  0.91614978  0.74999451
   0.88927763  0.33385454  0.25000406
   0.77739145  0.16614176  0.74999296
   0.77738274  0.41613525  0.74999403
   0.88927609  0.58386562  0.25000086
   0.77737403  0.66613442  0.74999521
   0.88927643  0.83384584  0.25000096
   0.77739153  0.91614330  0.74999370
   0.11071763  0.91614744  0.74999363
   0.88927688  0.08384782  0.25000543
   0.22259709  0.83385775  0.25000524
   0.44405202  0.16615327  0.74999383
   0.22260096  0.58386256  0.25000523
   0.11072149  0.41614406  0.74999362
   0.22260494  0.33385822  0.25000549
   0.22259802  0.08384952  0.25000661
   0.11072227  0.16615239  0.74999282
   0.11071976  0.66614360  0.74999396
   0.77757575  0.16640208  0.29455976
   0.88909533  0.08359821  0.79454657
   0.77757127  0.16639489  0.20545532
   0.88908927  0.08359262  0.70543774
   0.22242692  0.08359907  0.70543900
   0.11090607  0.16639790  0.20545365
   0.77757733  0.41640411  0.29455838
   0.88909082  0.33359262  0.79454791
   0.11090396  0.66641130  0.20544873
   0.55575763  0.83359649  0.70544062
   0.88908886  0.33359148  0.70543762
   0.22242979  0.08360614  0.79454549
   0.11091002  0.16640676  0.29456127
   0.77758059  0.66640471  0.29456038
   0.88907766  0.58358782  0.79455197
   0.77757381  0.66640470  0.20543546
   0.88908737  0.58359081  0.70543910
   0.77757787  0.91640114  0.29455969
   0.88908167  0.83358803  0.79454868
   0.77757608  0.41641191  0.20544998
   0.44423921  0.91640035  0.20545385
   0.44424280  0.91640277  0.29455909
   0.22242661  0.58359733  0.70543893
   0.22242858  0.58359507  0.79454762
   0.11090809  0.91640600  0.29456179
   0.22242613  0.83359906  0.79454450
   0.11090085  0.91639992  0.20544819
   0.22242692  0.83359841  0.70543918
   0.11090914  0.66640922  0.29456148
   0.77757795  0.91639398  0.20544854
   0.44424324  0.16640281  0.29455897
   0.55576159  0.08360345  0.79454520
   0.44423576  0.16639479  0.20545539
   0.55575875  0.08359748  0.70543949
   0.44424563  0.41640356  0.29455770
   0.55575730  0.33360284  0.79455024
   0.44425613  0.41641354  0.20545075
   0.55575654  0.33359742  0.70543942
   0.22242815  0.33359900  0.70543834
   0.11091222  0.41640988  0.20545429
   0.44424600  0.66640515  0.29455757
   0.55575924  0.58359512  0.79455734
   0.44425959  0.66640524  0.20544726
   0.55575597  0.58359539  0.70543965
   0.22243149  0.33360185  0.79454899
   0.11090988  0.41640815  0.29456115
   0.55576093  0.83359323  0.79454767
   0.88908770  0.83359147  0.70543869
Direct configuration=     5
   0.57465295  0.63075569  0.94967637
   0.45072687  0.58507277  0.97794230
   0.64222855  0.55328580  0.94813019
   0.55879818  0.45762318  0.97565238
   0.43947398  0.47796793  0.99425365
   0.76241013  0.77007046  0.04364511
   0.78825724  0.60160717  0.05642280
   0.69335466  0.65773246  0.06476192
   0.91398015  0.67848336  0.03069875
   0.89870584  0.78174970  0.02269383
   0.67449009  0.62137494  0.00580859
   0.35473063  0.42139574  0.01622496
   0.59127967  0.62336754  0.08427771
   0.00117510  0.65831333  0.01773621
   0.76646245  0.51496692  0.06725081
   0.72139380  0.83561181  0.04417056
   0.38070022  0.62683930  0.98660790
   0.61627199  0.71396185  0.93355894
   0.74042707  0.56535683  0.92952943
   0.57845882  0.38188357  0.98061176
   0.97436696  0.85466956  0.00318935
   0.55602044  0.08393502  0.25000443
   0.55602485  0.33393470  0.25000310
   0.44397925  0.41606511  0.74999791
   0.55604515  0.58394430  0.25000381
   0.44398091  0.66605780  0.74999717
   0.55603167  0.83394260  0.25000357
   0.44398056  0.91606532  0.74999608
   0.88935634  0.33393704  0.25000330
   0.77732809  0.16605692  0.74999511
   0.77732070  0.41605119  0.74999531
   0.88935545  0.58394686  0.25000102
   0.77731383  0.66605205  0.74999589
   0.88935639  0.83393153  0.25000076
   0.77732834  0.91605892  0.74999533
   0.11064536  0.91606439  0.74999494
   0.88935575  0.08393316  0.25000432
   0.22266464  0.83394213  0.25000391
   0.44398230  0.16606721  0.74999561
   0.22266530  0.58394452  0.25000508
   0.11064825  0.41606109  0.74999508
   0.22266969  0.33394104  0.25000470
   0.22266663  0.08393513  0.25000498
   0.11064764  0.16606796  0.74999459
   0.11064855  0.66606190  0.74999473
   0.77754024  0.16636200  0.29459718
   0.88912636  0.08363997  0.79458166
   0.77753667  0.16635613  0.20542127
   0.88912155  0.08363521  0.70539939
   0.22245950  0.08363868  0.70539991
   0.11087262  0.16635714  0.20542028
   0.77754102  0.41636282  0.29459631
   0.88912287  0.33363562  0.79458290
   0.11087070  0.66636735  0.20541642
   0.55578963  0.83363753  0.70540093
   0.88912111  0.33363461  0.70539918
   0.22246230  0.08364480  0.79458138
   0.11087626  0.16636464  0.29459781
   0.77754246  0.66636311  0.29459769
   0.88911248  0.58363191  0.79458656
   0.77753862  0.66636354  0.20540551
   0.88912064  0.58363423  0.70540025
   0.77754095  0.91636137  0.29459726
   0.88911572  0.83363191  0.79458360
   0.77754026  0.41636934  0.20541697
   0.44420628  0.91636026  0.20541996
   0.44420941  0.91636237  0.29459689
   0.22245883  0.58363787  0.70539993
   0.22246153  0.58363651  0.79458304
   0.11087549  0.91636419  0.29459834
   0.22245960  0.83363942  0.79458051
   0.11086834  0.91635849  0.20541628
   0.22245944  0.83363815  0.70540024
   0.11087643  0.66636577  0.29459805
   0.77754159  0.91635486  0.20541590
   0.44420943  0.16636245  0.29459667
   0.55579256  0.08364274  0.79458096
   0.44420370  0.16635612  0.20542129
   0.55579021  0.08363780  0.70540014
   0.44421046  0.41636283  0.29459581
   0.55578919  0.33364269  0.79458502
   0.44421936  0.41637063  0.20541710
   0.55578917  0.33363797  0.70540004
   0.22246017  0.33363867  0.70539947
   0.11087736  0.41636627  0.20542075
   0.44421072  0.66636373  0.29459585
   0.55579099  0.58363640  0.79459075
   0.44422235  0.66636422  0.20541395
   0.55578900  0.58363690  0.70540026
   0.22246391  0.33364166  0.79458390
   0.11087654  0.41636553  0.29459763
   0.55579200  0.83363478  0.79458304
   0.88912066  0.83363452  0.70540007
Direct configuration=     6
   0.57442126  0.63045477  0.94971304
   0.45082073  0.58506445  0.97788918
   0.64209702  0.55327197  0.94810138
   0.55870683  0.45764951  0.97564977
   0.43956487  0.47805788  0.99422486
   0.76248816  0.77007610  0.04365997
   0.78838473  0.60187901  0.05640659
   0.69349381  0.65769312  0.06477932
   0.91389820  0.67856276  0.03075512
   0.89851653  0.78153817  0.02276132
   0.67446815  0.62137293  0.00580831
   0.35469669  0.42140425  0.01624514
   0.59129101  0.62334660  0.08429539
   0.00129319  0.65833601  0.01772303
   0.76647193  0.51484306  0.06727382
   0.72137151  0.83557451  0.04418136
   0.38071048  0.62689652  0.98660402
   0.61634749  0.71406333  0.93350975
   0.74038663  0.56532128  0.92951859
   0.57845130  0.38189136  0.98061544
   0.97446120  0.85478708  0.00316467
   0.55585699  0.08374160  0.25000557
   0.55586271  0.33374409  0.25000210
   0.44413590  0.41625949  0.74999819
   0.55589231  0.58375898  0.25000072
   0.44413625  0.66624492  0.74999750
   0.55587237  0.83375134  0.25000229
   0.44413657  0.91625682  0.74999509
   0.88918923  0.33375372  0.25000262
   0.77747467  0.16624996  0.74999306
   0.77746319  0.41624155  0.74999494
   0.88918688  0.58376605  0.24999812
   0.77745306  0.66623939  0.74999665
   0.88918665  0.83374082  0.24999847
   0.77747436  0.91625079  0.74999432
   0.11080124  0.91624968  0.74999431
   0.88918827  0.08374288  0.25000433
   0.22251030  0.83375051  0.25000426
   0.44413885  0.16626302  0.74999428
   0.22251823  0.58375872  0.25000326
   0.11080635  0.41624592  0.74999425
   0.22252251  0.33375246  0.25000406
   0.22251081  0.08374027  0.25000590
   0.11080866  0.16625637  0.74999310
   0.11080206  0.66624386  0.74999520
   0.77761650  0.16645277  0.29453788
   0.88905865  0.08354708  0.79452604
   0.77761045  0.16644290  0.20547382
   0.88905085  0.08353966  0.70546102
   0.22238900  0.08354902  0.70546290
   0.11094513  0.16644824  0.20547173
   0.77761882  0.41645715  0.29453533
   0.88905271  0.33353950  0.79452761
   0.11094316  0.66646630  0.20546537
   0.55571847  0.83354466  0.70546509
   0.88905022  0.33353817  0.70546111
   0.22239186  0.08355803  0.79452435
   0.11094910  0.16645913  0.29453998
   0.77762429  0.66645731  0.29453811
   0.88903576  0.58353287  0.79453220
   0.77761430  0.66645672  0.20544883
   0.88904688  0.58353678  0.70546342
   0.77762003  0.91645036  0.29453736
   0.88904087  0.83353398  0.79452852
   0.77761657  0.41646480  0.20546706
   0.44427776  0.91645002  0.20547206
   0.44428225  0.91645235  0.29453714
   0.22238947  0.58354621  0.70546306
   0.22238972  0.58354301  0.79452726
   0.11094407  0.91645687  0.29454032
   0.22238679  0.83354885  0.79452345
   0.11093901  0.91645133  0.20546470
   0.22238860  0.83354779  0.70546316
   0.11094588  0.66646260  0.29453970
   0.77761939  0.91644304  0.20546528
   0.44428310  0.16645327  0.29453719
   0.55572447  0.08355529  0.79452437
   0.44427244  0.16644210  0.20547383
   0.55572011  0.08354717  0.70546327
   0.44428864  0.41645533  0.29453501
   0.55571890  0.33355347  0.79453070
   0.44429976  0.41646656  0.20546836
   0.55571682  0.33354750  0.70546344
   0.22239183  0.33354951  0.70546211
   0.11095306  0.41646395  0.20547236
   0.44428873  0.66645682  0.29453453
   0.55572061  0.58354381  0.79453962
   0.44430400  0.66645681  0.20546461
   0.55571551  0.58354331  0.70546384
   0.22239326  0.33355209  0.79452912
   0.11094888  0.41646175  0.29453958
   0.55572372  0.83354209  0.79452748
   0.88904761  0.83353727  0.70546259
Direct configuration=     7
   0.57455425  0.63062749  0.94969199
   0.45076686  0.58506923  0.97791967
   0.64217251  0.55327991  0.94811791
   0.55875926  0.45763440  0.97565127
   0.43951270  0.47800625  0.99424138
   0.76244337  0.77007286  0.04365144
   0.78831156  0.60172298  0.05641589
   0.69341394  0.65771570  0.06476933
   0.91394524  0.67851718  0.03072276
   0.89862519  0.78165958  0.02272259
   0.67448074  0.62137408  0.00580847
   0.35471617  0.42139936  0.01623356
   0.59128450  0.62335862  0.08428525
   0.00122541  0.65832299  0.01773060
   0.76646649  0.51491415  0.06726061
   0.72138430  0.83559592  0.04417516
   0.38070459  0.62686367  0.98660624
   0.61630416  0.71400508  0.93353798
   0.74040984  0.56534169  0.92952481
   0.57845562  0.38188689  0.98061333
   0.97440711  0.85471963  0.00317884
   0.55595081  0.08385262  0.25000491
   0.55595577  0.33385350  0.25000268
   0.44404599  0.41614792  0.74999803
   0.55598004  0.58386535  0.25000249
   0.44404709  0.66613752  0.74999731
   0.55596380  0.83386112  0.25000302
   0.44404702  0.91614691  0.74999566
   0.88928515  0.33385894  0.25000301
   0.77739054  0.16613916  0.74999423
   0.77738141  0.41613229  0.74999515
   0.88928364  0.58386983  0.24999979
   0.77737314  0.66613186  0.74999621
   0.88928408  0.83385028  0.24999978
   0.77739054  0.91614066  0.74999490
   0.11071177  0.91614333  0.74999467
   0.88928440  0.08385210  0.25000433
   0.22259889  0.83386050  0.25000406
   0.44404899  0.16615063  0.74999504
   0.22260265  0.58386536  0.25000430
   0.11071560  0.41613983  0.74999473
   0.22260699  0.33386070  0.25000443
   0.22260024  0.08385211  0.25000537
   0.11071624  0.16614823  0.74999395
   0.11071395  0.66613942  0.74999493
   0.77757273  0.16640067  0.29457191
   0.88909751  0.08360039  0.79455796
   0.77756810  0.16639309  0.20544366
   0.88909143  0.08359450  0.70542565
   0.22242947  0.08360048  0.70542675
   0.11090351  0.16639595  0.20544220
   0.77757417  0.41640301  0.29457033
   0.88909298  0.33359467  0.79455934
   0.11090157  0.66640951  0.20543727
   0.55575932  0.83359796  0.70542826
   0.88909091  0.33359353  0.70542556
   0.22243229  0.08360784  0.79455708
   0.11090729  0.16640490  0.29457317
   0.77757732  0.66640324  0.29457231
   0.88907980  0.58358971  0.79456340
   0.77757086  0.66640324  0.20542397
   0.88908921  0.58359271  0.70542716
   0.77757464  0.91639928  0.29457174
   0.88908383  0.83359019  0.79456014
   0.77757277  0.41641001  0.20543831
   0.44423673  0.91639850  0.20544215
   0.44424044  0.91640070  0.29457144
   0.22242928  0.58359882  0.70542683
   0.22243093  0.58359668  0.79455928
   0.11090471  0.91640367  0.29457362
   0.22242858  0.83360083  0.79455620
   0.11089845  0.91639804  0.20543691
   0.22242926  0.83359965  0.70542705
   0.11090602  0.66640702  0.29457320
   0.77757473  0.91639243  0.20543694
   0.44424081  0.16640114  0.29457133
   0.55576355  0.08360548  0.79455685
   0.44423298  0.16639275  0.20544368
   0.55576034  0.08359919  0.70542703
   0.44424377  0.41640224  0.29456991
   0.55575925  0.33360468  0.79456187
   0.44425361  0.41641150  0.20543894
   0.55575835  0.33359943  0.70542705
   0.22243106  0.33360068  0.70542616
   0.11090961  0.41640788  0.20544274
   0.44424396  0.66640339  0.29456972
   0.55576100  0.58359696  0.79456897
   0.44425714  0.66640367  0.20543553
   0.55575769  0.58359703  0.70542735
   0.22243381  0.33360350  0.79456056
   0.11090736  0.41640652  0.29457290
   0.55576291  0.83359529  0.79455937
   0.88908954  0.83359309  0.70542670
Direct configuration=     8
   0.57457371  0.63062462  0.94967845
   0.45074539  0.58505231  0.97790863
   0.64213275  0.55327682  0.94809734
   0.55870877  0.45762484  0.97565294
   0.43950562  0.47800556  0.99424597
   0.76247034  0.77008908  0.04365988
   0.78832711  0.60173871  0.05642093
   0.69343769  0.65769631  0.06478492
   0.91399818  0.67854690  0.03073343
   0.89862262  0.78165512  0.02272436
   0.67448543  0.62138154  0.00580887
   0.35473110  0.42142433  0.01623385
   0.59129948  0.62334515  0.08429321
   0.00121860  0.65834698  0.01773457
   0.76648585  0.51490400  0.06726804
   0.72137086  0.83557819  0.04418100
   0.38072588  0.62688908  0.98660150
   0.61629741  0.71398031  0.93352514
   0.74036648  0.56532285  0.92952321
   0.57844676  0.38188284  0.98061625
   0.97439214  0.85472075  0.00318529
   0.55594999  0.08384799  0.25000217
   0.55595596  0.33384970  0.24999936
   0.44404812  0.41615263  0.75000160
   0.55598422  0.58386380  0.24999866
   0.44404911  0.66613973  0.75000070
   0.55596500  0.83385723  0.24999932
   0.44404900  0.91615076  0.74999864
   0.88928906  0.33385918  0.24999987
   0.77739368  0.16614035  0.74999685
   0.77738338  0.41613267  0.74999816
   0.88928625  0.58387168  0.24999568
   0.77737353  0.66613201  0.74999957
   0.88928809  0.83384797  0.24999564
   0.77739344  0.91614169  0.74999774
   0.11070863  0.91614419  0.74999754
   0.88928880  0.08385021  0.25000129
   0.22259674  0.83386044  0.25000081
   0.44405093  0.16615549  0.74999796
   0.22260234  0.58386676  0.25000109
   0.11071384  0.41613988  0.74999760
   0.22260618  0.33386019  0.25000170
   0.22259736  0.08384945  0.25000265
   0.11071426  0.16615024  0.74999676
   0.11071123  0.66613902  0.74999788
   0.77756983  0.16640132  0.29457198
   0.88910059  0.08360038  0.79455723
   0.77756315  0.16639164  0.20544314
   0.88909346  0.08359332  0.70542585
   0.22243269  0.08360029  0.70542691
   0.11090065  0.16639559  0.20544188
   0.77757156  0.41640582  0.29456952
   0.88909492  0.33359313  0.79455878
   0.11089927  0.66641240  0.20543594
   0.55576047  0.83359700  0.70542872
   0.88909260  0.33359249  0.70542595
   0.22243570  0.08360908  0.79455661
   0.11090460  0.16640612  0.29457310
   0.77757551  0.66640487  0.29457165
   0.88907921  0.58358693  0.79456350
   0.77756744  0.66640458  0.20542010
   0.88908895  0.58359053  0.70542833
   0.77757207  0.91639795  0.29457142
   0.88908442  0.83358867  0.79455986
   0.77756887  0.41641116  0.20543655
   0.44423270  0.91639772  0.20544105
   0.44423736  0.91639898  0.29457173
   0.22243302  0.58359806  0.70542743
   0.22243328  0.58359507  0.79455942
   0.11089861  0.91640277  0.29457338
   0.22243131  0.83360085  0.79455591
   0.11089513  0.91639806  0.20543570
   0.22243161  0.83359853  0.70542748
   0.11090112  0.66640819  0.29457246
   0.77757174  0.91639181  0.20543506
   0.44423805  0.16640070  0.29457177
   0.55576676  0.08360743  0.79455674
   0.44422801  0.16638992  0.20544277
   0.55576175  0.08359980  0.70542692
   0.44424408  0.41640361  0.29456949
   0.55576145  0.33360574  0.79456264
   0.44425275  0.41641228  0.20543725
   0.55575935  0.33360090  0.70542720
   0.22243611  0.33360145  0.70542639
   0.11090770  0.41640972  0.20544220
   0.44424372  0.66640349  0.29456906
   0.55576262  0.58359682  0.79457081
   0.44425698  0.66640417  0.20543351
   0.55575836  0.58359640  0.70542778
   0.22243668  0.33360354  0.79456079
   0.11090518  0.41640892  0.29457231
   0.55576608  0.83359556  0.79455969
   0.88908938  0.83359017  0.70542755
Direct configuration=     9
   0.57457934  0.63062378  0.94967453
   0.45073917  0.58504741  0.97790543
   0.64212124  0.55327593  0.94809138
   0.55869414  0.45762207  0.97565343
   0.43950357  0.47800536  0.99424730
   0.76247815  0.77009377  0.04366232
   0.78833161  0.60174326  0.05642239
   0.69344457  0.65769069  0.06478944
   0.91401351  0.67855551  0.03073652
   0.89862188  0.78165382  0.02272487
   0.67448679  0.62138370  0.00580899
   0.35473542  0.42143156  0.01623393
   0.59130382  0.62334125  0.08429551
   0.00121663  0.65835392  0.01773573
   0.76649146  0.51490106  0.06727019
   0.72136696  0.83557306  0.04418269
   0.38073204  0.62689643  0.98660012
   0.61629546  0.71397314  0.93352141
   0.74035391  0.56531739  0.92952275
   0.57844420  0.38188167  0.98061709
   0.97438780  0.85472108  0.00318716
   0.55594975  0.08384665  0.25000138
   0.55595601  0.33384860  0.24999840
   0.44404873  0.41615399  0.75000264
   0.55598543  0.58386335  0.24999755
   0.44404969  0.66614037  0.75000168
   0.55596534  0.83385610  0.24999825
   0.44404958  0.91615188  0.74999950
   0.88929020  0.33385925  0.24999896
   0.77739459  0.16614069  0.74999761
   0.77738395  0.41613278  0.74999904
   0.88928701  0.58387222  0.24999449
   0.77737364  0.66613205  0.75000055