 running on   24 total cores
 distrk:  each k-point on   24 cores,    1 groups
 distr:  one band on    2 cores,   12 groups
 using from now: INCAR     
 vasp.5.4.1 05Feb16 (build Apr 21 2017 13:36:42) gamma-only                     
  
 POSCAR found :  5 types and     171 ions
 scaLAPACK will be used

 ----------------------------------------------------------------------------- 
|                                                                             |
|           W    W    AA    RRRRR   N    N  II  N    N   GGGG   !!!           |
|           W    W   A  A   R    R  NN   N  II  NN   N  G    G  !!!           |
|           W    W  A    A  R    R  N N  N  II  N N  N  G       !!!           |
|           W WW W  AAAAAA  RRRRR   N  N N  II  N  N N  G  GGG   !            |
|           WW  WW  A    A  R   R   N   NN  II  N   NN  G    G                |
|           W    W  A    A  R    R  N    N  II  N    N   GGGG   !!!           |
|                                                                             |
|      For optimal performance we recommend to set                            |
|        NCORE= 4 - approx SQRT( number of cores)                             |
|      NCORE specifies how many cores store one orbital (NPAR=cpu/NCORE).     |
|      This setting can  greatly improve the performance of VASP for DFT.     |
|      The default, NPAR=number of cores might be grossly inefficient         |
|      on modern multi-core architectures or massively parallel machines.     |
|      Do your own testing !!!!                                               |
|      Unfortunately you need to use the default for GW and RPA calculations. |
|      (for HF NCORE is supported but not extensively tested yet)             |
|                                                                             |
 ----------------------------------------------------------------------------- 

 LDA part: xc-table for Pade appr. of Perdew
 POSCAR found :  5 types and     171 ions
 POSCAR, INCAR and KPOINTS ok, starting setup
 FFT: planning ...
 WAVECAR not read
 entering main loop
       N       E                     dE             d eps       ncg     rms          rms(c)
DAV:   1     0.770526092676E+04    0.77053E+04   -0.36433E+05  1188   0.114E+03
DAV:   2    -0.242076181368E+03   -0.79473E+04   -0.77135E+04  1572   0.271E+02
DAV:   3    -0.125919784062E+04   -0.10171E+04   -0.10037E+04  1344   0.104E+02
DAV:   4    -0.132112621701E+04   -0.61928E+02   -0.61604E+02  1812   0.309E+01
DAV:   5    -0.132309575057E+04   -0.19695E+01   -0.19595E+01  1728   0.475E+00    0.169E+02
DAV:   6    -0.127577864031E+04    0.47317E+02   -0.97357E+02  1632   0.278E+01    0.929E+01
DAV:   7    -0.129167382773E+04   -0.15895E+02   -0.13355E+03  1800   0.486E+01    0.538E+01
DAV:   8    -0.123635858112E+04    0.55315E+02   -0.10132E+02  1440   0.873E+00    0.330E+01
DAV:   9    -0.125145197919E+04   -0.15093E+02   -0.20626E+02  1752   0.109E+01    0.682E+01
DAV:  10    -0.122330242534E+04    0.28150E+02   -0.11884E+02  1728   0.126E+01    0.250E+01
DAV:  11    -0.122040810753E+04    0.28943E+01   -0.70416E+01  1788   0.722E+00    0.192E+01
DAV:  12    -0.122496107325E+04   -0.45530E+01   -0.52537E+01  1728   0.284E+00    0.165E+01
DAV:  13    -0.122430490787E+04    0.65617E+00   -0.17313E+00  1668   0.831E-01    0.166E+01
DAV:  14    -0.122340828207E+04    0.89663E+00   -0.98070E+00  1728   0.182E+00    0.172E+01
DAV:  15    -0.122330585082E+04    0.10243E+00   -0.13899E+00  1536   0.657E-01    0.167E+01
DAV:  16    -0.122462064238E+04   -0.13148E+01   -0.98511E+00  1740   0.199E+00    0.172E+01
DAV:  17    -0.122409659394E+04    0.52405E+00   -0.48467E-01  1704   0.922E-01    0.154E+01
DAV:  18    -0.122391857990E+04    0.17801E+00   -0.24467E-01  1572   0.352E-01    0.151E+01
DAV:  19    -0.122325939882E+04    0.65918E+00   -0.12720E+00  1692   0.977E-01    0.117E+01
DAV:  20    -0.122306920945E+04    0.19019E+00   -0.51060E-01  1644   0.570E-01    0.101E+01
DAV:  21    -0.122296267869E+04    0.10653E+00   -0.13696E-01  1692   0.283E-01    0.889E+00
DAV:  22    -0.122293425398E+04    0.28425E-01   -0.68570E-02  1716   0.212E-01    0.822E+00
DAV:  23    -0.122287375492E+04    0.60499E-01   -0.12771E-01  1668   0.282E-01    0.651E+00
DAV:  24    -0.122291898486E+04   -0.45230E-01   -0.13402E-01  1680   0.252E-01    0.659E+00
DAV:  25    -0.122290253445E+04    0.16450E-01   -0.14066E-01  1692   0.243E-01    0.585E+00
DAV:  26    -0.122287157038E+04    0.30964E-01   -0.10959E-01  1692   0.227E-01    0.454E+00
DAV:  27    -0.122291286568E+04   -0.41295E-01   -0.38808E-02  1656   0.155E-01    0.527E+00
DAV:  28    -0.122289281379E+04    0.20052E-01   -0.12140E-02  1476   0.957E-02    0.342E+00
DAV:  29    -0.122286691514E+04    0.25899E-01   -0.10122E-02  1500   0.101E-01    0.240E+00
DAV:  30    -0.122285442705E+04    0.12488E-01   -0.77723E-03  1512   0.785E-02    0.196E+00
DAV:  31    -0.122284672519E+04    0.77019E-02   -0.22116E-03  1416   0.622E-02    0.162E+00
DAV:  32    -0.122283410665E+04    0.12619E-01   -0.80577E-03  1620   0.966E-02    0.123E+00
DAV:  33    -0.122282270919E+04    0.11397E-01   -0.12452E-02  1668   0.131E-01    0.945E-01
DAV:  34    -0.122281832651E+04    0.43827E-02   -0.34103E-03  1452   0.576E-02    0.859E-01
DAV:  35    -0.122281237548E+04    0.59510E-02   -0.20463E-03  1464   0.670E-02    0.867E-01
DAV:  36    -0.122280366430E+04    0.87112E-02   -0.36618E-03  1608   0.120E-01    0.695E-01
DAV:  37    -0.122279920426E+04    0.44600E-02   -0.39363E-03  1500   0.874E-02    0.635E-01
DAV:  38    -0.122279784397E+04    0.13603E-02   -0.16593E-03  1428   0.108E-01    0.465E-01
DAV:  39    -0.122279711168E+04    0.73230E-03   -0.29986E-03  1440   0.613E-02    0.163E-01
DAV:  40    -0.122279693287E+04    0.17881E-03   -0.46459E-04  1164   0.208E-02    0.221E-01
DAV:  41    -0.122279722339E+04   -0.29053E-03   -0.53383E-04  1044   0.233E-02    0.224E-01
DAV:  42    -0.122279700250E+04    0.22089E-03   -0.66132E-05   876   0.907E-03    0.182E-01
DAV:  43    -0.122279718480E+04   -0.18230E-03   -0.13117E-04   912   0.112E-02    0.276E-01
DAV:  44    -0.122279611567E+04    0.10691E-02   -0.19746E-04  1044   0.302E-02    0.185E-01
DAV:  45    -0.122279561295E+04    0.50273E-03   -0.28477E-04  1128   0.231E-02    0.207E-01
DAV:  46    -0.122279553971E+04    0.73237E-04   -0.16280E-04   984   0.128E-02
   1 F= -.12532978E+04 E0= -.12532356E+04  d E =-.125330E+04
 curvature:   0.00 expect dE= 0.000E+00 dE for cont linesearch  0.000E+00
 trial: gam= 0.00000 g(F)=  0.825E+00 g(S)=  0.000E+00 ort = 0.000E+00 (trialstep = 0.100E+01)
 search vector abs. value=  0.825E+00
 bond charge predicted
       N       E                     dE             d eps       ncg     rms          rms(c)
DAV:   1    -0.122300075673E+04   -0.20514E+00   -0.45049E+01  1236   0.485E+00    0.640E+00
DAV:   2    -0.122326337928E+04   -0.26262E+00   -0.28087E+00  1308   0.149E+00    0.600E+00
DAV:   3    -0.122397650065E+04   -0.71312E+00   -0.55555E+00  1692   0.173E+00    0.718E+00
DAV:   4    -0.122332835142E+04    0.64815E+00   -0.42071E+00  1704   0.134E+00    0.391E+00
DAV:   5    -0.122329419702E+04    0.34154E-01   -0.17648E+00  1728   0.438E-01    0.336E+00
DAV:   6    -0.122410272257E+04   -0.80853E+00   -0.53384E+00  1860   0.832E-01    0.168E+01
DAV:   7    -0.122335894816E+04    0.74377E+00   -0.88183E-01  1536   0.738E-01    0.217E+00
DAV:   8    -0.122334467046E+04    0.14278E-01   -0.17320E+00  1644   0.401E-01    0.328E+00
DAV:   9    -0.122330201873E+04    0.42652E-01   -0.92286E-01  1524   0.171E-01    0.132E+00
DAV:  10    -0.122328313219E+04    0.18887E-01   -0.33075E-01  1608   0.126E-01    0.177E+00
DAV:  11    -0.122327455726E+04    0.85749E-02   -0.19506E-01  1596   0.697E-02    0.995E-01
DAV:  12    -0.122326649312E+04    0.80641E-02   -0.39716E-02  1272   0.477E-02    0.112E+00
DAV:  13    -0.122326428968E+04    0.22034E-02   -0.25533E-02  1164   0.343E-02    0.901E-01
DAV:  14    -0.122325579758E+04    0.84921E-02   -0.68778E-03  1332   0.438E-02    0.825E-01
DAV:  15    -0.122325121073E+04    0.45869E-02   -0.50911E-03  1320   0.355E-02    0.805E-01
DAV:  16    -0.122324703743E+04    0.41733E-02   -0.21841E-03  1212   0.303E-02    0.743E-01
DAV:  17    -0.122324407032E+04    0.29671E-02   -0.13575E-03  1116   0.237E-02    0.740E-01
DAV:  18    -0.122324712278E+04   -0.30525E-02   -0.88397E-04   996   0.242E-02    0.746E-01
DAV:  19    -0.122324596852E+04    0.11543E-02   -0.29548E-04   732   0.105E-02    0.752E-01
DAV:  20    -0.122324577493E+04    0.19360E-03   -0.14899E-04   720   0.541E-03    0.741E-01
DAV:  21    -0.122324940816E+04   -0.36332E-02   -0.22552E-04   876   0.223E-02    0.770E-01
DAV:  22    -0.122323902573E+04    0.10382E-01   -0.19126E-03  1224   0.688E-02    0.719E-01
DAV:  23    -0.122323362440E+04    0.54013E-02   -0.13742E-03  1416   0.435E-02    0.670E-01
DAV:  24    -0.122322906665E+04    0.45578E-02   -0.82179E-04  1308   0.373E-02    0.650E-01
DAV:  25    -0.122323063362E+04   -0.15670E-02   -0.39543E-04  1104   0.214E-02    0.650E-01
DAV:  26    -0.122323084626E+04   -0.21264E-03   -0.55088E-05   660   0.603E-03    0.657E-01
DAV:  27    -0.122323372466E+04   -0.28784E-02   -0.51337E-04  1008   0.246E-02    0.653E-01
DAV:  28    -0.122322655552E+04    0.71691E-02   -0.17356E-03  1260   0.589E-02    0.632E-01
DAV:  29    -0.122322201655E+04    0.45390E-02   -0.10917E-03  1344   0.412E-02    0.565E-01
DAV:  30    -0.122322145419E+04    0.56237E-03   -0.44219E-04   984   0.155E-02    0.581E-01
DAV:  31    -0.122322109381E+04    0.36038E-03   -0.45280E-05   732   0.671E-03    0.564E-01
DAV:  32    -0.122322117627E+04   -0.82465E-04   -0.10646E-05   660   0.434E-03
   2 F= -.12537784E+04 E0= -.12537234E+04  d E =-.480558E+00
 trial-energy change:   -0.480558  1 .order   -0.467401   -0.824793   -0.110008
 step:   1.1367(harm=  1.1539)  dis= 0.03227  next Energy= -1253.785921 (dE=-0.488E+00)
 bond charge predicted
       N       E                     dE             d eps       ncg     rms          rms(c)
DAV:   1    -0.122321723396E+04    0.38598E-02   -0.84238E-01  1260   0.665E-01    0.939E-01
DAV:   2    -0.122350705574E+04   -0.28982E+00   -0.12963E+00  1596   0.593E-01    0.104E+01
DAV:   3    -0.122328215556E+04    0.22490E+00   -0.50641E-01  1608   0.379E-01    0.147E+00
DAV:   4    -0.122323295088E+04    0.49205E-01   -0.23474E-01  1608   0.135E-01    0.141E+00
DAV:   5    -0.122322517362E+04    0.77773E-02   -0.16651E-01  1416   0.772E-02    0.911E-01
DAV:   6    -0.122321781541E+04    0.73582E-02   -0.80824E-03  1416   0.547E-02    0.556E-01
DAV:   7    -0.122321630353E+04    0.15119E-02   -0.42755E-03  1428   0.756E-02    0.617E-01
DAV:   8    -0.122321444484E+04    0.18587E-02   -0.58381E-03  1344   0.372E-02    0.351E-01
DAV:   9    -0.122321381299E+04    0.63185E-03   -0.48244E-03   996   0.274E-02    0.312E-01
DAV:  10    -0.122321339256E+04    0.42043E-03   -0.31909E-03   900   0.212E-02    0.203E-01
DAV:  11    -0.122321317999E+04    0.21257E-03   -0.21196E-03   924   0.172E-02    0.123E-01
DAV:  12    -0.122321312882E+04    0.51170E-04   -0.11096E-03   768   0.115E-02    0.891E-02
DAV:  13    -0.122321314189E+04   -0.13072E-04   -0.65376E-04   708   0.966E-03
   3 F= -.12537783E+04 E0= -.12537152E+04  d E =-.480450E+00
 curvature:  -0.57 expect dE=-0.118E-02 dE for cont linesearch -0.430E-04
 ZBRENT: extrapolating
 opt :   1.1473  next Energy= -1253.778300 (dE=-0.480E+00)
 bond charge predicted
       N       E                     dE             d eps       ncg     rms          rms(c)
DAV:   1    -0.122321256683E+04    0.56199E-03   -0.53841E-03  1164   0.542E-02    0.834E-02
DAV:   2    -0.122321281347E+04   -0.24664E-03   -0.23646E-03  1140   0.235E-02    0.204E-01
DAV:   3    -0.122321286361E+04   -0.50138E-04   -0.33686E-03   864   0.218E-02    0.222E-01
DAV:   4    -0.122321272497E+04    0.13863E-03   -0.15763E-03   804   0.192E-02    0.127E-01
DAV:   5    -0.122321267496E+04    0.50019E-04   -0.40685E-04   696   0.700E-03
   4 F= -.12537784E+04 E0= -.12537151E+04  d E =-.480599E+00
 curvature:  -0.55 expect dE=-0.112E-02 dE for cont linesearch -0.474E-07
 trial: gam= 0.00214 g(F)=  0.203E-02 g(S)=  0.000E+00 ort = 0.266E-03 (trialstep = 0.103E+01)
 search vector abs. value=  0.203E-02
 bond charge predicted
       N       E                     dE             d eps       ncg     rms          rms(c)
DAV:   1    -0.122320978505E+04    0.29399E-02   -0.27816E-01  1152   0.348E-01    0.254E-01
DAV:   2    -0.122322515730E+04   -0.15372E-01   -0.61876E-02  1680   0.198E-01    0.102E+00
DAV:   3    -0.122321137372E+04    0.13784E-01   -0.34914E-02  1476   0.138E-01    0.404E-01
DAV:   4    -0.122321070056E+04    0.67316E-03   -0.16083E-03  1068   0.272E-02    0.319E-01
DAV:   5    -0.122321047567E+04    0.22490E-03   -0.14619E-03  1152   0.331E-02    0.289E-01
DAV:   6    -0.122321025245E+04    0.22322E-03   -0.83127E-04   948   0.243E-02    0.183E-01
DAV:   7    -0.122321016996E+04    0.82490E-04   -0.39630E-04   840   0.168E-02
   5 F= -.12537764E+04 E0= -.12537117E+04  d E =0.200157E-02
 trial-energy change:    0.002002  1 .order    0.002038   -0.002089    0.006164
 step:   0.2606(harm=  0.2606)  dis= 0.00073  next Energy= -1253.778672 (dE=-0.264E-03)
 bond charge predicted
       N       E                     dE             d eps       ncg     rms          rms(c)
DAV:   1    -0.122321267114E+04   -0.24187E-02   -0.15513E-01  1152   0.256E-01    0.158E-01
DAV:   2    -0.122322170324E+04   -0.90321E-02   -0.15326E-02  1548   0.109E-01    0.168E+00
DAV:   3    -0.122321522889E+04    0.64744E-02   -0.10878E-02  1272   0.738E-02    0.318E-01
DAV:   4    -0.122321377450E+04    0.14544E-02   -0.12726E-03  1044   0.284E-02    0.366E-01
DAV:   5    -0.122321302831E+04    0.74619E-03   -0.55761E-04   816   0.202E-02    0.136E-01
DAV:   6    -0.122321294594E+04    0.82367E-04   -0.45371E-04   840   0.134E-02
   6 F= -.12537788E+04 E0= -.12537141E+04  d E =-.397127E-03
 curvature:  -0.13 expect dE=-0.813E-04 dE for cont linesearch -0.465E-06
 trial: gam= 0.34908 g(F)=  0.623E-03 g(S)=  0.000E+00 ort =-0.851E-04 (trialstep = 0.876E+00)
 search vector abs. value=  0.811E-03
 bond charge predicted
       N       E                     dE             d eps       ncg     rms          rms(c)
DAV:   1    -0.122321335915E+04   -0.33084E-03   -0.63392E-02  1152   0.190E-01    0.239E-01
DAV:   2    -0.122322176668E+04   -0.84075E-02   -0.27679E-02  1680   0.132E-01    0.808E-01
DAV:   3    -0.122321332494E+04    0.84417E-02   -0.28624E-02  1416   0.126E-01    0.185E-01
DAV:   4    -0.122321352349E+04   -0.19855E-03   -0.16714E-03   960   0.331E-02    0.227E-01
DAV:   5    -0.122321311444E+04    0.40905E-03   -0.33382E-04   768   0.198E-02    0.679E-02
DAV:   6    -0.122321309907E+04    0.15371E-04   -0.16074E-04   696   0.949E-03
   7 F= -.12537790E+04 E0= -.12537159E+04  d E =-.214919E-03
 trial-energy change:   -0.000215  1 .order   -0.000377   -0.000519   -0.000235
 step:   1.5973(harm=  1.5973)  dis= 0.00292  next Energy= -1253.779279 (dE=-0.474E-03)
 bond charge predicted
       N       E                     dE             d eps       ncg     rms          rms(c)
DAV:   1    -0.122321313629E+04   -0.21852E-04   -0.42200E-02  1176   0.155E-01    0.985E-02
DAV:   2    -0.122321644401E+04   -0.33077E-02   -0.98179E-03  1488   0.828E-02    0.573E-01
DAV:   3    -0.122321328396E+04    0.31601E-02   -0.63873E-03  1260   0.580E-02    0.128E-01
DAV:   4    -0.122321322861E+04    0.55353E-04   -0.44967E-04   756   0.117E-02
   8 F= -.12537792E+04 E0= -.12537174E+04  d E =-.397882E-03
 curvature:  -1.09 expect dE=-0.161E-02 dE for cont linesearch -0.277E-05
 trial: gam= 1.95725 g(F)=  0.147E-02 g(S)=  0.000E+00 ort =-0.454E-04 (trialstep = 0.188E+00)
 search vector abs. value=  0.440E-02
 bond charge predicted
       N       E                     dE             d eps       ncg     rms          rms(c)
DAV:   1    -0.122321337350E+04   -0.89532E-04   -0.14672E-02  1152   0.896E-02    0.671E-02
DAV:   2    -0.122321353392E+04   -0.16042E-03   -0.13907E-03   852   0.190E-02    0.178E-01
DAV:   3    -0.122321341331E+04    0.12060E-03   -0.14662E-03   672   0.927E-03    0.816E-02
DAV:   4    -0.122321349791E+04   -0.84598E-04   -0.11159E-03   732   0.101E-02    0.150E-01
DAV:   5    -0.122321338816E+04    0.10975E-03   -0.53173E-04   720   0.101E-02    0.426E-02
DAV:   6    -0.122321340239E+04   -0.14229E-04   -0.80156E-05   660   0.528E-03
   9 F= -.12537794E+04 E0= -.12537167E+04  d E =-.156925E-03
 trial-energy change:   -0.000157  1 .order   -0.000218   -0.000260   -0.000176
 step:   0.5808(harm=  0.5808)  dis= 0.00245  next Energy= -1253.779605 (dE=-0.402E-03)
 bond charge predicted
       N       E                     dE             d eps       ncg     rms          rms(c)
DAV:   1    -0.122321342167E+04   -0.33510E-04   -0.62724E-02  1176   0.186E-01    0.879E-02
DAV:   2    -0.122321556312E+04   -0.21414E-02   -0.64850E-03  1560   0.712E-02    0.481E-01
DAV:   3    -0.122321355084E+04    0.20123E-02   -0.40436E-03  1200   0.474E-02    0.939E-02
DAV:   4    -0.122321359366E+04   -0.42822E-04   -0.24627E-04   732   0.106E-02
  10 F= -.12537795E+04 E0= -.12537172E+04  d E =-.315002E-03
 curvature:  -0.92 expect dE=-0.156E-02 dE for cont linesearch -0.291E-05
 trial: gam= 1.21801 g(F)=  0.169E-02 g(S)=  0.000E+00 ort =-0.118E-03 (trialstep = 0.148E+00)
 search vector abs. value=  0.793E-02
 bond charge predicted
       N       E                     dE             d eps       ncg     rms          rms(c)
DAV:   1    -0.122321366502E+04   -0.11418E-03   -0.14018E-02  1164   0.912E-02    0.585E-02
DAV:   2    -0.122321380890E+04   -0.14388E-03   -0.58790E-04   888   0.191E-02    0.157E-01
DAV:   3    -0.122321370005E+04    0.10885E-03   -0.40636E-04   672   0.961E-03    0.892E-02
DAV:   4    -0.122321382450E+04   -0.12445E-03   -0.47723E-04   732   0.137E-02    0.157E-01
DAV:   5    -0.122321367352E+04    0.15098E-03   -0.16441E-04   672   0.907E-03    0.314E-02
DAV:   6    -0.122321371934E+04   -0.45824E-04   -0.39122E-05   696   0.465E-03
  11 F= -.12537796E+04 E0= -.12537169E+04  d E =-.129205E-03
 trial-energy change:   -0.000129  1 .order   -0.000195   -0.000228   -0.000162
 step:   0.5050(harm=  0.5050)  dis= 0.00295  next Energy= -1253.779908 (dE=-0.390E-03)
 bond charge predicted
       N       E                     dE             d eps       ncg     rms          rms(c)
DAV:   1    -0.122321373407E+04   -0.60553E-04   -0.82172E-02  1176   0.219E-01    0.126E-01
DAV:   2    -0.122321800280E+04   -0.42687E-02   -0.13932E-02  1644   0.104E-01    0.625E-01
DAV:   3    -0.122321398046E+04    0.40223E-02   -0.91364E-03  1344   0.705E-02    0.135E-01
DAV:   4    -0.122321399039E+04   -0.99332E-05   -0.60651E-04   780   0.136E-02
  12 F= -.12537799E+04 E0= -.12537182E+04  d E =-.411397E-03
 curvature:  -1.30 expect dE=-0.155E-02 dE for cont linesearch -0.272E-06
 trial: gam= 0.43731 g(F)=  0.120E-02 g(S)=  0.000E+00 ort = 0.408E-04 (trialstep = 0.219E+00)
 search vector abs. value=  0.275E-02
 bond charge predicted
       N       E                     dE             d eps       ncg     rms          rms(c)
DAV:   1    -0.122321406750E+04   -0.87044E-04   -0.86446E-03  1152   0.737E-02    0.802E-02
DAV:   2    -0.122321464662E+04   -0.57912E-03   -0.19067E-03  1044   0.276E-02    0.329E-01
DAV:   3    -0.122321430727E+04    0.33935E-03   -0.27163E-03  1008   0.347E-02    0.203E-01
DAV:   4    -0.122321405647E+04    0.25081E-03   -0.61333E-04   768   0.155E-02    0.673E-02
DAV:   5    -0.122321404962E+04    0.68482E-05   -0.40895E-04   660   0.515E-03
  13 F= -.12537800E+04 E0= -.12537170E+04  d E =-.609733E-04
 trial-energy change:   -0.000061  1 .order   -0.000217   -0.000266   -0.000168
 step:   0.5969(harm=  0.5969)  dis= 0.00170  next Energy= -1253.780291 (dE=-0.362E-03)
 bond charge predicted
       N       E                     dE             d eps       ncg     rms          rms(c)
DAV:   1    -0.122321413650E+04   -0.80031E-04   -0.24370E-02  1176   0.124E-01    0.615E-02
DAV:   2    -0.122321480478E+04   -0.66828E-03   -0.21726E-03  1368   0.418E-02    0.300E-01
DAV:   3    -0.122321418678E+04    0.61799E-03   -0.14492E-03   984   0.282E-02    0.806E-02
DAV:   4    -0.122321421739E+04   -0.30608E-04   -0.98333E-05   672   0.768E-03
  14 F= -.12537802E+04 E0= -.12537175E+04  d E =-.232544E-03
 curvature:  -0.68 expect dE=-0.718E-03 dE for cont linesearch -0.103E-05
 trial: gam= 0.85685 g(F)=  0.106E-02 g(S)=  0.000E+00 ort = 0.647E-04 (trialstep = 0.254E+00)
 search vector abs. value=  0.319E-02
 bond charge predicted
       N       E                     dE             d eps       ncg     rms          rms(c)
DAV:   1    -0.122321440201E+04   -0.21523E-03   -0.12223E-02  1164   0.880E-02    0.626E-02
DAV:   2    -0.122321566758E+04   -0.12656E-02   -0.23005E-03  1164   0.423E-02    0.530E-01
DAV:   3    -0.122321455363E+04    0.11140E-02   -0.21199E-03  1080   0.358E-02    0.132E-01
DAV:   4    -0.122321441363E+04    0.14000E-03   -0.12578E-04   684   0.851E-03    0.404E-02
DAV:   5    -0.122321442782E+04   -0.14180E-04   -0.10079E-04   660   0.605E-03
  15 F= -.12537803E+04 E0= -.12537175E+04  d E =-.173446E-03
 trial-energy change:   -0.000173  1 .order   -0.000219   -0.000284   -0.000154
 step:   0.5547(harm=  0.5547)  dis= 0.00184  next Energy= -1253.780472 (dE=-0.310E-03)
 bond charge predicted
       N       E                     dE             d eps       ncg     rms          rms(c)
DAV:   1    -0.122321450019E+04   -0.86555E-04   -0.17086E-02  1176   0.104E-01    0.547E-02
DAV:   2    -0.122321490779E+04   -0.40760E-03   -0.15699E-03  1092   0.330E-02    0.279E-01
DAV:   3    -0.122321459628E+04    0.31152E-03   -0.13656E-03   876   0.249E-02    0.120E-01
DAV:   4    -0.122321454240E+04    0.53874E-04   -0.15493E-04   672   0.881E-03
  16 F= -.12537804E+04 E0= -.12537171E+04  d E =-.244798E-03
 curvature:  -0.79 expect dE=-0.945E-03 dE for cont linesearch -0.167E-06
 trial: gam= 1.16588 g(F)=  0.119E-02 g(S)=  0.000E+00 ort =-0.259E-04 (trialstep = 0.183E+00)
 search vector abs. value=  0.547E-02
 bond charge predicted
       N       E                     dE             d eps       ncg     rms          rms(c)
DAV:   1    -0.122321470578E+04   -0.10950E-03   -0.86182E-03  1164   0.765E-02    0.526E-02
DAV:   2    -0.122321481628E+04   -0.11050E-03   -0.67294E-04   876   0.181E-02    0.147E-01
DAV:   3    -0.122321481441E+04    0.18710E-05   -0.84956E-04   744   0.156E-02
  17 F= -.12537807E+04 E0= -.12537195E+04  d E =-.273132E-03
 ZBRENT: can't locate minimum, use default step
 trial-energy change:   -0.000273  1 .order   -0.000192   -0.000213   -0.000170
 step:   0.7327(harm=  0.9049)  dis= 0.00339  next Energy= -1253.780933 (dE=-0.526E-03)
 bond charge predicted
       N       E                     dE             d eps       ncg     rms          rms(c)
DAV:   1    -0.122321495421E+04   -0.13793E-03   -0.76852E-02  1176   0.230E-01    0.137E-01
DAV:   2    -0.122321612273E+04   -0.11685E-02   -0.36296E-03  1608   0.547E-02    0.431E-01
DAV:   3    -0.122321615826E+04   -0.35521E-04   -0.49719E-03  1188   0.484E-02    0.481E-01
DAV:   4    -0.122321548376E+04    0.67449E-03   -0.22751E-03   960   0.312E-02    0.226E-01
DAV:   5    -0.122321520776E+04    0.27600E-03   -0.24098E-04   744   0.127E-02    0.159E-01
DAV:   6    -0.122321510591E+04    0.10185E-03   -0.12995E-04   720   0.107E-02    0.927E-02
DAV:   7    -0.122321512466E+04   -0.18751E-04   -0.14986E-04   672   0.935E-03
  18 F= -.12537810E+04 E0= -.12537168E+04  d E =-.587946E-03
 curvature:  -2.01 expect dE=-0.331E-02 dE for cont linesearch -0.721E-04
 ZBRENT: increasing intervall
 opt :   1.8319  next Energy= -1253.780950 (dE=-0.543E-03)
 bond charge predicted
       N       E                     dE             d eps       ncg     rms          rms(c)
DAV:   1    -0.122321413692E+04    0.96899E-03   -0.30451E-01  1176   0.457E-01    0.205E-01
DAV:   2    -0.122321491721E+04   -0.78029E-03   -0.93941E-03  1572   0.927E-02    0.200E-01
DAV:   3    -0.122321545829E+04   -0.54108E-03   -0.51753E-03  1212   0.372E-02    0.325E-01
DAV:   4    -0.122321509977E+04    0.35851E-03   -0.51274E-03  1188   0.435E-02    0.270E-01
DAV:   5    -0.122321479060E+04    0.30917E-03   -0.13849E-03   948   0.220E-02    0.114E-01
DAV:   6    -0.122321482524E+04   -0.34638E-04   -0.12718E-03   792   0.949E-03    0.147E-01
DAV:   7    -0.122321474257E+04    0.82666E-04   -0.13865E-03   804   0.142E-02    0.735E-02
DAV:   8    -0.122321475956E+04   -0.16989E-04   -0.93711E-04   660   0.925E-03
  19 F= -.12537806E+04 E0= -.12537170E+04  d E =-.237177E-03
 curvature:   1.25 expect dE= 0.912E-02 dE for cont linesearch  0.171E-03
 ZBRENT: bracketing found
 ZBRENT: interpolating
 opt :   1.1057  next Energy= -1253.781077 (dE=-0.671E-03)
 bond charge predicted
       N       E                     dE             d eps       ncg     rms          rms(c)
DAV:   1    -0.122321487431E+04   -0.13173E-03   -0.13451E-01  1176   0.304E-01    0.143E-01
DAV:   2    -0.122321618648E+04   -0.13122E-02   -0.71075E-03  1584   0.774E-02    0.378E-01
DAV:   3    -0.122321586523E+04    0.32125E-03   -0.71651E-03  1284   0.560E-02    0.417E-01
DAV:   4    -0.122321530796E+04    0.55727E-03   -0.16815E-03   972   0.327E-02    0.177E-01
DAV:   5    -0.122321517472E+04    0.13324E-03   -0.27469E-04   744   0.101E-02    0.117E-01
DAV:   6    -0.122321510797E+04    0.66748E-04   -0.38733E-04   720   0.103E-02
  20 F= -.12537810E+04 E0= -.12537179E+04  d E =-.575322E-03
 curvature:  -0.61 expect dE=-0.182E-02 dE for cont linesearch -0.465E-05
 trial: gam= 2.28037 g(F)=  0.300E-02 g(S)=  0.000E+00 ort =-0.205E-03 (trialstep = 0.659E-01)
 search vector abs. value=  0.305E-01
 bond charge predicted
       N       E                     dE             d eps       ncg     rms          rms(c)
DAV:   1    -0.122321525369E+04   -0.78970E-04   -0.69545E-03  1164   0.670E-02    0.890E-02
DAV:   2    -0.122321723114E+04   -0.19774E-02   -0.54279E-03  1248   0.522E-02    0.511E-01
DAV:   3    -0.122321545817E+04    0.17730E-02   -0.57570E-03  1140   0.509E-02    0.175E-01
DAV:   4    -0.122321542679E+04    0.31386E-04   -0.59630E-04   756   0.126E-02
  21 F= -.12537813E+04 E0= -.12537187E+04  d E =-.333949E-03
 ZBRENT: can't locate minimum, use default step
 trial-energy change:   -0.000334  1 .order   -0.000155   -0.000167   -0.000142
 step:   0.2636(harm=  0.4432)  dis= 0.00303  next Energy= -1253.781544 (dE=-0.562E-03)
 bond charge predicted
       N       E                     dE             d eps       ncg     rms          rms(c)
DAV:   1    -0.122321538553E+04    0.72638E-04   -0.56209E-02  1176   0.197E-01    0.107E-01
DAV:   2    -0.122321679762E+04   -0.14121E-02   -0.33472E-03  1488   0.565E-02    0.527E-01
DAV:   3    -0.122321588872E+04    0.90890E-03   -0.37292E-03  1176   0.463E-02    0.243E-01
DAV:   4    -0.122321545964E+04    0.42907E-03   -0.46819E-04   816   0.188E-02    0.506E-02
DAV:   5    -0.122321548171E+04   -0.22072E-04   -0.11130E-04   660   0.671E-03
  22 F= -.12537814E+04 E0= -.12537188E+04  d E =-.435128E-03
 curvature:  -2.06 expect dE=-0.223E-02 dE for cont linesearch -0.342E-04
 ZBRENT: extrapolating
 opt :   0.3607  next Energy= -1253.781452 (dE=-0.470E-03)
 bond charge predicted
       N       E                     dE             d eps       ncg     rms          rms(c)
DAV:   1    -0.122321543634E+04    0.23302E-04   -0.13517E-02  1176   0.958E-02    0.689E-02
DAV:   2    -0.122321560433E+04   -0.16799E-03   -0.18614E-03  1020   0.209E-02    0.182E-01
DAV:   3    -0.122321556352E+04    0.40811E-04   -0.23682E-03   744   0.124E-02    0.136E-01
DAV:   4    -0.122321555025E+04    0.13273E-04   -0.13286E-03   732   0.138E-02    0.125E-01
DAV:   5    -0.122321547010E+04    0.80145E-04   -0.43651E-04   660   0.802E-03
  23 F= -.12537814E+04 E0= -.12537178E+04  d E =-.446684E-03
 curvature:  -2.08 expect dE=-0.268E-02 dE for cont linesearch -0.184E-06
 trial: gam= 0.32844 g(F)=  0.129E-02 g(S)=  0.000E+00 ort =-0.520E-04 (trialstep = 0.125E+00)
 search vector abs. value=  0.454E-02
 bond charge predicted
       N       E                     dE             d eps       ncg     rms          rms(c)
DAV:   1    -0.122321558350E+04   -0.33250E-04   -0.33395E-03  1116   0.475E-02    0.669E-02
DAV:   2    -0.122321578953E+04   -0.20603E-03   -0.89255E-04   828   0.166E-02    0.193E-01
DAV:   3    -0.122321569228E+04    0.97252E-04   -0.14311E-03   816   0.203E-02    0.150E-01
DAV:   4    -0.122321558292E+04    0.10936E-03   -0.56135E-04   732   0.129E-02    0.581E-02
DAV:   5    -0.122321557343E+04    0.94884E-05   -0.29665E-04   636   0.423E-03
  24 F= -.12537816E+04 E0= -.12537186E+04  d E =-.132288E-03
 ZBRENT: can't locate minimum, use default step
 trial-energy change:   -0.000132  1 .order   -0.000147   -0.000158   -0.000136
 step:   0.4995(harm=  0.8781)  dis= 0.00225  next Energy= -1253.781986 (dE=-0.557E-03)
 bond charge predicted
       N       E                     dE             d eps       ncg     rms          rms(c)
DAV:   1    -0.122321574283E+04   -0.15991E-03   -0.29176E-02  1176   0.141E-01    0.714E-02
DAV:   2    -0.122321605454E+04   -0.31171E-03   -0.18297E-03  1464   0.377E-02    0.210E-01
DAV:   3    -0.122321600729E+04    0.47254E-04   -0.18749E-03   948   0.269E-02    0.201E-01
DAV:   4    -0.122321585043E+04    0.15686E-03   -0.50311E-04   792   0.160E-02    0.969E-02
DAV:   5    -0.122321581431E+04    0.36123E-04   -0.58561E-05   660   0.534E-03
  25 F= -.12537819E+04 E0= -.12537189E+04  d E =-.460828E-03
 curvature:  -1.17 expect dE=-0.808E-03 dE for cont linesearch -0.938E-04
 ZBRENT: increasing intervall
 opt :   1.2487  next Energy= -1253.781976 (dE=-0.548E-03)
 bond charge predicted
       N       E                     dE             d eps       ncg     rms          rms(c)
DAV:   1    -0.122321547051E+04    0.37992E-03   -0.11588E-01  1176   0.281E-01    0.142E-01
DAV:   2    -0.122321622149E+04   -0.75098E-03   -0.42925E-03  1620   0.674E-02    0.277E-01
DAV:   3    -0.122321672400E+04   -0.50252E-03   -0.46608E-03  1236   0.517E-02    0.498E-01
DAV:   4    -0.122321583391E+04    0.89009E-03   -0.19203E-03  1020   0.346E-02    0.157E-01
DAV:   5    -0.122321568824E+04    0.14568E-03   -0.14051E-04   684   0.101E-02    0.897E-02
DAV:   6    -0.122321568259E+04    0.56416E-05   -0.21954E-04   732   0.982E-03
  26 F= -.12537819E+04 E0= -.12537188E+04  d E =-.508131E-03
 curvature:  -1.09 expect dE=-0.299E-02 dE for cont linesearch -0.277E-04
 ZBRENT: bracketing found
 ZBRENT: interpolating
 opt :   0.9783  next Energy= -1253.781983 (dE=-0.554E-03)
 bond charge predicted
       N       E                     dE             d eps       ncg     rms          rms(c)
DAV:   1    -0.122321575797E+04   -0.69738E-04   -0.16136E-02  1176   0.103E-01    0.782E-02
DAV:   2    -0.122321633343E+04   -0.57546E-03   -0.29841E-03  1308   0.363E-02    0.304E-01
DAV:   3    -0.122321606460E+04    0.26883E-03   -0.34852E-03   984   0.319E-02    0.234E-01
DAV:   4    -0.122321591689E+04    0.14772E-03   -0.94640E-04   780   0.195E-02    0.137E-01
DAV:   5    -0.122321583160E+04    0.85283E-04   -0.18930E-04   708   0.661E-03
  27 F= -.12537820E+04 E0= -.12537194E+04  d E =-.591971E-03
 curvature:  -1.81 expect dE=-0.314E-02 dE for cont linesearch -0.109E-04
 trial: gam= 1.49643 g(F)=  0.174E-02 g(S)=  0.000E+00 ort =-0.165E-03 (trialstep = 0.118E+00)
 search vector abs. value=  0.114E-01
 bond charge predicted
       N       E                     dE             d eps       ncg     rms          rms(c)
DAV:   1    -0.122321588063E+04    0.36257E-04   -0.80830E-03  1164   0.745E-02    0.645E-02
DAV:   2    -0.122321606035E+04   -0.17972E-03   -0.71929E-04   924   0.189E-02    0.185E-01
DAV:   3    -0.122321605756E+04    0.27889E-05   -0.90330E-04   780   0.174E-02
  28 F= -.12537823E+04 E0= -.12537216E+04  d E =-.286662E-03
 trial-energy change:   -0.000287  1 .order   -0.000145   -0.000175   -0.000114
 step:   0.3355(harm=  0.3355)  dis= 0.00222  next Energy= -1253.782271 (dE=-0.250E-03)
 bond charge predicted
       N       E                     dE             d eps       ncg     rms          rms(c)
DAV:   1    -0.122321598637E+04    0.73984E-04   -0.27821E-02  1176   0.138E-01    0.143E-01
DAV:   2    -0.122322039155E+04   -0.44052E-02   -0.10214E-02  1596   0.787E-02    0.720E-01
DAV:   3    -0.122321645971E+04    0.39318E-02   -0.11545E-02  1296   0.727E-02    0.240E-01
DAV:   4    -0.122321646779E+04   -0.80808E-05   -0.10341E-03   948   0.195E-02    0.271E-01
DAV:   5    -0.122321608227E+04    0.38552E-03   -0.88547E-04   852   0.204E-02    0.111E-01
DAV:   6    -0.122321604026E+04    0.42007E-04   -0.44064E-04   732   0.130E-02
  29 F= -.12537824E+04 E0= -.12537199E+04  d E =-.382588E-03
 curvature:  -1.29 expect dE=-0.131E-02 dE for cont linesearch -0.160E-04
 ZBRENT: increasing intervall
 opt :   0.7712  next Energy= -1253.782310 (dE=-0.289E-03)
 bond charge predicted
       N       E                     dE             d eps       ncg     rms          rms(c)
DAV:   1    -0.122321539899E+04    0.68328E-03   -0.10850E-01  1176   0.271E-01    0.171E-01
DAV:   2    -0.122322014687E+04   -0.47479E-02   -0.16831E-02  1608   0.109E-01    0.721E-01
DAV:   3    -0.122321601488E+04    0.41320E-02   -0.15474E-02  1368   0.793E-02    0.260E-01
DAV:   4    -0.122321603427E+04   -0.19381E-04   -0.22087E-03   924   0.204E-02    0.279E-01
DAV:   5    -0.122321570718E+04    0.32708E-03   -0.16291E-03   828   0.205E-02    0.143E-01
DAV:   6    -0.122321563342E+04    0.73766E-04   -0.12068E-03   780   0.183E-02    0.145E-01
DAV:   7    -0.122321556062E+04    0.72801E-04   -0.14118E-03   660   0.100E-02    0.114E-01
DAV:   8    -0.122321553180E+04    0.28814E-04   -0.86922E-04   684   0.106E-02
  30 F= -.12537821E+04 E0= -.12537192E+04  d E =-.103712E-03
 curvature:   7.53 expect dE= 0.298E-01 dE for cont linesearch  0.856E-03
 ZBRENT: bracketing found
 ZBRENT: interpolating
 opt :   0.4437  next Energy= -1253.782424 (dE=-0.403E-03)
 bond charge predicted
       N       E                     dE             d eps       ncg     rms          rms(c)
DAV:   1    -0.122321577596E+04   -0.21535E-03   -0.61773E-02  1176   0.205E-01    0.971E-02
DAV:   2    -0.122321598812E+04   -0.21216E-03   -0.25829E-03  1620   0.443E-02    0.134E-01
DAV:   3    -0.122321599708E+04   -0.89533E-05   -0.19567E-03   828   0.122E-02    0.147E-01
DAV:   4    -0.122321611898E+04   -0.12190E-03   -0.19287E-03   792   0.201E-02    0.193E-01
DAV:   5    -0.122321591292E+04    0.20606E-03   -0.77974E-04   732   0.155E-02    0.709E-02
DAV:   6    -0.122321593068E+04   -0.17760E-04   -0.16369E-04   672   0.612E-03
  31 F= -.12537824E+04 E0= -.12537192E+04  d E =-.329629E-03
 curvature:  -0.18 expect dE=-0.234E-03 dE for cont linesearch -0.474E-06
 trial: gam= 0.70891 g(F)=  0.130E-02 g(S)=  0.000E+00 ort =-0.174E-03 (trialstep = 0.183E+00)
 search vector abs. value=  0.680E-02
 bond charge predicted
       N       E                     dE             d eps       ncg     rms          rms(c)
DAV:   1    -0.122321596929E+04   -0.56369E-04   -0.15076E-02  1176   0.998E-02    0.449E-02
DAV:   2    -0.122321611675E+04   -0.14746E-03   -0.66230E-04  1116   0.257E-02    0.138E-01
DAV:   3    -0.122321604549E+04    0.71258E-04   -0.40816E-04   744   0.157E-02
  32 F= -.12537825E+04 E0= -.12537178E+04  d E =-.176890E-03
 trial-energy change:   -0.000177  1 .order   -0.000186   -0.000216   -0.000156
 step:   0.6619(harm=  0.6619)  dis= 0.00297  next Energy= -1253.782741 (dE=-0.391E-03)
 bond charge predicted
       N       E                     dE             d eps       ncg     rms          rms(c)
DAV:   1    -0.122321583329E+04    0.28346E-03   -0.99831E-02  1152   0.258E-01    0.131E-01
DAV:   2    -0.122321658558E+04   -0.75229E-03   -0.31056E-03  1536   0.536E-02    0.365E-01
DAV:   3    -0.122321705003E+04   -0.46445E-03   -0.37831E-03  1140   0.437E-02    0.380E-01
DAV:   4    -0.122321612408E+04    0.92596E-03   -0.19513E-03   996   0.312E-02    0.150E-01
DAV:   5    -0.122321622875E+04   -0.10468E-03   -0.23946E-04   744   0.116E-02    0.211E-01
DAV:   6    -0.122321594713E+04    0.28163E-03   -0.22110E-04   780   0.151E-02    0.364E-02
DAV:   7    -0.122321605926E+04   -0.11213E-03   -0.63472E-05   684   0.787E-03    0.168E-01
DAV:   8    -0.122321590149E+04    0.15777E-03   -0.37300E-05   660   0.703E-03    0.492E-02
DAV:   9    -0.122321596871E+04   -0.67226E-04   -0.29163E-05   636   0.480E-03
  33 F= -.12537826E+04 E0= -.12537201E+04  d E =-.264946E-03
 curvature:  -1.90 expect dE=-0.261E-02 dE for cont linesearch -0.135E-04
 trial: gam= 1.14694 g(F)=  0.137E-02 g(S)=  0.000E+00 ort =-0.220E-03 (trialstep = 0.193E+00)
 search vector abs. value=  0.981E-02
 bond charge predicted
       N       E                     dE             d eps       ncg     rms          rms(c)
DAV:   1    -0.122321596871E+04   -0.67228E-04   -0.24110E-02  1152   0.128E-01    0.909E-02
DAV:   2    -0.122321613216E+04   -0.16344E-03   -0.88710E-04  1332   0.285E-02    0.132E-01
DAV:   3    -0.122321646351E+04   -0.33135E-03   -0.13307E-03   900   0.264E-02    0.282E-01
DAV:   4    -0.122321606960E+04    0.39391E-03   -0.82590E-04   876   0.218E-02    0.745E-02
DAV:   5    -0.122321604041E+04    0.29185E-04   -0.97010E-05   624   0.541E-03
  34 F= -.12537828E+04 E0= -.12537197E+04  d E =-.139694E-03
 trial-energy change:   -0.000140  1 .order   -0.000182   -0.000216   -0.000148
 step:   0.6121(harm=  0.6121)  dis= 0.00308  next Energy= -1253.782958 (dE=-0.343E-03)
 bond charge predicted
       N       E                     dE             d eps       ncg     rms          rms(c)
DAV:   1    -0.122321586744E+04    0.20215E-03   -0.11383E-01  1152   0.278E-01    0.122E-01
DAV:   2    -0.122321659403E+04   -0.72659E-03   -0.41189E-03  1632   0.654E-02    0.277E-01
DAV:   3    -0.122321673467E+04   -0.14064E-03   -0.39525E-03  1212   0.464E-02    0.395E-01
DAV:   4    -0.122321615951E+04    0.57516E-03   -0.12953E-03   972   0.289E-02    0.142E-01
DAV:   5    -0.122321605402E+04    0.10549E-03   -0.12144E-04   684   0.926E-03    0.801E-02
DAV:   6    -0.122321604978E+04    0.42340E-05   -0.21796E-04   720   0.973E-03
  35 F= -.12537829E+04 E0= -.12537200E+04  d E =-.298722E-03
 curvature:  -2.68 expect dE=-0.452E-02 dE for cont linesearch -0.593E-05
 trial: gam= 0.79829 g(F)=  0.169E-02 g(S)=  0.000E+00 ort = 0.147E-03 (trialstep = 0.277E+00)
 search vector abs. value=  0.817E-02
 bond charge predicted
       N       E                     dE             d eps       ncg     rms          rms(c)
DAV:   1    -0.122321625640E+04   -0.20239E-03   -0.40931E-02  1152   0.166E-01    0.889E-02
DAV:   2    -0.122321781753E+04   -0.15611E-02   -0.56294E-03  1524   0.618E-02    0.444E-01
DAV:   3    -0.122321642258E+04    0.13950E-02   -0.46628E-03  1092   0.441E-02    0.142E-01
DAV:   4    -0.122321643422E+04   -0.11634E-04   -0.56184E-04   756   0.123E-02
  36 F= -.12537834E+04 E0= -.12537213E+04  d E =-.466551E-03
 trial-energy change:   -0.000467  1 .order   -0.000399   -0.000499   -0.000298
 step:   0.6865(harm=  0.6865)  dis= 0.00293  next Energy= -1253.783533 (dE=-0.619E-03)
 bond charge predicted
       N       E                     dE             d eps       ncg     rms          rms(c)
DAV:   1    -0.122321622250E+04    0.20008E-03   -0.90166E-02  1152   0.247E-01    0.110E-01
DAV:   2    -0.122321662361E+04   -0.40111E-03   -0.35861E-03  1524   0.505E-02    0.216E-01
DAV:   3    -0.122321658948E+04    0.34131E-04   -0.26254E-03   960   0.236E-02    0.193E-01
DAV:   4    -0.122321652911E+04    0.60370E-04   -0.18587E-03   912   0.255E-02    0.173E-01
DAV:   5    -0.122321641065E+04    0.11846E-03   -0.69528E-04   768   0.147E-02    0.975E-02
DAV:   6    -0.122321641933E+04   -0.86858E-05   -0.50764E-04   708   0.726E-03
  37 F= -.12537835E+04 E0= -.12537212E+04  d E =-.575192E-03
 curvature:  -1.56 expect dE=-0.260E-02 dE for cont linesearch -0.360E-05
 trial: gam= 1.17477 g(F)=  0.167E-02 g(S)=  0.000E+00 ort =-0.137E-03 (trialstep = 0.232E+00)
 search vector abs. value=  0.126E-01
 bond charge predicted
       N       E                     dE             d eps       ncg     rms          rms(c)
DAV:   1    -0.122321652992E+04   -0.11927E-03   -0.41337E-02  1152   0.168E-01    0.903E-02
DAV:   2    -0.122321744897E+04   -0.91905E-03   -0.43617E-03  1572   0.489E-02    0.351E-01
DAV:   3    -0.122321683152E+04    0.61745E-03   -0.47223E-03  1032   0.400E-02    0.226E-01
DAV:   4    -0.122321668674E+04    0.14478E-03   -0.92019E-04   768   0.180E-02    0.122E-01
DAV:   5    -0.122321663861E+04    0.48127E-04   -0.38548E-04   708   0.746E-03
  38 F= -.12537838E+04 E0= -.12537212E+04  d E =-.283805E-03
 ZBRENT: can't locate minimum, use default step
 trial-energy change:   -0.000284  1 .order   -0.000307   -0.000350   -0.000264
 step:   0.9292(harm=  0.9425)  dis= 0.00549  next Energy= -1253.784199 (dE=-0.710E-03)
 bond charge predicted
       N       E                     dE             d eps       ncg     rms          rms(c)
DAV:   1    -0.122321616957E+04    0.51717E-03   -0.37134E-01  1152   0.505E-01    0.229E-01
DAV:   2    -0.122321837501E+04   -0.22054E-02   -0.15139E-02  1644   0.114E-01    0.454E-01
DAV:   3    -0.122321954925E+04   -0.11742E-02   -0.15541E-02  1428   0.849E-02    0.845E-01
DAV:   4    -0.122321767274E+04    0.18765E-02   -0.59707E-03  1176   0.543E-02    0.303E-01
DAV:   5    -0.122321700781E+04    0.66494E-03   -0.55535E-04   864   0.167E-02    0.197E-01
DAV:   6    -0.122321681976E+04    0.18804E-03   -0.64578E-04   792   0.152E-02    0.128E-01
DAV:   7    -0.122321686574E+04   -0.45973E-04   -0.80286E-04   804   0.149E-02
  39 F= -.12537842E+04 E0= -.12537192E+04  d E =-.709283E-03
 curvature:  -3.95 expect dE=-0.106E-01 dE for cont linesearch -0.311E-05
 trial: gam= 1.34389 g(F)=  0.268E-02 g(S)=  0.000E+00 ort = 0.997E-04 (trialstep = 0.182E+00)
 search vector abs. value=  0.257E-01
 bond charge predicted
       N       E                     dE             d eps       ncg     rms          rms(c)
DAV:   1    -0.122321692431E+04   -0.10455E-03   -0.51681E-02  1152   0.189E-01    0.101E-01
DAV:   2    -0.122321870789E+04   -0.17836E-02   -0.66742E-03  1632   0.744E-02    0.445E-01
DAV:   3    -0.122321708895E+04    0.16189E-02   -0.52453E-03  1176   0.507E-02    0.158E-01
DAV:   4    -0.122321704281E+04    0.46136E-04   -0.50679E-04   708   0.145E-02
  40 F= -.12537845E+04 E0= -.12537227E+04  d E =-.283982E-03
 trial-energy change:   -0.000284  1 .order   -0.000392   -0.000512   -0.000273
 step:   0.3896(harm=  0.3896)  dis= 0.00346  next Energy= -1253.784746 (dE=-0.547E-03)
 bond charge predicted
       N       E                     dE             d eps       ncg     rms          rms(c)
DAV:   1    -0.122321696473E+04    0.12422E-03   -0.66733E-02  1152   0.215E-01    0.126E-01
DAV:   2    -0.122321736841E+04   -0.40367E-03   -0.25073E-03  1476   0.441E-02    0.249E-01
DAV:   3    -0.122321718376E+04    0.18465E-03   -0.16078E-03   792   0.145E-02    0.161E-01
DAV:   4    -0.122321715794E+04    0.25816E-04   -0.12909E-03   720   0.162E-02    0.138E-01
DAV:   5    -0.122321714504E+04    0.12897E-04   -0.11673E-03   756   0.172E-02    0.144E-01
DAV:   6    -0.122321707238E+04    0.72659E-04   -0.44516E-04   864   0.176E-02
  41 F= -.12537846E+04 E0= -.12537203E+04  d E =-.436277E-03
 curvature:  -1.78 expect dE=-0.160E-02 dE for cont linesearch -0.953E-05
 ZBRENT: extrapolating
 opt :   0.4579  next Energy= -1253.784647 (dE=-0.449E-03)
 bond charge predicted
       N       E                     dE             d eps       ncg     rms          rms(c)
DAV:   1    -0.122321696468E+04    0.18036E-03   -0.72135E-03  1128   0.712E-02    0.572E-02
DAV:   2    -0.122321706417E+04   -0.99487E-04   -0.34483E-04   828   0.173E-02
  42 F= -.12537847E+04 E0= -.12537202E+04  d E =-.468762E-03
 curvature:  -2.37 expect dE=-0.291E-02 dE for cont linesearch -0.717E-05
 ZBRENT: bracketing found
 ZBRENT: interpolating
 opt :   0.4286  next Energy= -1253.784671 (dE=-0.473E-03)
 bond charge predicted
       N       E                     dE             d eps       ncg     rms          rms(c)
DAV:   1    -0.122321723919E+04   -0.27451E-03   -0.22703E-03  1188   0.415E-02    0.187E-01
DAV:   2    -0.122325712426E+04   -0.39885E-01   -0.44613E-02  1452   0.148E-01    0.420E+00
DAV:   3    -0.122322904244E+04    0.28082E-01   -0.28838E-02  1392   0.125E-01    0.569E-01
DAV:   4    -0.122321799297E+04    0.11049E-01   -0.54889E-03  1332   0.545E-02    0.270E-01
DAV:   5    -0.122321739810E+04    0.59487E-03   -0.87332E-04   828   0.205E-02    0.214E-01
DAV:   6    -0.122321717597E+04    0.22213E-03   -0.56661E-04   636   0.114E-02    0.137E-01
DAV:   7    -0.122321707791E+04    0.98064E-04   -0.29570E-04   648   0.939E-03
  43 F= -.12537847E+04 E0= -.12537229E+04  d E =-.465010E-03
 curvature:  -1.35 expect dE=-0.165E-02 dE for cont linesearch -0.379E-05
 ZBRENT: bisectioning
 opt :   0.4091  next Energy= -1253.784669 (dE=-0.470E-03)
 bond charge predicted
       N       E                     dE             d eps       ncg     rms          rms(c)
DAV:   1    -0.122321705528E+04    0.12069E-03   -0.75877E-04  1008   0.220E-02    0.688E-02
DAV:   2    -0.122321763386E+04   -0.57858E-03   -0.13279E-03   864   0.226E-02    0.335E-01
DAV:   3    -0.122321728880E+04    0.34507E-03   -0.24068E-03   924   0.341E-02    0.201E-01
DAV:   4    -0.122321702896E+04    0.25983E-03   -0.51212E-04   720   0.150E-02    0.421E-02
DAV:   5    -0.122321701918E+04    0.97863E-05   -0.15560E-04   636   0.379E-03
  44 F= -.12537846E+04 E0= -.12537216E+04  d E =-.394667E-03
 curvature:  -1.84 expect dE=-0.181E-02 dE for cont linesearch -0.211E-07
 trial: gam= 0.34144 g(F)=  0.982E-03 g(S)=  0.000E+00 ort = 0.171E-04 (trialstep = 0.228E+00)
 search vector abs. value=  0.399E-02
 bond charge predicted
       N       E                     dE             d eps       ncg     rms          rms(c)
DAV:   1    -0.122321711570E+04   -0.86738E-04   -0.11832E-02  1152   0.923E-02    0.424E-02
DAV:   2    -0.122321721111E+04   -0.95406E-04   -0.71867E-04   972   0.213E-02
  45 F= -.12537849E+04 E0= -.12537231E+04  d E =-.265211E-03
 trial-energy change:   -0.000265  1 .order   -0.000188   -0.000225   -0.000152
 step:   0.6977(harm=  0.6977)  dis= 0.00275  next Energy= -1253.784938 (dE=-0.345E-03)
 bond charge predicted
       N       E                     dE             d eps       ncg     rms          rms(c)
DAV:   1    -0.122321719464E+04   -0.78936E-04   -0.51080E-02  1152   0.192E-01    0.148E-01
DAV:   2    -0.122322345288E+04   -0.62582E-02   -0.17999E-02  1716   0.105E-01    0.747E-01
DAV:   3    -0.122321744659E+04    0.60063E-02   -0.15064E-02  1380   0.869E-02    0.174E-01
DAV:   4    -0.122321741539E+04    0.31198E-04   -0.11825E-03   948   0.191E-02    0.187E-01
DAV:   5    -0.122321723790E+04    0.17750E-03   -0.95787E-04   684   0.155E-02    0.915E-02
DAV:   6    -0.122321724686E+04   -0.89629E-05   -0.82506E-04   684   0.126E-02
  46 F= -.12537850E+04 E0= -.12537223E+04  d E =-.453062E-03
 curvature:  -1.41 expect dE=-0.178E-02 dE for cont linesearch -0.182E-04
 ZBRENT: increasing intervall
 opt :   1.6380  next Energy= -1253.784847 (dE=-0.254E-03)
 bond charge predicted
       N       E                     dE             d eps       ncg     rms          rms(c)
DAV:   1    -0.122321616420E+04    0.10737E-02   -0.19974E-01  1152   0.380E-01    0.169E-01
DAV:   2    -0.122321690772E+04   -0.74352E-03   -0.98450E-03  1584   0.757E-02    0.289E-01
DAV:   3    -0.122321678019E+04    0.12753E-03   -0.90331E-03  1104   0.173E-02    0.219E-01
DAV:   4    -0.122321673307E+04    0.47119E-04   -0.72115E-03   984   0.191E-02    0.200E-01
DAV:   5    -0.122321674294E+04   -0.98663E-05   -0.61562E-03   948   0.202E-02    0.212E-01
DAV:   6    -0.122321664703E+04    0.95905E-04   -0.25973E-03   960   0.236E-02    0.155E-01
DAV:   7    -0.122321653521E+04    0.11182E-03   -0.99190E-04   768   0.147E-02    0.115E-01
DAV:   8    -0.122321647824E+04    0.56974E-04   -0.43514E-04   660   0.711E-03
  47 F= -.12537846E+04 E0= -.12537210E+04  d E =0.844906E-05
 curvature:  15.47 expect dE= 0.131E+00 dE for cont linesearch  0.359E-02
 ZBRENT: bracketing found
 ZBRENT: interpolating
 opt :   0.8771  next Energy= -1253.785067 (dE=-0.473E-03)
 bond charge predicted
       N       E                     dE             d eps       ncg     rms          rms(c)
DAV:   1    -0.122321690905E+04   -0.37384E-03   -0.13172E-01  1152   0.309E-01    0.133E-01
DAV:   2    -0.122321731848E+04   -0.40944E-03   -0.50662E-03  1572   0.625E-02    0.182E-01
DAV:   3    -0.122321789174E+04   -0.57326E-03   -0.47061E-03  1104   0.355E-02    0.330E-01
DAV:   4    -0.122321738491E+04    0.50683E-03   -0.32831E-03   984   0.343E-02    0.193E-01
DAV:   5    -0.122321721283E+04    0.17209E-03   -0.51443E-04   708   0.137E-02    0.110E-01
DAV:   6    -0.122321718054E+04    0.32290E-04   -0.23555E-04   696   0.887E-03
  48 F= -.12537850E+04 E0= -.12537224E+04  d E =-.445027E-03
 curvature:  -0.09 expect dE=-0.197E-03 dE for cont linesearch -0.736E-06
 trial: gam= 2.44056 g(F)=  0.224E-02 g(S)=  0.000E+00 ort =-0.183E-03 (trialstep = 0.568E-01)
 search vector abs. value=  0.251E-01
 bond charge predicted
       N       E                     dE             d eps       ncg     rms          rms(c)
DAV:   1    -0.122321718703E+04    0.25800E-04   -0.49158E-03  1152   0.598E-02    0.752E-02
DAV:   2    -0.122321816636E+04   -0.97933E-03   -0.27865E-03  1104   0.390E-02    0.353E-01
DAV:   3    -0.122321730007E+04    0.86629E-03   -0.36134E-03  1056   0.427E-02    0.171E-01
DAV:   4    -0.122321720061E+04    0.99461E-04   -0.47325E-04   696   0.131E-02
  49 F= -.12537851E+04 E0= -.12537228E+04  d E =-.892266E-04
 ZBRENT: can't locate minimum, use default step
 trial-energy change:   -0.000089  1 .order   -0.000100   -0.000102   -0.000099
 step:   0.2272(harm=  1.9309)  dis= 0.00236  next Energy= -1253.786771 (dE=-0.173E-02)
 bond charge predicted
       N       E                     dE             d eps       ncg     rms          rms(c)
DAV:   1    -0.122321719274E+04    0.10732E-03   -0.40187E-02  1152   0.170E-01    0.922E-02
DAV:   2    -0.122321746603E+04   -0.27328E-03   -0.25280E-03  1428   0.367E-02    0.205E-01
DAV:   3    -0.122321751054E+04   -0.44507E-04   -0.30909E-03   876   0.234E-02    0.199E-01
DAV:   4    -0.122321733834E+04    0.17220E-03   -0.18226E-03   864   0.229E-02    0.124E-01
DAV:   5    -0.122321726015E+04    0.78192E-04   -0.62386E-04   672   0.829E-03
  50 F= -.12537854E+04 E0= -.12537225E+04  d E =-.356768E-03
 curvature:  -2.35 expect dE=-0.378E-02 dE for cont linesearch -0.222E-03
 ZBRENT: increasing intervall
 opt :   0.5680  next Energy= -1253.785852 (dE=-0.814E-03)
 bond charge predicted
       N       E                     dE             d eps       ncg     rms          rms(c)
DAV:   1    -0.122321691016E+04    0.42818E-03   -0.15900E-01  1152   0.338E-01    0.143E-01
DAV:   2    -0.122321729675E+04   -0.38659E-03   -0.51814E-03  1584   0.663E-02    0.171E-01
DAV:   3    -0.122321729905E+04   -0.22961E-05   -0.30433E-03   972   0.156E-02    0.177E-01
DAV:   4    -0.122321727668E+04    0.22366E-04   -0.30178E-03   816   0.191E-02    0.163E-01
DAV:   5    -0.122321724426E+04    0.32420E-04   -0.17569E-03   792   0.203E-02    0.142E-01
DAV:   6    -0.122321713367E+04    0.11059E-03   -0.51139E-04   840   0.143E-02    0.471E-02
DAV:   7    -0.122321714769E+04   -0.14016E-04   -0.27758E-04   636   0.761E-03
  51 F= -.12537857E+04 E0= -.12537223E+04  d E =-.662674E-03
 curvature:  -4.83 expect dE=-0.783E-02 dE for cont linesearch -0.537E-04
 ZBRENT: increasing intervall
 opt :   1.2497  next Energy= -1253.785370 (dE=-0.332E-03)
 bond charge predicted
       N       E                     dE             d eps       ncg     rms          rms(c)
DAV:   1    -0.122321497084E+04    0.21628E-02   -0.63629E-01  1152   0.676E-01    0.285E-01
DAV:   2    -0.122321743654E+04   -0.24657E-02   -0.20695E-02  1608   0.149E-01    0.462E-01
DAV:   3    -0.122322233487E+04   -0.48983E-02   -0.18592E-02  1548   0.953E-02    0.138E+00
DAV:   4    -0.122321801958E+04    0.43153E-02   -0.11044E-02  1272   0.719E-02    0.376E-01
DAV:   5    -0.122321676503E+04    0.12546E-02   -0.11836E-03  1224   0.261E-02    0.334E-01
DAV:   6    -0.122321615121E+04    0.61382E-03   -0.63919E-04   960   0.199E-02    0.139E-01
DAV:   7    -0.122321636204E+04   -0.21083E-03   -0.11450E-03   900   0.170E-02    0.261E-01
DAV:   8    -0.122321607190E+04    0.29014E-03   -0.11856E-03   708   0.127E-02    0.871E-02
DAV:   9    -0.122321610062E+04   -0.28719E-04   -0.70909E-04   720   0.108E-02
  52 F= -.12537855E+04 E0= -.12537209E+04  d E =-.461893E-03
 curvature:  29.79 expect dE= 0.126E+00 dE for cont linesearch  0.122E-02
 ZBRENT: bracketing found
 ZBRENT: interpolating
 opt :   0.8013  next Energy= -1253.785762 (dE=-0.724E-03)
 bond charge predicted
       N       E                     dE             d eps       ncg     rms          rms(c)
DAV:   1    -0.122321640977E+04   -0.33787E-03   -0.27693E-01  1152   0.445E-01    0.190E-01
DAV:   2    -0.122321706342E+04   -0.65365E-03   -0.88598E-03  1632   0.885E-02    0.174E-01
DAV:   3    -0.122321713880E+04   -0.75378E-04   -0.54653E-03  1044   0.207E-02    0.225E-01
DAV:   4    -0.122321713393E+04    0.48687E-05   -0.60265E-03   864   0.217E-02    0.202E-01
DAV:   5    -0.122321714495E+04   -0.11024E-04   -0.34162E-03   840   0.258E-02    0.227E-01
DAV:   6    -0.122321691056E+04    0.23439E-03   -0.93717E-04   840   0.176E-02    0.739E-02
DAV:   7    -0.122321693746E+04   -0.26896E-04   -0.27045E-04   672   0.852E-03
  53 F= -.12537858E+04 E0= -.12537228E+04  d E =-.740634E-03
 curvature:  -1.50 expect dE=-0.311E-02 dE for cont linesearch -0.161E-05
 trial: gam= 0.57544 g(F)=  0.207E-02 g(S)=  0.000E+00 ort =-0.164E-03 (trialstep = 0.206E+00)
 search vector abs. value=  0.102E-01
 bond charge predicted
       N       E                     dE             d eps       ncg     rms          rms(c)
DAV:   1    -0.122321702107E+04   -0.11051E-03   -0.25580E-02  1152   0.133E-01    0.730E-02
DAV:   2    -0.122321722435E+04   -0.20328E-03   -0.10316E-03  1500   0.332E-02    0.167E-01
DAV:   3    -0.122321733779E+04   -0.11343E-03   -0.90885E-04   984   0.218E-02    0.203E-01
DAV:   4    -0.122321719807E+04    0.13972E-03   -0.79813E-04   804   0.214E-02    0.141E-01
DAV:   5    -0.122321710503E+04    0.93037E-04   -0.13605E-04   624   0.871E-03
  54 F= -.12537861E+04 E0= -.12537237E+04  d E =-.315952E-03
 ZBRENT: can't locate minimum, use default step
 trial-energy change:   -0.000316  1 .order   -0.000356   -0.000406   -0.000306
 step:   0.8228(harm=  0.8410)  dis= 0.00541  next Energy= -1253.786608 (dE=-0.829E-03)
 bond charge predicted
       N       E                     dE             d eps       ncg     rms          rms(c)
DAV:   1    -0.122321648731E+04    0.71076E-03   -0.22643E-01  1152   0.397E-01    0.188E-01
DAV:   2    -0.122321774970E+04   -0.12624E-02   -0.82267E-03  1656   0.932E-02    0.415E-01
DAV:   3    -0.122321867808E+04   -0.92838E-03   -0.80674E-03  1332   0.658E-02    0.444E-01
DAV:   4    -0.122321701164E+04    0.16664E-02   -0.27829E-03  1188   0.430E-02    0.139E-01
DAV:   5    -0.122321696881E+04    0.42834E-04   -0.16571E-04   828   0.110E-02
  55 F= -.12537864E+04 E0= -.12537247E+04  d E =-.627784E-03
 curvature:  -2.17 expect dE=-0.787E-02 dE for cont linesearch -0.204E-04
 trial: gam= 1.94146 g(F)=  0.362E-02 g(S)=  0.000E+00 ort =-0.310E-03 (trialstep = 0.822E-01)
 search vector abs. value=  0.409E-01
 bond charge predicted
       N       E                     dE             d eps       ncg     rms          rms(c)
DAV:   1    -0.122321711005E+04   -0.98408E-04   -0.15403E-02  1152   0.107E-01    0.176E-01
DAV:   2    -0.122322521153E+04   -0.81015E-02   -0.21026E-02  1512   0.107E-01    0.899E-01
DAV:   3    -0.122321773757E+04    0.74740E-02   -0.19543E-02  1392   0.996E-02    0.247E-01
DAV:   4    -0.122321741446E+04    0.32311E-03   -0.98784E-04   924   0.214E-02    0.232E-01
DAV:   5    -0.122321710798E+04    0.30649E-03   -0.34418E-04   684   0.159E-02    0.118E-01
DAV:   6    -0.122321702681E+04    0.81172E-04   -0.25292E-04   672   0.122E-02
  56 F= -.12537866E+04 E0= -.12537240E+04  d E =-.159570E-03
 ZBRENT: can't locate minimum, use default step
 trial-energy change:   -0.000160  1 .order   -0.000221   -0.000248   -0.000194
 step:   0.3286(harm=  0.3797)  dis= 0.00439  next Energy= -1253.786980 (dE=-0.573E-03)
 bond charge predicted
       N       E                     dE             d eps       ncg     rms          rms(c)
DAV:   1    -0.122321677515E+04    0.33283E-03   -0.14537E-01  1152   0.321E-01    0.152E-01
DAV:   2    -0.122321965567E+04   -0.28805E-02   -0.83827E-03  1680   0.910E-02    0.820E-01
DAV:   3    -0.122321763765E+04    0.20180E-02   -0.61189E-03  1320   0.571E-02    0.281E-01
DAV:   4    -0.122321714941E+04    0.48824E-03   -0.50545E-04  1008   0.191E-02    0.143E-01
DAV:   5    -0.122321708346E+04    0.65949E-04   -0.23444E-04   864   0.109E-02
  57 F= -.12537869E+04 E0= -.12537246E+04  d E =-.522545E-03
 curvature:  -2.50 expect dE=-0.886E-02 dE for cont linesearch -0.862E-04
 ZBRENT: increasing intervall
 opt :   0.8216  next Energy= -1253.786935 (dE=-0.528E-03)
 bond charge predicted
       N       E                     dE             d eps       ncg     rms          rms(c)
DAV:   1    -0.122321514699E+04    0.20024E-02   -0.58128E-01  1152   0.642E-01    0.289E-01
DAV:   2    -0.122321965399E+04   -0.45070E-02   -0.23952E-02  1668   0.158E-01    0.964E-01
DAV:   3    -0.122321920872E+04    0.44527E-03   -0.18969E-02  1512   0.952E-02    0.538E-01
DAV:   4    -0.122321660569E+04    0.26030E-02   -0.31497E-03  1260   0.454E-02    0.271E-01
DAV:   5    -0.122321635806E+04    0.24763E-03   -0.97676E-04  1032   0.197E-02    0.227E-01
DAV:   6    -0.122321628493E+04    0.73137E-04   -0.14921E-03   996   0.172E-02    0.186E-01
DAV:   7    -0.122321639882E+04   -0.11389E-03   -0.21798E-03  1068   0.198E-02    0.217E-01
DAV:   8    -0.122321613947E+04    0.25935E-03   -0.20957E-03   876   0.205E-02    0.904E-02
DAV:   9    -0.122321617236E+04   -0.32891E-04   -0.15128E-03   720   0.962E-03    0.105E-01
DAV:  10    -0.122321611391E+04    0.58448E-04   -0.90444E-04   648   0.744E-03
  58 F= -.12537866E+04 E0= -.12537233E+04  d E =-.173190E-03
 curvature:  -0.16 expect dE=-0.147E-02 dE for cont linesearch -0.148E-04
 ZBRENT: bracketing found
 ZBRENT: interpolating
 opt :   0.5152  next Energy= -1253.787040 (dE=-0.633E-03)
 bond charge predicted
       N       E                     dE             d eps       ncg     rms          rms(c)
DAV:   1    -0.122321643242E+04   -0.26006E-03   -0.22576E-01  1152   0.400E-01    0.192E-01
DAV:   2    -0.122321925741E+04   -0.28250E-02   -0.13338E-02  1656   0.115E-01    0.549E-01
DAV:   3    -0.122321800427E+04    0.12531E-02   -0.12264E-02  1380   0.739E-02    0.510E-01
DAV:   4    -0.122321742737E+04    0.57690E-03   -0.24268E-03  1128   0.401E-02    0.276E-01
DAV:   5    -0.122321711513E+04    0.31224E-03   -0.30282E-04   756   0.148E-02    0.201E-01
DAV:   6    -0.122321687142E+04    0.24371E-03   -0.40970E-04   744   0.177E-02    0.102E-01
DAV:   7    -0.122321695499E+04   -0.83566E-04   -0.52632E-04   684   0.116E-02
  59 F= -.12537870E+04 E0= -.12537219E+04  d E =-.627648E-03
 curvature:  -1.19 expect dE=-0.621E-02 dE for cont linesearch -0.181E-04
 trial: gam= 0.92018 g(F)=  0.521E-02 g(S)=  0.000E+00 ort =-0.788E-03 (trialstep = 0.169E+00)
 search vector abs. value=  0.384E-01
 bond charge predicted
       N       E                     dE             d eps       ncg     rms          rms(c)
DAV:   1    -0.122321714328E+04   -0.27186E-03   -0.69849E-02  1152   0.220E-01    0.956E-02
DAV:   2    -0.122321747539E+04   -0.33211E-03   -0.30400E-03  1632   0.486E-02    0.186E-01
DAV:   3    -0.122321742871E+04    0.46679E-04   -0.19804E-03   864   0.207E-02    0.170E-01
DAV:   4    -0.122321747080E+04   -0.42087E-04   -0.15546E-03   840   0.241E-02    0.167E-01
DAV:   5    -0.122321728682E+04    0.18398E-03   -0.57484E-04   720   0.152E-02    0.558E-02
DAV:   6    -0.122321728080E+04    0.60160E-05   -0.28986E-04   636   0.613E-03
  60 F= -.12537876E+04 E0= -.12537242E+04  d E =-.541332E-03
 trial-energy change:   -0.000541  1 .order   -0.000659   -0.000758   -0.000561
 step:   0.6499(harm=  0.6499)  dis= 0.00829  next Energy= -1253.788493 (dE=-0.146E-02)
 bond charge predicted
       N       E                     dE             d eps       ncg     rms          rms(c)
DAV:   1    -0.122321610712E+04    0.11797E-02   -0.55703E-01  1152   0.624E-01    0.240E-01
DAV:   2    -0.122321962373E+04   -0.35166E-02   -0.18631E-02  1584   0.140E-01    0.815E-01
DAV:   3    -0.122321882480E+04    0.79893E-03   -0.11400E-02  1380   0.772E-02    0.445E-01
DAV:   4    -0.122321740462E+04    0.14202E-02   -0.14531E-03  1200   0.357E-02    0.244E-01
DAV:   5    -0.122321714289E+04    0.26173E-03   -0.41331E-04   924   0.177E-02    0.174E-01
DAV:   6    -0.122321720015E+04   -0.57254E-04   -0.64493E-04  1008   0.177E-02
  61 F= -.12537881E+04 E0= -.12537227E+04  d E =-.108077E-02
 curvature:  -2.78 expect dE=-0.171E-01 dE for cont linesearch -0.152E-03
 ZBRENT: interpolating
 opt :   0.5038  next Energy= -1253.788221 (dE=-0.119E-02)
 bond charge predicted
       N       E                     dE             d eps       ncg     rms          rms(c)
DAV:   1    -0.122321733927E+04   -0.19638E-03   -0.53462E-02  1152   0.192E-01    0.156E-01
DAV:   2    -0.122322152567E+04   -0.41864E-02   -0.16025E-02  1656   0.958E-02    0.633E-01
DAV:   3    -0.122321765678E+04    0.38689E-02   -0.16039E-02  1344   0.808E-02    0.228E-01
DAV:   4    -0.122321747966E+04    0.17712E-03   -0.21925E-03   900   0.212E-02    0.159E-01
DAV:   5    -0.122321744134E+04    0.38325E-04   -0.18538E-03   660   0.888E-03    0.131E-01
DAV:   6    -0.122321734109E+04    0.10025E-03   -0.13455E-03   684   0.124E-02    0.818E-02
DAV:   7    -0.122321735314E+04   -0.12053E-04   -0.11988E-03   636   0.793E-03    0.857E-02
DAV:   8    -0.122321732816E+04    0.24982E-04   -0.66398E-04   624   0.720E-03
  62 F= -.12537881E+04 E0= -.12537252E+04  d E =-.101965E-02
 curvature:  -1.93 expect dE=-0.710E-02 dE for cont linesearch -0.772E-05
 trial: gam= 0.75918 g(F)=  0.367E-02 g(S)=  0.000E+00 ort =-0.391E-03 (trialstep = 0.236E+00)
 search vector abs. value=  0.252E-01
 bond charge predicted
       N       E                     dE             d eps       ncg     rms          rms(c)
DAV:   1    -0.122321761060E+04   -0.25746E-03   -0.95032E-02  1152   0.258E-01    0.128E-01
DAV:   2    -0.122321839603E+04   -0.78543E-03   -0.75744E-03  1620   0.599E-02    0.371E-01
DAV:   3    -0.122321866564E+04   -0.26961E-03   -0.89475E-03  1212   0.438E-02    0.347E-01
DAV:   4    -0.122321787056E+04    0.79508E-03   -0.29949E-03   996   0.329E-02    0.150E-01
DAV:   5    -0.122321780978E+04    0.60777E-04   -0.82445E-04   744   0.103E-02
  63 F= -.12537887E+04 E0= -.12537254E+04  d E =-.693028E-03
 trial-energy change:   -0.000693  1 .order   -0.000634   -0.000795   -0.000473
 step:   0.5814(harm=  0.5814)  dis= 0.00578  next Energy= -1253.789034 (dE=-0.981E-03)
 bond charge predicted
       N       E                     dE             d eps       ncg     rms          rms(c)
DAV:   1    -0.122321737550E+04    0.49506E-03   -0.20161E-01  1152   0.378E-01    0.161E-01
DAV:   2    -0.122322017110E+04   -0.27956E-02   -0.85291E-03  1680   0.923E-02    0.796E-01
DAV:   3    -0.122321835057E+04    0.18205E-02   -0.62677E-03  1332   0.573E-02    0.291E-01
DAV:   4    -0.122321770949E+04    0.64108E-03   -0.59271E-04  1020   0.205E-02    0.138E-01
DAV:   5    -0.122321767265E+04    0.36840E-04   -0.32156E-04  1008   0.116E-02
  64 F= -.12537889E+04 E0= -.12537266E+04  d E =-.869023E-03
 curvature:  -2.17 expect dE=-0.614E-02 dE for cont linesearch -0.221E-04
 trial: gam= 0.92024 g(F)=  0.283E-02 g(S)=  0.000E+00 ort =-0.506E-03 (trialstep = 0.305E+00)
 search vector abs. value=  0.232E-01
 bond charge predicted
       N       E                     dE             d eps       ncg     rms          rms(c)
DAV:   1    -0.122321765095E+04    0.58538E-04   -0.13797E-01  1152   0.312E-01    0.161E-01
DAV:   2    -0.122321841159E+04   -0.76064E-03   -0.77006E-03  1632   0.627E-02    0.346E-01
DAV:   3    -0.122321813247E+04    0.27912E-03   -0.77966E-03  1080   0.202E-02    0.213E-01
DAV:   4    -0.122321813297E+04   -0.49968E-06   -0.58936E-03  1032   0.256E-02    0.240E-01
DAV:   5    -0.122321788257E+04    0.25040E-03   -0.29955E-03   924   0.214E-02    0.127E-01
DAV:   6    -0.122321780062E+04    0.81952E-04   -0.72891E-04   852   0.150E-02
  65 F= -.12537894E+04 E0= -.12537258E+04  d E =-.431548E-03
 trial-energy change:   -0.000432  1 .order   -0.000524   -0.000721   -0.000328
 step:   0.5594(harm=  0.5594)  dis= 0.00536  next Energy= -1253.789584 (dE=-0.661E-03)
 bond charge predicted
       N       E                     dE             d eps       ncg     rms          rms(c)
DAV:   1    -0.122321750285E+04    0.37972E-03   -0.96467E-02  1152   0.261E-01    0.113E-01
DAV:   2    -0.122321784877E+04   -0.34592E-03   -0.49429E-03  1668   0.536E-02    0.193E-01
DAV:   3    -0.122321783289E+04    0.15878E-04   -0.45728E-03  1008   0.163E-02    0.170E-01
DAV:   4    -0.122321790240E+04   -0.69513E-04   -0.34157E-03   972   0.212E-02    0.187E-01
DAV:   5    -0.122321773092E+04    0.17149E-03   -0.15287E-03   864   0.179E-02    0.978E-02
DAV:   6    -0.122321771143E+04    0.19483E-04   -0.54217E-04   672   0.812E-03
  66 F= -.12537895E+04 E0= -.12537263E+04  d E =-.597452E-03
 curvature:  -2.75 expect dE=-0.820E-02 dE for cont linesearch -0.698E-05
 trial: gam= 0.60353 g(F)=  0.298E-02 g(S)=  0.000E+00 ort = 0.243E-03 (trialstep = 0.356E+00)
 search vector abs. value=  0.117E-01
 bond charge predicted
       N       E                     dE             d eps       ncg     rms          rms(c)
DAV:   1    -0.122321778296E+04   -0.52040E-04   -0.88892E-02  1152   0.244E-01    0.117E-01
DAV:   2    -0.122321812141E+04   -0.33846E-03   -0.33558E-03  1644   0.546E-02    0.175E-01
DAV:   3    -0.122321814610E+04   -0.24687E-04   -0.13672E-03   888   0.156E-02    0.194E-01
DAV:   4    -0.122321834403E+04   -0.19793E-03   -0.18187E-03   876   0.242E-02    0.243E-01
DAV:   5    -0.122321801556E+04    0.32847E-03   -0.78409E-04   792   0.177E-02    0.878E-02
DAV:   6    -0.122321801474E+04    0.81537E-06   -0.72970E-05   648   0.700E-03
  67 F= -.12537901E+04 E0= -.12537275E+04  d E =-.623231E-03
 trial-energy change:   -0.000623  1 .order   -0.000655   -0.001113   -0.000197
 step:   0.4323(harm=  0.4323)  dis= 0.00276  next Energy= -1253.790196 (dE=-0.676E-03)
 bond charge predicted
       N       E                     dE             d eps       ncg     rms          rms(c)
DAV:   1    -0.122321788572E+04    0.12983E-03   -0.38469E-03  1092   0.521E-02    0.389E-02
DAV:   2    -0.122321799298E+04   -0.10725E-03   -0.30213E-04   744   0.130E-02    0.129E-01
DAV:   3    -0.122321788760E+04    0.10538E-03   -0.28122E-04   660   0.970E-03    0.429E-02
DAV:   4    -0.122321792920E+04   -0.41595E-04   -0.20017E-04   672   0.831E-03
  68 F= -.12537901E+04 E0= -.12537267E+04  d E =-.606708E-03
 curvature:  -0.81 expect dE=-0.172E-02 dE for cont linesearch -0.130E-05
 trial: gam= 0.80314 g(F)=  0.212E-02 g(S)=  0.000E+00 ort =-0.137E-03 (trialstep = 0.371E+00)
 search vector abs. value=  0.947E-02
 bond charge predicted
       N       E                     dE             d eps       ncg     rms          rms(c)
DAV:   1    -0.122321804457E+04   -0.15697E-03   -0.67058E-02  1152   0.221E-01    0.111E-01
DAV:   2    -0.122321822289E+04   -0.17832E-03   -0.22249E-03  1680   0.487E-02    0.732E-02
DAV:   3    -0.122321848734E+04   -0.26445E-03   -0.90586E-04  1092   0.229E-02    0.246E-01
DAV:   4    -0.122321822143E+04    0.26591E-03   -0.78877E-04   960   0.206E-02    0.907E-02
DAV:   5    -0.122321821056E+04    0.10866E-04   -0.69468E-05   732   0.637E-03
  69 F= -.12537906E+04 E0= -.12537275E+04  d E =-.515507E-03
 trial-energy change:   -0.000516  1 .order   -0.000556   -0.000745   -0.000368
 step:   0.7322(harm=  0.7322)  dis= 0.00404  next Energy= -1253.790862 (dE=-0.735E-03)
 bond charge predicted
       N       E                     dE             d eps       ncg     rms          rms(c)
DAV:   1    -0.122321799708E+04    0.22435E-03   -0.62854E-02  1152   0.215E-01    0.120E-01
DAV:   2    -0.122321878010E+04   -0.78302E-03   -0.38050E-03  1680   0.582E-02    0.307E-01
DAV:   3    -0.122321876182E+04    0.18282E-04   -0.48871E-03  1260   0.478E-02    0.378E-01
DAV:   4    -0.122321823091E+04    0.53091E-03   -0.13817E-03  1056   0.277E-02    0.135E-01
DAV:   5    -0.122321813253E+04    0.98373E-04   -0.21459E-04   768   0.863E-03
  70 F= -.12537908E+04 E0= -.12537278E+04  d E =-.667305E-03
 curvature:  -1.73 expect dE=-0.230E-02 dE for cont linesearch -0.664E-06
 trial: gam= 0.56549 g(F)=  0.133E-02 g(S)=  0.000E+00 ort =-0.604E-04 (trialstep = 0.443E+00)
 search vector abs. value=  0.429E-02
 bond charge predicted
       N       E                     dE             d eps       ncg     rms          rms(c)
DAV:   1    -0.122321820003E+04    0.30874E-04   -0.54528E-02  1152   0.197E-01    0.853E-02
DAV:   2    -0.122321841671E+04   -0.21668E-03   -0.20893E-03  1500   0.382E-02    0.162E-01
DAV:   3    -0.122321837842E+04    0.38289E-04   -0.14869E-03   804   0.179E-02    0.147E-01
DAV:   4    -0.122321838553E+04   -0.71080E-05   -0.10980E-03   792   0.199E-02    0.141E-01
DAV:   5    -0.122321826849E+04    0.11703E-03   -0.39773E-04   768   0.130E-02    0.541E-02
DAV:   6    -0.122321829719E+04   -0.28695E-04   -0.33878E-04   684   0.661E-03
  71 F= -.12537911E+04 E0= -.12537277E+04  d E =-.315036E-03
 trial-energy change:   -0.000315  1 .order   -0.000367   -0.000575   -0.000159
 step:   0.6133(harm=  0.6133)  dis= 0.00210  next Energy= -1253.791192 (dE=-0.397E-03)
 bond charge predicted
       N       E                     dE             d eps       ncg     rms          rms(c)
DAV:   1    -0.122321821756E+04    0.50934E-04   -0.81466E-03  1140   0.758E-02    0.377E-02
DAV:   2    -0.122321832760E+04   -0.11004E-03   -0.95654E-04   900   0.174E-02    0.139E-01
DAV:   3    -0.122321829058E+04    0.37023E-04   -0.10639E-03   732   0.162E-02    0.944E-02
DAV:   4    -0.122321824747E+04    0.43108E-04   -0.34886E-04   672   0.103E-02
  72 F= -.12537911E+04 E0= -.12537275E+04  d E =-.323257E-03
 curvature:  -1.02 expect dE=-0.155E-02 dE for cont linesearch -0.496E-06
 trial: gam= 1.08058 g(F)=  0.152E-02 g(S)=  0.000E+00 ort =-0.458E-04 (trialstep = 0.318E+00)
 search vector abs. value=  0.643E-02
 bond charge predicted
       N       E                     dE             d eps       ncg     rms          rms(c)
DAV:   1    -0.122321833023E+04   -0.39653E-04   -0.45454E-02  1152   0.181E-01    0.814E-02
DAV:   2    -0.122321904428E+04   -0.71405E-03   -0.28080E-03  1632   0.506E-02    0.300E-01
DAV:   3    -0.122321849488E+04    0.54940E-03   -0.23007E-03  1188   0.337E-02    0.159E-01
DAV:   4    -0.122321843376E+04    0.61125E-04   -0.21398E-04   792   0.124E-02
  73 F= -.12537915E+04 E0= -.12537294E+04  d E =-.352243E-03
 trial-energy change:   -0.000352  1 .order   -0.000334   -0.000469   -0.000198
 step:   0.5511(harm=  0.5511)  dis= 0.00219  next Energy= -1253.791524 (dE=-0.406E-03)
 bond charge predicted
       N       E                     dE             d eps       ncg     rms          rms(c)
DAV:   1    -0.122321833702E+04    0.15787E-03   -0.23980E-02  1152   0.132E-01    0.967E-02
DAV:   2    -0.122321872455E+04   -0.38753E-03   -0.96134E-04  1344   0.286E-02    0.257E-01
DAV:   3    -0.122321864828E+04    0.76271E-04   -0.15825E-03  1116   0.298E-02    0.210E-01
DAV:   4    -0.122321835003E+04    0.29825E-03   -0.71448E-04   840   0.213E-02    0.626E-02
DAV:   5    -0.122321833547E+04    0.14556E-04   -0.22156E-04   600   0.576E-03
  74 F= -.12537915E+04 E0= -.12537286E+04  d E =-.375990E-03
 curvature:  -1.20 expect dE=-0.110E-02 dE for cont linesearch -0.477E-06
 trial: gam= 0.58372 g(F)=  0.916E-03 g(S)=  0.000E+00 ort = 0.505E-04 (trialstep = 0.365E+00)
 search vector abs. value=  0.317E-02
 bond charge predicted
       N       E                     dE             d eps       ncg     rms          rms(c)
DAV:   1    -0.122321842377E+04   -0.73743E-04   -0.26694E-02  1152   0.133E-01    0.729E-02
DAV:   2    -0.122321954831E+04   -0.11245E-02   -0.27589E-03  1368   0.494E-02    0.501E-01
DAV:   3    -0.122321861447E+04    0.93384E-03   -0.22671E-03  1080   0.339E-02    0.139E-01
DAV:   4    -0.122321854995E+04    0.64523E-04   -0.15506E-04   684   0.106E-02
  75 F= -.12537918E+04 E0= -.12537286E+04  d E =-.317644E-03
 trial-energy change:   -0.000318  1 .order   -0.000269   -0.000345   -0.000193
 step:   0.8253(harm=  0.8253)  dis= 0.00235  next Energy= -1253.791884 (dE=-0.390E-03)
 bond charge predicted
       N       E                     dE             d eps       ncg     rms          rms(c)
DAV:   1    -0.122321833427E+04    0.28020E-03   -0.42246E-02  1152   0.168E-01    0.815E-02
DAV:   2    -0.122321868455E+04   -0.35027E-03   -0.14962E-03  1464   0.403E-02    0.242E-01
DAV:   3    -0.122321865081E+04    0.33734E-04   -0.11495E-03   948   0.247E-02    0.196E-01
DAV:   4    -0.122321849699E+04    0.15382E-03   -0.59437E-04   768   0.191E-02    0.128E-01
DAV:   5    -0.122321849598E+04    0.10178E-05   -0.14213E-04   696   0.107E-02
  76 F= -.12537919E+04 E0= -.12537301E+04  d E =-.394654E-03
 curvature:  -1.38 expect dE=-0.246E-02 dE for cont linesearch -0.522E-05
 trial: gam= 1.94330 g(F)=  0.178E-02 g(S)=  0.000E+00 ort =-0.109E-03 (trialstep = 0.109E+00)
 search vector abs. value=  0.133E-01
 bond charge predicted
       N       E                     dE             d eps       ncg     rms          rms(c)
DAV:   1    -0.122321846440E+04    0.32593E-04   -0.94899E-03  1140   0.811E-02    0.516E-02
DAV:   2    -0.122321937371E+04   -0.90931E-03   -0.17743E-03  1056   0.387E-02    0.439E-01
DAV:   3    -0.122321853977E+04    0.83394E-03   -0.14585E-03   912   0.311E-02    0.106E-01
DAV:   4    -0.122321846912E+04    0.70651E-04   -0.72713E-05   624   0.785E-03
  77 F= -.12537919E+04 E0= -.12537289E+04  d E =-.325168E-04
 trial-energy change:   -0.000033  1 .order   -0.000144   -0.000171   -0.000117
 step:   0.3442(harm=  0.3442)  dis= 0.00191  next Energy= -1253.792159 (dE=-0.270E-03)
 bond charge predicted
       N       E                     dE             d eps       ncg     rms          rms(c)
DAV:   1    -0.122321847097E+04    0.68797E-04   -0.44351E-02  1152   0.174E-01    0.104E-01
DAV:   2    -0.122321951256E+04   -0.10416E-02   -0.26417E-03  1608   0.543E-02    0.477E-01
DAV:   3    -0.122321910677E+04    0.40579E-03   -0.33723E-03  1236   0.413E-02    0.270E-01
DAV:   4    -0.122321864962E+04    0.45715E-03   -0.49602E-04   780   0.176E-02    0.123E-01
DAV:   5    -0.122321854213E+04    0.10749E-03   -0.95449E-05   672   0.794E-03    0.710E-02
DAV:   6    -0.122321854062E+04    0.15114E-05   -0.12060E-04   636   0.926E-03
  78 F= -.12537921E+04 E0= -.12537282E+04  d E =-.233222E-03
 curvature:  -1.46 expect dE=-0.254E-02 dE for cont linesearch -0.310E-04
 ZBRENT: increasing intervall
 opt :   0.8153  next Energy= -1253.792116 (dE=-0.228E-03)
 bond charge predicted
       N       E                     dE             d eps       ncg     rms          rms(c)
DAV:   1    -0.122321787213E+04    0.67000E-03   -0.17728E-01  1152   0.349E-01    0.185E-01
DAV:   2    -0.122321904505E+04   -0.11729E-02   -0.59447E-03  1692   0.815E-02    0.441E-01
DAV:   3    -0.122322031345E+04   -0.12684E-02   -0.76447E-03  1332   0.618E-02    0.507E-01
DAV:   4    -0.122321844133E+04    0.18721E-02   -0.40783E-03  1200   0.469E-02    0.184E-01
DAV:   5    -0.122321839078E+04    0.50549E-04   -0.37421E-04   828   0.156E-02
  79 F= -.12537922E+04 E0= -.12537289E+04  d E =-.343874E-03
 curvature:   0.25 expect dE= 0.123E-02 dE for cont linesearch  0.687E-05
 ZBRENT: bracketing found
 ZBRENT: interpolating
 opt :   0.5656  next Energy= -1253.792180 (dE=-0.292E-03)
 bond charge predicted
       N       E                     dE             d eps       ncg     rms          rms(c)
DAV:   1    -0.122321828818E+04    0.15315E-03   -0.51564E-02  1152   0.189E-01    0.103E-01
DAV:   2    -0.122321877296E+04   -0.48478E-03   -0.27527E-03  1692   0.498E-02    0.248E-01
DAV:   3    -0.122321879421E+04   -0.21248E-04   -0.22105E-03  1044   0.313E-02    0.281E-01
DAV:   4    -0.122321868704E+04    0.10717E-03   -0.12888E-03   852   0.292E-02    0.191E-01
DAV:   5    -0.122321846737E+04    0.21967E-03   -0.20090E-04   636   0.105E-02    0.744E-02
DAV:   6    -0.122321844854E+04    0.18822E-04   -0.11801E-04   660   0.680E-03
  80 F= -.12537922E+04 E0= -.12537298E+04  d E =-.263209E-03
 curvature:  -2.18 expect dE=-0.636E-02 dE for cont linesearch -0.103E-04
 trial: gam= 1.24454 g(F)=  0.292E-02 g(S)=  0.000E+00 ort =-0.250E-03 (trialstep = 0.116E+00)
 search vector abs. value=  0.229E-01
 bond charge predicted
       N       E                     dE             d eps       ncg     rms          rms(c)
DAV:   1    -0.122321856220E+04   -0.94836E-04   -0.18200E-02  1152   0.113E-01    0.615E-02
DAV:   2    -0.122321871256E+04   -0.15036E-03   -0.86581E-04  1236   0.255E-02    0.149E-01
DAV:   3    -0.122321876799E+04   -0.55424E-04   -0.89959E-04   792   0.183E-02
  81 F= -.12537926E+04 E0= -.12537268E+04  d E =-.422900E-03
 ZBRENT: can't locate minimum, use default step
 trial-energy change:   -0.000423  1 .order   -0.000271   -0.000303   -0.000239
 step:   0.4650(harm=  0.5569)  dis= 0.00340  next Energy= -1253.792876 (dE=-0.725E-03)
 bond charge predicted
       N       E                     dE             d eps       ncg     rms          rms(c)
DAV:   1    -0.122321856512E+04    0.14745E-03   -0.16222E-01  1152   0.340E-01    0.193E-01
DAV:   2    -0.122322795718E+04   -0.93921E-02   -0.13878E-02  1632   0.106E-01    0.175E+00
DAV:   3    -0.122322139940E+04    0.65578E-02   -0.13590E-02  1368   0.838E-02    0.370E-01
DAV:   4    -0.122321989250E+04    0.15069E-02   -0.13265E-03  1128   0.307E-02    0.413E-01
DAV:   5    -0.122321893654E+04    0.95596E-03   -0.58818E-04   828   0.224E-02    0.149E-01
DAV:   6    -0.122321897111E+04   -0.34569E-04   -0.47136E-04   708   0.134E-02
  82 F= -.12537931E+04 E0= -.12537292E+04  d E =-.938002E-03
 curvature:  -2.34 expect dE=-0.387E-02 dE for cont linesearch -0.298E-04
 ZBRENT: extrapolating
 opt :   0.5888  next Energy= -1253.793123 (dE=-0.971E-03)
 bond charge predicted
       N       E                     dE             d eps       ncg     rms          rms(c)
DAV:   1    -0.122321866583E+04    0.27070E-03   -0.19753E-02  1152   0.121E-01    0.125E-01
DAV:   2    -0.122322099819E+04   -0.23324E-02   -0.58095E-03  1512   0.610E-02    0.515E-01
DAV:   3    -0.122321889538E+04    0.21028E-02   -0.73676E-03  1284   0.638E-02    0.245E-01
DAV:   4    -0.122321868674E+04    0.20864E-03   -0.80300E-04   828   0.214E-02    0.108E-01
DAV:   5    -0.122321859320E+04    0.93539E-04   -0.26585E-04   600   0.754E-03
  83 F= -.12537928E+04 E0= -.12537299E+04  d E =-.671376E-03
 curvature:  -2.63 expect dE=-0.506E-02 dE for cont linesearch -0.128E-05
 trial: gam= 0.67445 g(F)=  0.193E-02 g(S)=  0.000E+00 ort =-0.105E-03 (trialstep = 0.211E+00)
 search vector abs. value=  0.122E-01
 bond charge predicted
[...]
DAV:   8    -0.122322792401E+04    0.74014E-03   -0.61005E-03  1284   0.321E-02    0.307E-01
DAV:   9    -0.122322792243E+04    0.15826E-05   -0.51052E-03  1056   0.258E-02    0.328E-01
DAV:  10    -0.122322731703E+04    0.60540E-03   -0.29101E-03   864   0.256E-02    0.117E-01
DAV:  11    -0.122322727176E+04    0.45266E-04   -0.17083E-03   804   0.139E-02    0.991E-02
DAV:  12    -0.122322723265E+04    0.39107E-04   -0.95443E-04   684   0.994E-03
 226 F= -.12538418E+04 E0= -.12537796E+04  d E =-.199959E-02
 curvature: -12.21 expect dE=-0.183E+00 dE for cont linesearch -0.519E-03
 ZBRENT: interpolating
 opt :   0.7712  next Energy= -1253.842184 (dE=-0.234E-02)
 bond charge predicted
       N       E                     dE             d eps       ncg     rms          rms(c)
DAV:   1    -0.122322695967E+04    0.31210E-03   -0.63659E-01  1152   0.687E-01    0.346E-01
DAV:   2    -0.122322963114E+04   -0.26715E-02   -0.22180E-02  1608   0.152E-01    0.421E-01
DAV:   3    -0.122323938145E+04   -0.97503E-02   -0.28615E-02  1572   0.127E-01    0.193E+00
DAV:   4    -0.122323084451E+04    0.85369E-02   -0.13772E-02  1392   0.959E-02    0.399E-01
DAV:   5    -0.122322860226E+04    0.22423E-02   -0.14031E-03  1176   0.303E-02    0.233E-01
DAV:   6    -0.122322834276E+04    0.25950E-03   -0.60728E-04   780   0.219E-02    0.188E-01
DAV:   7    -0.122322824032E+04    0.10244E-03   -0.10648E-03   768   0.149E-02    0.126E-01
DAV:   8    -0.122322825566E+04   -0.15347E-04   -0.99839E-04   672   0.131E-02
 227 F= -.12538423E+04 E0= -.12537792E+04  d E =-.240569E-02
 curvature:  -7.93 expect dE=-0.664E-01 dE for cont linesearch -0.491E-04
 trial: gam= 1.28897 g(F)=  0.837E-02 g(S)=  0.000E+00 ort =-0.937E-03 (trialstep = 0.214E+00)
 search vector abs. value=  0.242E+00
 bond charge predicted
       N       E                     dE             d eps       ncg     rms          rms(c)
DAV:   1    -0.122322753600E+04    0.70432E-03   -0.69006E-01  1152   0.716E-01    0.324E-01
DAV:   2    -0.122323031905E+04   -0.27831E-02   -0.22321E-02  1620   0.150E-01    0.480E-01
DAV:   3    -0.122323718512E+04   -0.68661E-02   -0.21952E-02  1572   0.114E-01    0.161E+00
DAV:   4    -0.122323157202E+04    0.56131E-02   -0.14611E-02  1296   0.871E-02    0.404E-01
DAV:   5    -0.122322973757E+04    0.18344E-02   -0.16304E-03  1104   0.293E-02    0.376E-01
DAV:   6    -0.122322896583E+04    0.77174E-03   -0.97457E-04   816   0.224E-02    0.173E-01
DAV:   7    -0.122322908823E+04   -0.12240E-03   -0.19197E-03   864   0.182E-02    0.250E-01
DAV:   8    -0.122322878551E+04    0.30272E-03   -0.15403E-03   708   0.143E-02    0.930E-02
DAV:   9    -0.122322884863E+04   -0.63115E-04   -0.82451E-04   708   0.119E-02
 228 F= -.12538435E+04 E0= -.12537797E+04  d E =-.126100E-02
 trial-energy change:   -0.001261  1 .order   -0.001244   -0.001536   -0.000951
 step:   0.5631(harm=  0.5631)  dis= 0.01124  next Energy= -1253.844271 (dE=-0.202E-02)
 bond charge predicted
       N       E                     dE             d eps       ncg     rms          rms(c)
DAV:   1    -0.122322462932E+04    0.41562E-02   -0.18188E+00  1152   0.116E+00    0.530E-01
DAV:   2    -0.122322898039E+04   -0.43511E-02   -0.50581E-02  1584   0.219E-01    0.441E-01
DAV:   3    -0.122323173721E+04   -0.27568E-02   -0.70328E-03  1464   0.767E-02    0.959E-01
DAV:   4    -0.122323107219E+04    0.66502E-03   -0.14657E-02  1428   0.844E-02    0.556E-01
DAV:   5    -0.122322854415E+04    0.25280E-02   -0.53132E-03  1368   0.499E-02    0.336E-01
DAV:   6    -0.122322807548E+04    0.46867E-03   -0.61510E-04   900   0.219E-02    0.220E-01
DAV:   7    -0.122322799944E+04    0.76042E-04   -0.55392E-04  1044   0.226E-02
 229 F= -.12538438E+04 E0= -.12537786E+04  d E =-.150556E-02
 curvature:  -9.50 expect dE=-0.102E+00 dE for cont linesearch -0.224E-03
 ZBRENT: interpolating
 opt :   0.4412  next Energy= -1253.843904 (dE=-0.165E-02)
 bond charge predicted
       N       E                     dE             d eps       ncg     rms          rms(c)
DAV:   1    -0.122322799507E+04    0.80412E-04   -0.22550E-01  1152   0.409E-01    0.213E-01
DAV:   2    -0.122323265142E+04   -0.46563E-02   -0.14616E-02  1608   0.103E-01    0.107E+00
DAV:   3    -0.122323024814E+04    0.24033E-02   -0.15025E-02  1416   0.854E-02    0.415E-01
DAV:   4    -0.122322899978E+04    0.12484E-02   -0.18211E-03  1248   0.331E-02    0.293E-01
DAV:   5    -0.122322846227E+04    0.53751E-03   -0.54207E-04   756   0.194E-02    0.125E-01
DAV:   6    -0.122322851321E+04   -0.50937E-04   -0.42321E-04   684   0.152E-02
 230 F= -.12538439E+04 E0= -.12537807E+04  d E =-.163592E-02
 curvature:  -6.18 expect dE=-0.374E-01 dE for cont linesearch -0.303E-04
 trial: gam= 0.77969 g(F)=  0.605E-02 g(S)=  0.000E+00 ort =-0.109E-02 (trialstep = 0.260E+00)
 search vector abs. value=  0.151E+00
 bond charge predicted
       N       E                     dE             d eps       ncg     rms          rms(c)
DAV:   1    -0.122322766246E+04    0.79982E-03   -0.63773E-01  1152   0.693E-01    0.293E-01
DAV:   2    -0.122322970935E+04   -0.20469E-02   -0.19759E-02  1560   0.137E-01    0.339E-01
DAV:   3    -0.122323725812E+04   -0.75488E-02   -0.21709E-02  1596   0.114E-01    0.163E+00
DAV:   4    -0.122323071737E+04    0.65408E-02   -0.11451E-02  1368   0.800E-02    0.322E-01
DAV:   5    -0.122322925787E+04    0.14595E-02   -0.10128E-03  1068   0.260E-02    0.262E-01
DAV:   6    -0.122322886635E+04    0.39152E-03   -0.43536E-04   756   0.185E-02    0.132E-01
DAV:   7    -0.122322894418E+04   -0.77832E-04   -0.47996E-04   816   0.141E-02
 231 F= -.12538450E+04 E0= -.12537813E+04  d E =-.110858E-02
 trial-energy change:   -0.001109  1 .order   -0.001133   -0.001352   -0.000915
 step:   0.8031(harm=  0.8031)  dis= 0.01288  next Energy= -1253.845980 (dE=-0.209E-02)
 bond charge predicted
       N       E                     dE             d eps       ncg     rms          rms(c)
DAV:   1    -0.122322295507E+04    0.59113E-02   -0.27735E+00  1152   0.144E+00    0.579E-01
DAV:   2    -0.122322991072E+04   -0.69556E-02   -0.75863E-02  1572   0.273E-01    0.545E-01
DAV:   3    -0.122326251627E+04   -0.32606E-01   -0.60945E-02  1692   0.203E-01    0.382E+00
DAV:   4    -0.122323855167E+04    0.23965E-01   -0.34954E-02  1548   0.144E-01    0.553E-01
DAV:   5    -0.122323032730E+04    0.82244E-02   -0.54583E-03  1404   0.578E-02    0.657E-01
DAV:   6    -0.122322791320E+04    0.24141E-02   -0.16194E-03  1380   0.394E-02    0.223E-01
DAV:   7    -0.122322865287E+04   -0.73968E-03   -0.15450E-03  1272   0.287E-02    0.518E-01
DAV:   8    -0.122322750768E+04    0.11452E-02   -0.48179E-04  1032   0.230E-02    0.157E-01
DAV:   9    -0.122322780514E+04   -0.29746E-03   -0.31613E-04   804   0.181E-02    0.361E-01
DAV:  10    -0.122322728498E+04    0.52017E-03   -0.12658E-04   708   0.106E-02    0.137E-01
DAV:  11    -0.122322748243E+04   -0.19745E-03   -0.88868E-05   672   0.905E-03    0.259E-01
DAV:  12    -0.122322728217E+04    0.20026E-03   -0.38094E-05   636   0.506E-03    0.154E-01
DAV:  13    -0.122322734851E+04   -0.66331E-04   -0.35889E-05   648   0.520E-03
 232 F= -.12538448E+04 E0= -.12537810E+04  d E =-.940231E-03
 curvature: -11.67 expect dE=-0.152E+00 dE for cont linesearch -0.565E-03
 ZBRENT: interpolating
 opt :   0.5670  next Energy= -1253.845149 (dE=-0.126E-02)
 bond charge predicted
       N       E                     dE             d eps       ncg     rms          rms(c)
DAV:   1    -0.122322744174E+04   -0.15957E-03   -0.52485E-01  1152   0.626E-01    0.267E-01
DAV:   2    -0.122322999469E+04   -0.25529E-02   -0.17806E-02  1512   0.134E-01    0.454E-01
DAV:   3    -0.122323396588E+04   -0.39712E-02   -0.20680E-02  1476   0.104E-01    0.127E+00
DAV:   4    -0.122322967413E+04    0.42917E-02   -0.83084E-03  1416   0.751E-02    0.308E-01
DAV:   5    -0.122322889837E+04    0.77577E-03   -0.80841E-04  1092   0.245E-02    0.287E-01
DAV:   6    -0.122322835009E+04    0.54828E-03   -0.33607E-04   804   0.193E-02    0.948E-02
DAV:   7    -0.122322867826E+04   -0.32817E-03   -0.44283E-04   828   0.166E-02    0.266E-01
DAV:   8    -0.122322834980E+04    0.32847E-03   -0.25836E-04   732   0.120E-02    0.864E-02
DAV:   9    -0.122322842753E+04   -0.77734E-04   -0.30069E-04   696   0.105E-02
 233 F= -.12538453E+04 E0= -.12537815E+04  d E =-.139744E-02
 curvature:  -6.60 expect dE=-0.414E-01 dE for cont linesearch -0.112E-04
 trial: gam= 0.96702 g(F)=  0.628E-02 g(S)=  0.000E+00 ort =-0.508E-03 (trialstep = 0.321E+00)
 search vector abs. value=  0.147E+00
 bond charge predicted
       N       E                     dE             d eps       ncg     rms          rms(c)
DAV:   1    -0.122322725298E+04    0.10968E-02   -0.93550E-01  1152   0.835E-01    0.352E-01
DAV:   2    -0.122322986900E+04   -0.26160E-02   -0.29275E-02  1584   0.159E-01    0.368E-01
DAV:   3    -0.122323817840E+04   -0.83094E-02   -0.27206E-02  1596   0.116E-01    0.171E+00
DAV:   4    -0.122323121898E+04    0.69594E-02   -0.15554E-02  1404   0.870E-02    0.360E-01
DAV:   5    -0.122322940824E+04    0.18107E-02   -0.14310E-03  1116   0.264E-02    0.293E-01
DAV:   6    -0.122322897558E+04    0.43267E-03   -0.11712E-03   780   0.199E-02    0.155E-01
DAV:   7    -0.122322908513E+04   -0.10955E-03   -0.80136E-04  1068   0.181E-02    0.214E-01
DAV:   8    -0.122322887498E+04    0.21015E-03   -0.34671E-04   732   0.147E-02    0.812E-02
DAV:   9    -0.122322891861E+04   -0.43631E-04   -0.26009E-04   684   0.117E-02
 234 F= -.12538466E+04 E0= -.12537832E+04  d E =-.127243E-02
 trial-energy change:   -0.001272  1 .order   -0.001223   -0.001859   -0.000586
 step:   0.4692(harm=  0.4692)  dis= 0.00769  next Energy= -1253.846644 (dE=-0.136E-02)
 bond charge predicted
       N       E                     dE             d eps       ncg     rms          rms(c)
DAV:   1    -0.122322821179E+04    0.66319E-03   -0.19762E-01  1152   0.385E-01    0.160E-01
DAV:   2    -0.122322881158E+04   -0.59979E-03   -0.57073E-03  1560   0.746E-02    0.183E-01
DAV:   3    -0.122322974698E+04   -0.93540E-03   -0.33009E-03  1272   0.488E-02    0.506E-01
DAV:   4    -0.122322876843E+04    0.97855E-03   -0.26512E-03  1212   0.420E-02    0.166E-01
DAV:   5    -0.122322859711E+04    0.17132E-03   -0.20034E-04   768   0.134E-02    0.823E-02
DAV:   6    -0.122322859055E+04    0.65631E-05   -0.84999E-05   672   0.101E-02
 235 F= -.12538466E+04 E0= -.12537846E+04  d E =-.130634E-02
 curvature:  -5.95 expect dE=-0.342E-01 dE for cont linesearch -0.529E-06
 trial: gam= 0.88531 g(F)=  0.575E-02 g(S)=  0.000E+00 ort = 0.114E-03 (trialstep = 0.351E+00)
 search vector abs. value=  0.121E+00
 bond charge predicted
       N       E                     dE             d eps       ncg     rms          rms(c)
DAV:   1    -0.122322730138E+04    0.12957E-02   -0.90455E-01  1152   0.817E-01    0.377E-01
DAV:   2    -0.122322980669E+04   -0.25053E-02   -0.28269E-02  1596   0.165E-01    0.324E-01
DAV:   3    -0.122324090629E+04   -0.11100E-01   -0.24576E-02  1572   0.126E-01    0.200E+00
DAV:   4    -0.122323143068E+04    0.94756E-02   -0.14907E-02  1368   0.913E-02    0.358E-01
DAV:   5    -0.122322940941E+04    0.20213E-02   -0.17003E-03  1140   0.296E-02    0.242E-01
DAV:   6    -0.122322917947E+04    0.22994E-03   -0.13731E-03   804   0.194E-02    0.185E-01
DAV:   7    -0.122322910711E+04    0.72366E-04   -0.17040E-03   828   0.162E-02    0.143E-01
DAV:   8    -0.122322909980E+04    0.73037E-05   -0.17194E-03   756   0.162E-02    0.130E-01
DAV:   9    -0.122322905221E+04    0.47592E-04   -0.13391E-03   720   0.118E-02    0.845E-02
DAV:  10    -0.122322902019E+04    0.32017E-04   -0.67650E-04   660   0.860E-03
 236 F= -.12538479E+04 E0= -.12537856E+04  d E =-.135008E-02
 trial-energy change:   -0.001350  1 .order   -0.001504   -0.002054   -0.000954
 step:   0.6551(harm=  0.6551)  dis= 0.00910  next Energy= -1253.848511 (dE=-0.192E-02)
 bond charge predicted
       N       E                     dE             d eps       ncg     rms          rms(c)
DAV:   1    -0.122322734342E+04    0.17088E-02   -0.68268E-01  1152   0.710E-01    0.344E-01
DAV:   2    -0.122322940879E+04   -0.20654E-02   -0.24802E-02  1584   0.144E-01    0.357E-01
DAV:   3    -0.122323278560E+04   -0.33768E-02   -0.19690E-02  1512   0.842E-02    0.102E+00
DAV:   4    -0.122322983893E+04    0.29467E-02   -0.14856E-02  1284   0.766E-02    0.359E-01
DAV:   5    -0.122322884082E+04    0.99811E-03   -0.26509E-03  1080   0.257E-02    0.205E-01
DAV:   6    -0.122322869616E+04    0.14467E-03   -0.24009E-03   744   0.155E-02    0.145E-01
DAV:   7    -0.122322871478E+04   -0.18622E-04   -0.10819E-03   948   0.172E-02    0.155E-01
DAV:   8    -0.122322863487E+04    0.79913E-04   -0.38452E-04   756   0.139E-02
 237 F= -.12538484E+04 E0= -.12537865E+04  d E =-.176914E-02
 curvature:  -6.77 expect dE=-0.615E-01 dE for cont linesearch -0.220E-04
 trial: gam= 1.28787 g(F)=  0.909E-02 g(S)=  0.000E+00 ort = 0.627E-03 (trialstep = 0.236E+00)
 search vector abs. value=  0.211E+00
 bond charge predicted
       N       E                     dE             d eps       ncg     rms          rms(c)
DAV:   1    -0.122322779841E+04    0.91637E-03   -0.72384E-01  1152   0.729E-01    0.358E-01
DAV:   2    -0.122323352595E+04   -0.57275E-02   -0.33735E-02  1656   0.191E-01    0.650E-01
DAV:   3    -0.122323597540E+04   -0.24494E-02   -0.37340E-02  1572   0.150E-01    0.141E+00
DAV:   4    -0.122323196968E+04    0.40057E-02   -0.13932E-02  1368   0.892E-02    0.446E-01
DAV:   5    -0.122323042687E+04    0.15428E-02   -0.11374E-03  1080   0.282E-02    0.383E-01
DAV:   6    -0.122322940880E+04    0.10181E-02   -0.85605E-04   996   0.288E-02    0.186E-01
DAV:   7    -0.122322951148E+04   -0.10268E-03   -0.11284E-03   924   0.216E-02    0.243E-01
DAV:   8    -0.122322935205E+04    0.15943E-03   -0.86789E-04   852   0.169E-02    0.155E-01
DAV:   9    -0.122322933369E+04    0.18362E-04   -0.88063E-04   708   0.140E-02
 238 F= -.12538500E+04 E0= -.12537862E+04  d E =-.167695E-02
 trial-energy change:   -0.001677  1 .order   -0.001713   -0.002333   -0.001093
 step:   0.4432(harm=  0.4432)  dis= 0.00805  next Energy= -1253.850556 (dE=-0.219E-02)
 bond charge predicted
       N       E                     dE             d eps       ncg     rms          rms(c)
DAV:   1    -0.122322767290E+04    0.16791E-02   -0.56181E-01  1152   0.642E-01    0.319E-01
DAV:   2    -0.122323286857E+04   -0.51957E-02   -0.29145E-02  1656   0.176E-01    0.603E-01
DAV:   3    -0.122323360106E+04   -0.73250E-03   -0.32680E-02  1560   0.141E-01    0.117E+00
DAV:   4    -0.122323043071E+04    0.31703E-02   -0.86684E-03  1320   0.746E-02    0.381E-01
DAV:   5    -0.122322939276E+04    0.10380E-02   -0.76400E-04  1008   0.231E-02    0.283E-01
DAV:   6    -0.122322884359E+04    0.54916E-03   -0.54932E-04   876   0.253E-02    0.139E-01
DAV:   7    -0.122322893941E+04   -0.95820E-04   -0.78269E-04   876   0.162E-02
 239 F= -.12538505E+04 E0= -.12537861E+04  d E =-.215025E-02
 curvature:  -4.73 expect dE=-0.238E-01 dE for cont linesearch -0.533E-06
 trial: gam= 0.61085 g(F)=  0.503E-02 g(S)=  0.000E+00 ort = 0.154E-03 (trialstep = 0.277E+00)
 search vector abs. value=  0.841E-01
 bond charge predicted
       N       E                     dE             d eps       ncg     rms          rms(c)
DAV:   1    -0.122322843614E+04    0.40745E-03   -0.40850E-01  1152   0.553E-01    0.279E-01
DAV:   2    -0.122323692731E+04   -0.84912E-02   -0.38419E-02  1680   0.186E-01    0.755E-01
DAV:   3    -0.122322961662E+04    0.73107E-02   -0.32911E-02  1596   0.141E-01    0.367E-01
DAV:   4    -0.122322963714E+04   -0.20514E-04   -0.26764E-03  1308   0.394E-02    0.299E-01
DAV:   5    -0.122322929240E+04    0.34473E-03   -0.80676E-04   876   0.180E-02    0.202E-01
DAV:   6    -0.122322920033E+04    0.92069E-04   -0.11627E-03   972   0.255E-02    0.174E-01
DAV:   7    -0.122322910860E+04    0.91735E-04   -0.11624E-03   816   0.162E-02    0.126E-01
DAV:   8    -0.122322905687E+04    0.51727E-04   -0.94293E-04   660   0.103E-02
 240 F= -.12538513E+04 E0= -.12537888E+04  d E =-.770796E-03
 trial-energy change:   -0.000771  1 .order   -0.001056   -0.001421   -0.000691
 step:   0.5394(harm=  0.5394)  dis= 0.00639  next Energy= -1253.851896 (dE=-0.138E-02)
 bond charge predicted
       N       E                     dE             d eps       ncg     rms          rms(c)
DAV:   1    -0.122322801368E+04    0.10949E-02   -0.36566E-01  1152   0.523E-01    0.262E-01
DAV:   2    -0.122323491526E+04   -0.69016E-02   -0.29767E-02  1656   0.168E-01    0.714E-01
DAV:   3    -0.122322941159E+04    0.55037E-02   -0.26312E-02  1572   0.126E-01    0.411E-01
DAV:   4    -0.122322929090E+04    0.12069E-03   -0.21711E-03  1308   0.364E-02    0.314E-01
DAV:   5    -0.122322894727E+04    0.34363E-03   -0.58458E-04   900   0.183E-02    0.204E-01
DAV:   6    -0.122322876917E+04    0.17810E-03   -0.93371E-04   996   0.266E-02    0.158E-01
DAV:   7    -0.122322867467E+04    0.94495E-04   -0.83013E-04   756   0.134E-02
 241 F= -.12538515E+04 E0= -.12537879E+04  d E =-.101038E-02
 curvature:  -4.42 expect dE=-0.234E-01 dE for cont linesearch -0.391E-06
 trial: gam= 1.03297 g(F)=  0.530E-02 g(S)=  0.000E+00 ort =-0.862E-04 (trialstep = 0.292E+00)
 search vector abs. value=  0.948E-01
 bond charge predicted
       N       E                     dE             d eps       ncg     rms          rms(c)
DAV:   1    -0.122322810813E+04    0.66104E-03   -0.54139E-01  1152   0.637E-01    0.274E-01
DAV:   2    -0.122323088127E+04   -0.27731E-02   -0.21502E-02  1572   0.138E-01    0.482E-01
DAV:   3    -0.122323317023E+04   -0.22890E-02   -0.21066E-02  1548   0.105E-01    0.105E+00
DAV:   4    -0.122323017270E+04    0.29975E-02   -0.87496E-03  1296   0.704E-02    0.326E-01
DAV:   5    -0.122322920652E+04    0.96618E-03   -0.84506E-04  1116   0.206E-02    0.196E-01
DAV:   6    -0.122322903359E+04    0.17293E-03   -0.95259E-04   768   0.155E-02    0.145E-01
DAV:   7    -0.122322906028E+04   -0.26685E-04   -0.99389E-04   900   0.173E-02
 242 F= -.12538525E+04 E0= -.12537885E+04  d E =-.101557E-02
 trial-energy change:   -0.001016  1 .order   -0.001069   -0.001522   -0.000615
 step:   0.4905(harm=  0.4905)  dis= 0.00612  next Energy= -1253.852801 (dE=-0.128E-02)
 bond charge predicted
       N       E                     dE             d eps       ncg     rms          rms(c)
DAV:   1    -0.122322831158E+04    0.72201E-03   -0.24851E-01  1152   0.434E-01    0.202E-01
DAV:   2    -0.122323105381E+04   -0.27422E-02   -0.14855E-02  1596   0.117E-01    0.511E-01
DAV:   3    -0.122323003481E+04    0.10190E-02   -0.15180E-02  1464   0.892E-02    0.560E-01
DAV:   4    -0.122322912162E+04    0.91319E-03   -0.39216E-03  1212   0.467E-02    0.239E-01
DAV:   5    -0.122322878766E+04    0.33396E-03   -0.69470E-04   840   0.153E-02    0.148E-01
DAV:   6    -0.122322867377E+04    0.11389E-03   -0.78982E-04   720   0.136E-02    0.949E-02
DAV:   7    -0.122322871211E+04   -0.38344E-04   -0.86790E-04   852   0.131E-02
 243 F= -.12538526E+04 E0= -.12537890E+04  d E =-.109774E-02
 curvature:  -4.47 expect dE=-0.271E-01 dE for cont linesearch -0.670E-08
 trial: gam= 1.08538 g(F)=  0.606E-02 g(S)=  0.000E+00 ort =-0.119E-04 (trialstep = 0.267E+00)
 search vector abs. value=  0.118E+00
 bond charge predicted
       N       E                     dE             d eps       ncg     rms          rms(c)
DAV:   1    -0.122322813037E+04    0.54340E-03   -0.55395E-01  1152   0.648E-01    0.268E-01
DAV:   2    -0.122323272144E+04   -0.45911E-02   -0.25954E-02  1632   0.171E-01    0.603E-01
DAV:   3    -0.122323152809E+04    0.11934E-02   -0.21813E-02  1560   0.115E-01    0.772E-01
DAV:   4    -0.122323011522E+04    0.14129E-02   -0.48669E-03  1308   0.567E-02    0.335E-01
DAV:   5    -0.122322956896E+04    0.54626E-03   -0.52535E-04   948   0.200E-02    0.269E-01
DAV:   6    -0.122322911510E+04    0.45386E-03   -0.66732E-04   984   0.271E-02    0.121E-01
