basalPlane                              
           1
    15.900000    0.000000    0.000000
    -7.950000   13.769804    0.000000
     0.000000    0.000000   32.380000
   C    Cr   H    Mo   S 
  10   1  10  50 100
Direct configuration=     1
   0.58735893  0.49688818  0.47520659
   0.55536528  0.39608701  0.47197072
   0.51170034  0.50757444  0.49362822
   0.43139717  0.41197755  0.50214794
   0.45896591  0.34262875  0.48849169
   0.46227036  0.40974441  0.37373219
   0.31567003  0.36356657  0.40682419
   0.37558380  0.32762849  0.39015731
   0.36445084  0.46602256  0.40060982
   0.45441601  0.49481754  0.38046148
   0.45322772  0.42396273  0.43815475
   0.41519430  0.26403317  0.49088484
   0.35752798  0.25207402  0.38907475
   0.52176102  0.40750335  0.35820166
   0.24599351  0.32047933  0.42209749
   0.33956422  0.51464675  0.41150187
   0.59583603  0.36496587  0.45796557
   0.65603084  0.55562676  0.46368000
   0.51429655  0.57607253  0.49981132
   0.36377614  0.39530888  0.51730763
   0.50884395  0.56899677  0.37260363
   0.60000000  0.60000000  0.65735022
   0.20000000  0.80000000  0.21911674
   0.20000000  0.60000000  0.65735022
   0.60000000  0.80000000  0.21911674
   0.20000000  0.60000000  0.21911674
   0.60000000  0.80000000  0.65735022
   0.20000000  0.40000000  0.21911674
   0.80000000  0.00000000  0.21911674
   0.20000000  0.20000000  0.65735022
   0.80000000  0.00000000  0.65735022
   0.20000000  0.20000000  0.21911674
   0.20000000  0.80000000  0.65735022
   0.20000000  0.40000000  0.65735022
   0.60000000  0.60000000  0.21911674
   0.40000000  0.60000000  0.21911674
   0.40000000  0.00000000  0.65735022
   0.60000000  0.40000000  0.65735022
   0.40000000  0.20000000  0.21911674
   0.60000000  0.40000000  0.21911674
   0.40000000  0.20000000  0.65735022
   0.40000000  0.40000000  0.21911674
   0.60000000  0.20000000  0.65735022
   0.40000000  0.40000000  0.65735022
   0.60000000  0.20000000  0.21911674
   0.40000000  0.80000000  0.65735022
   0.40000000  0.60000000  0.65735022
   0.60000000  0.00000000  0.65735022
   0.40000000  0.80000000  0.21911674
   0.60000000  0.00000000  0.21911674
   0.40000000  0.00000000  0.21911674
   0.80000000  0.20000000  0.21911674
   0.20000000  0.00000000  0.65735022
   0.20000000  0.00000000  0.21911674
   0.00000000  0.00000000  0.21911674
   0.80000000  0.80000000  0.65735022
   0.00000000  0.00000000  0.65735022
   0.80000000  0.80000000  0.21911674
   0.00000000  0.20000000  0.21911674
   0.00000000  0.20000000  0.65735022
   0.80000000  0.60000000  0.65735022
   0.00000000  0.40000000  0.21911674
   0.00000000  0.40000000  0.65735022
   0.00000000  0.60000000  0.21911674
   0.80000000  0.40000000  0.65735022
   0.00000000  0.60000000  0.65735022
   0.80000000  0.60000000  0.21911674
   0.80000000  0.40000000  0.21911674
   0.00000000  0.80000000  0.65735022
   0.00000000  0.80000000  0.21911674
   0.80000000  0.20000000  0.65735022
   0.93333333  0.06666667  0.16985794
   0.73333333  0.26666667  0.60809141
   0.73333333  0.26666667  0.70660902
   0.93333333  0.66666667  0.70660902
   0.93333333  0.66666667  0.60809141
   0.73333333  0.26666667  0.16985794
   0.73333333  0.26666667  0.26837554
   0.93333333  0.46666667  0.26837554
   0.73333333  0.06666667  0.60809141
   0.73333333  0.06666667  0.70660902
   0.93333333  0.06666667  0.70660902
   0.93333333  0.86666667  0.16985794
   0.73333333  0.06666667  0.16985794
   0.93333333  0.06666667  0.60809141
   0.73333333  0.06666667  0.26837554
   0.93333333  0.26666667  0.16985794
   0.93333333  0.26666667  0.70660902
   0.93333333  0.86666667  0.26837554
   0.73333333  0.46666667  0.26837554
   0.73333333  0.46666667  0.16985794
   0.73333333  0.86666667  0.16985794
   0.73333333  0.86666667  0.70660902
   0.73333333  0.86666667  0.26837554
   0.93333333  0.46666667  0.16985794
   0.73333333  0.86666667  0.60809141
   0.73333333  0.66666667  0.60809141
   0.73333333  0.66666667  0.70660902
   0.93333333  0.46666667  0.70660902
   0.73333333  0.66666667  0.16985794
   0.93333333  0.46666667  0.60809141
   0.73333333  0.66666667  0.26837554
   0.93333333  0.26666667  0.60809141
   0.93333333  0.26666667  0.26837554
   0.73333333  0.46666667  0.60809141
   0.73333333  0.46666667  0.70660902
   0.93333333  0.66666667  0.26837554
   0.93333333  0.06666667  0.26837554
   0.93333333  0.66666667  0.16985794
   0.53333333  0.86666667  0.60809141
   0.53333333  0.06666667  0.70660902
   0.53333333  0.86666667  0.16985794
   0.33333333  0.26666667  0.16985794
   0.33333333  0.26666667  0.26837554
   0.33333333  0.06666667  0.60809141
   0.33333333  0.06666667  0.70660902
   0.33333333  0.06666667  0.16985794
   0.33333333  0.06666667  0.26837554
   0.13333333  0.86666667  0.60809141
   0.13333333  0.86666667  0.70660902
   0.13333333  0.86666667  0.16985794
   0.13333333  0.86666667  0.26837554
   0.13333333  0.66666667  0.60809141
   0.13333333  0.66666667  0.70660902
   0.33333333  0.26666667  0.70660902
   0.13333333  0.66666667  0.16985794
   0.13333333  0.46666667  0.60809141
   0.13333333  0.46666667  0.70660902
   0.13333333  0.46666667  0.16985794
   0.13333333  0.46666667  0.26837554
   0.13333333  0.26666667  0.60809141
   0.13333333  0.26666667  0.70660902
   0.13333333  0.26666667  0.16985794
   0.13333333  0.26666667  0.26837554
   0.13333333  0.06666667  0.60809141
   0.13333333  0.06666667  0.70660902
   0.13333333  0.06666667  0.16985794
   0.13333333  0.06666667  0.26837554
   0.13333333  0.66666667  0.26837554
   0.33333333  0.26666667  0.60809141
   0.33333333  0.46666667  0.26837554
   0.33333333  0.46666667  0.16985794
   0.53333333  0.86666667  0.26837554
   0.53333333  0.66666667  0.60809141
   0.53333333  0.66666667  0.70660902
   0.53333333  0.66666667  0.16985794
   0.53333333  0.66666667  0.26837554
   0.53333333  0.46666667  0.60809141
   0.53333333  0.46666667  0.70660902
   0.53333333  0.46666667  0.16985794
   0.53333333  0.46666667  0.26837554
   0.53333333  0.26666667  0.60809141
   0.53333333  0.26666667  0.70660902
   0.53333333  0.26666667  0.16985794
   0.53333333  0.26666667  0.26837554
   0.53333333  0.06666667  0.60809141
   0.93333333  0.86666667  0.70660902
   0.53333333  0.06666667  0.16985794
   0.53333333  0.06666667  0.26837554
   0.33333333  0.86666667  0.60809141
   0.33333333  0.86666667  0.70660902
   0.33333333  0.86666667  0.16985794
   0.33333333  0.86666667  0.26837554
   0.33333333  0.66666667  0.60809141
   0.33333333  0.66666667  0.70660902
   0.33333333  0.66666667  0.16985794
   0.33333333  0.66666667  0.26837554
   0.33333333  0.46666667  0.60809141
   0.33333333  0.46666667  0.70660902
   0.53333333  0.86666667  0.70660902
   0.93333333  0.86666667  0.60809141
Direct configuration=     2
   0.58734790  0.49687993  0.47526555
   0.55537289  0.39610474  0.47199720
   0.51170174  0.50753636  0.49365280
   0.43147165  0.41196813  0.50217269
   0.45901113  0.34266819  0.48853613
   0.46218259  0.40967989  0.37374638
   0.31571049  0.36363557  0.40678296
   0.37556902  0.32768184  0.39013123
   0.36449284  0.46603537  0.40058180
   0.45433734  0.49476301  0.38042251
   0.45322876  0.42399480  0.43813481
   0.41521091  0.26405630  0.49089180
   0.35753810  0.25208822  0.38907098
   0.52171436  0.40747900  0.35821534
   0.24600369  0.32049463  0.42209764
   0.33959480  0.51461175  0.41147637
   0.59583590  0.36498638  0.45797005
   0.65598899  0.55560522  0.46369080
   0.51426820  0.57604837  0.49983747
   0.36375626  0.39530293  0.51733466
   0.50881937  0.56893887  0.37257876
   0.59999095  0.59996963  0.65734507
   0.20000000  0.80000000  0.21911674
   0.20000951  0.60000130  0.65734554
   0.60000000  0.80000000  0.21911674
   0.20000000  0.60000000  0.21911674
   0.60000188  0.80001131  0.65735084
   0.20000000  0.40000000  0.21911674
   0.80000000  0.00000000  0.21911674
   0.20001409  0.20000224  0.65735810
   0.80000144  0.00000673  0.65734944
   0.20000000  0.20000000  0.21911674
   0.19999957  0.80000164  0.65734705
   0.20000003  0.40000591  0.65735319
   0.60000000  0.60000000  0.21911674
   0.40000000  0.60000000  0.21911674
   0.39998265 -0.00000878  0.65734685
   0.59997498  0.40000522  0.65734877
   0.40000000  0.20000000  0.21911674
   0.60000000  0.40000000  0.21911674
   0.40000618  0.20001346  0.65734395
   0.40000000  0.40000000  0.21911674
   0.59999811  0.20000145  0.65735164
   0.40003149  0.39999876  0.65731876
   0.60000000  0.20000000  0.21911674
   0.39999907  0.79999686  0.65734592
   0.39999828  0.60000720  0.65734623
   0.60001551 -0.00000193  0.65734695
   0.40000000  0.80000000  0.21911674
   0.60000000  0.00000000  0.21911674
   0.40000000  0.00000000  0.21911674
   0.80000000  0.20000000  0.21911674
   0.20000147  0.00000075  0.65734870
   0.20000000  0.00000000  0.21911674
   0.00000000  0.00000000  0.21911674
   0.79999919  0.79999608  0.65735235
  -0.00000287  0.00000123  0.65734061
   0.80000000  0.80000000  0.21911674
   0.00000000  0.20000000  0.21911674
  -0.00001760  0.19999184  0.65735029
   0.80000212  0.60000333  0.65734425
   0.00000000  0.40000000  0.21911674
  -0.00000035  0.39998070  0.65734739
   0.00000000  0.60000000  0.21911674
   0.79999581  0.39999973  0.65734922
   0.00000593  0.60002234  0.65734754
   0.80000000  0.60000000  0.21911674
   0.80000000  0.40000000  0.21911674
   0.00000126  0.79999749  0.65734956
   0.00000000  0.80000000  0.21911674
   0.80000328  0.19999553  0.65734728
   0.93333333  0.06666667  0.16985794
   0.73332689  0.26667111  0.60896401
   0.73333349  0.26666666  0.70573335
   0.93333130  0.66666487  0.70573446
   0.93332678  0.66666197  0.60896570
   0.73333333  0.26666667  0.16985794
   0.73333333  0.26666667  0.26837554
   0.93333333  0.46666667  0.26837554
   0.73333229  0.06666778  0.60896722
   0.73333151  0.06666572  0.70573428
   0.93333381  0.06666746  0.70573344
   0.93333333  0.86666667  0.16985794
   0.73333333  0.06666667  0.16985794
   0.93333136  0.06666532  0.60896713
   0.73333333  0.06666667  0.26837554
   0.93333333  0.26666667  0.16985794
   0.93333408  0.26666706  0.70573407
   0.93333333  0.86666667  0.26837554
   0.73333333  0.46666667  0.26837554
   0.73333333  0.46666667  0.16985794
   0.73333333  0.86666667  0.16985794
   0.73333174  0.86666585  0.70573367
   0.73333333  0.86666667  0.26837554
   0.93333333  0.46666667  0.16985794
   0.73333334  0.86666269  0.60896500
   0.73331041  0.66664151  0.60895076
   0.73333298  0.66666636  0.70573386
   0.93333281  0.46666671  0.70573475
   0.73333333  0.66666667  0.16985794
   0.93332643  0.46666577  0.60896565
   0.73333333  0.66666667  0.26837554
   0.93332996  0.26666584  0.60896693
   0.93333333  0.26666667  0.26837554
   0.73330586  0.46666096  0.60895081
   0.73333283  0.46666689  0.70573321
   0.93333333  0.66666667  0.26837554
   0.93333333  0.06666667  0.26837554
   0.93333333  0.66666667  0.16985794
   0.53333779  0.86666915  0.60896649
   0.53333308  0.06666711  0.70573390
   0.53333333  0.86666667  0.16985794
   0.33333333  0.26666667  0.16985794
   0.33333333  0.26666667  0.26837554
   0.33333950  0.06667746  0.60896075
   0.33333668  0.06666996  0.70573414
   0.33333333  0.06666667  0.16985794
   0.33333333  0.06666667  0.26837554
   0.13333242  0.86666624  0.60896753
   0.13333353  0.86666756  0.70573422
   0.13333333  0.86666667  0.16985794
   0.13333333  0.86666667  0.26837554
   0.13333203  0.66666711  0.60896823
   0.13333253  0.66666631  0.70573384
   0.33333340  0.26666783  0.70573634
   0.13333333  0.66666667  0.16985794
   0.13333135  0.46666711  0.60896567
   0.13333236  0.46666463  0.70573357
   0.13333333  0.46666667  0.16985794
   0.13333333  0.46666667  0.26837554
   0.13334531  0.26666993  0.60895887
   0.13333677  0.26667003  0.70573284
   0.13333333  0.26666667  0.16985794
   0.13333333  0.26666667  0.26837554
   0.13333902  0.06666952  0.60896428
   0.13333394  0.06666608  0.70573308
   0.13333333  0.06666667  0.16985794
   0.13333333  0.06666667  0.26837554
   0.13333333  0.66666667  0.26837554
   0.33335158  0.26669277  0.60893141
   0.33333333  0.46666667  0.26837554
   0.33333333  0.46666667  0.16985794
   0.53333333  0.86666667  0.26837554
   0.53333478  0.66663957  0.60894080
   0.53332804  0.66666229  0.70573310
   0.53333333  0.66666667  0.16985794
   0.53333333  0.66666667  0.26837554
   0.53335260  0.46665815  0.60893274
   0.53333296  0.46666719  0.70573970
   0.53333333  0.46666667  0.16985794
   0.53333333  0.46666667  0.26837554
   0.53333603  0.26669235  0.60894011
   0.53332967  0.26666524  0.70573247
   0.53333333  0.26666667  0.16985794
   0.53333333  0.26666667  0.26837554
   0.53333628  0.06667632  0.60896538
   0.93333332  0.86666636  0.70573389
   0.53333333  0.06666667  0.16985794
   0.53333333  0.06666667  0.26837554
   0.33333107  0.86666712  0.60896766
   0.33333306  0.86666824  0.70573427
   0.33333333  0.86666667  0.16985794
   0.33333333  0.86666667  0.26837554
   0.33333148  0.66666847  0.60896280
   0.33333566  0.66666521  0.70573642
   0.33333333  0.66666667  0.16985794
   0.33333333  0.66666667  0.26837554
   0.33335116  0.46664824  0.60893586
   0.33333618  0.46666658  0.70573595
   0.53333659  0.86666788  0.70573409
   0.93332962  0.86666276  0.60896632
Direct configuration=     3
   0.58734639  0.49687881  0.47527361
   0.55537393  0.39610717  0.47200082
   0.51170193  0.50753115  0.49365616
   0.43148183  0.41196684  0.50217608
   0.45901732  0.34267358  0.48854220
   0.46217059  0.40967106  0.37374832
   0.31571602  0.36364500  0.40677732
   0.37556700  0.32768913  0.39012767
   0.36449859  0.46603712  0.40057796
   0.45432658  0.49475555  0.38041718
   0.45322891  0.42399918  0.43813208
   0.41521318  0.26405947  0.49089275
   0.35753948  0.25209016  0.38907047
   0.52170798  0.40747567  0.35821721
   0.24600509  0.32049673  0.42209766
   0.33959898  0.51460696  0.41147289
   0.59583589  0.36498919  0.45797067
   0.65598326  0.55560228  0.46369227
   0.51426432  0.57604507  0.49984105
   0.36375354  0.39530212  0.51733836
   0.50881601  0.56893096  0.37257536
   0.59998972  0.59996548  0.65734436
   0.20000000  0.80000000  0.21911674
   0.20001082  0.60000147  0.65734490
   0.60000000  0.80000000  0.21911674
   0.20000000  0.60000000  0.21911674
   0.60000214  0.80001286  0.65735093
   0.20000000  0.40000000  0.21911674
   0.80000000  0.00000000  0.21911674
   0.20001602  0.20000255  0.65735918
   0.80000164  0.00000765  0.65734933
   0.20000000  0.20000000  0.21911674
   0.19999951  0.80000187  0.65734661
   0.20000003  0.40000671  0.65735360
   0.60000000  0.60000000  0.21911674
   0.40000000  0.60000000  0.21911674
   0.39998027 -0.00000999  0.65734639
   0.59997156  0.40000593  0.65734857
   0.40000000  0.20000000  0.21911674
   0.60000000  0.40000000  0.21911674
   0.40000702  0.20001530  0.65734309
   0.40000000  0.40000000  0.21911674
   0.59999786  0.20000165  0.65735183
   0.40003580  0.39999859  0.65731446
   0.60000000  0.20000000  0.21911674
   0.39999894  0.79999644  0.65734533
   0.39999805  0.60000818  0.65734568
   0.60001764 -0.00000220  0.65734651
   0.40000000  0.80000000  0.21911674
   0.60000000  0.00000000  0.21911674
   0.40000000  0.00000000  0.21911674
   0.80000000  0.20000000  0.21911674
   0.20000167  0.00000085  0.65734849
   0.20000000  0.00000000  0.21911674
   0.00000000  0.00000000  0.21911674
   0.79999908  0.79999554  0.65735264
  -0.00000326  0.00000140  0.65733929
   0.80000000  0.80000000  0.21911674
   0.00000000  0.20000000  0.21911674
  -0.00002000  0.19999073  0.65735030
   0.80000241  0.60000378  0.65734343
   0.00000000  0.40000000  0.21911674
  -0.00000040  0.39997807  0.65734701
   0.00000000  0.60000000  0.21911674
   0.79999524  0.39999970  0.65734908
   0.00000674  0.60002539  0.65734717
   0.80000000  0.60000000  0.21911674
   0.80000000  0.40000000  0.21911674
   0.00000143  0.79999714  0.65734947
   0.00000000  0.80000000  0.21911674
   0.80000373  0.19999492  0.65734688
   0.93333333  0.06666667  0.16985794
   0.73332601  0.26667171  0.60908333
   0.73333351  0.26666666  0.70561361
   0.93333102  0.66666462  0.70561488
   0.93332588  0.66666133  0.60908525
   0.73333333  0.26666667  0.16985794
   0.73333333  0.26666667  0.26837554
   0.93333333  0.46666667  0.26837554
   0.73333215  0.06666793  0.60908698
   0.73333127  0.06666559  0.70561467
   0.93333388  0.06666757  0.70561371
   0.93333333  0.86666667  0.16985794
   0.73333333  0.06666667  0.16985794
   0.93333109  0.06666513  0.60908687
   0.73333333  0.06666667  0.26837554
   0.93333333  0.26666667  0.16985794
   0.93333418  0.26666711  0.70561443
   0.93333333  0.86666667  0.26837554
   0.73333333  0.46666667  0.26837554
   0.73333333  0.46666667  0.16985794
   0.73333333  0.86666667  0.16985794
   0.73333152  0.86666573  0.70561398
   0.73333333  0.86666667  0.26837554
   0.93333333  0.46666667  0.16985794
   0.73333334  0.86666215  0.60908445
   0.73330728  0.66663807  0.60906827
   0.73333293  0.66666632  0.70561419
   0.93333274  0.46666672  0.70561520
   0.73333333  0.66666667  0.16985794
   0.93332548  0.46666565  0.60908519
   0.73333333  0.66666667  0.26837554
   0.93332950  0.26666572  0.60908665
   0.93333333  0.26666667  0.26837554
   0.73330210  0.46666018  0.60906832
   0.73333277  0.46666693  0.70561346
   0.93333333  0.66666667  0.26837554
   0.93333333  0.06666667  0.26837554
   0.93333333  0.66666667  0.16985794
   0.53333840  0.86666948  0.60908615
   0.53333305  0.06666717  0.70561424
   0.53333333  0.86666667  0.16985794
   0.33333333  0.26666667  0.16985794
   0.33333333  0.26666667  0.26837554
   0.33334035  0.06667894  0.60907962
   0.33333714  0.06667041  0.70561451
   0.33333333  0.06666667  0.16985794
   0.33333333  0.06666667  0.26837554
   0.13333230  0.86666618  0.60908733
   0.13333356  0.86666768  0.70561461
   0.13333333  0.86666667  0.16985794
   0.13333333  0.86666667  0.26837554
   0.13333185  0.66666718  0.60908812
   0.13333242  0.66666626  0.70561418
   0.33333341  0.26666799  0.70561701
   0.13333333  0.66666667  0.16985794
   0.13333108  0.46666717  0.60908521
   0.13333223  0.46666435  0.70561386
   0.13333333  0.46666667  0.16985794
   0.13333333  0.46666667  0.26837554
   0.13334695  0.26667038  0.60907748
   0.13333724  0.26667049  0.70561303
   0.13333333  0.26666667  0.16985794
   0.13333333  0.26666667  0.26837554
   0.13333979  0.06666991  0.60908364
   0.13333402  0.06666600  0.70561331
   0.13333333  0.06666667  0.16985794
   0.13333333  0.06666667  0.26837554
   0.13333333  0.66666667  0.26837554
   0.33335408  0.26669634  0.60904627
   0.33333333  0.46666667  0.26837554
   0.33333333  0.46666667  0.16985794
   0.53333333  0.86666667  0.26837554
   0.53333498  0.66663586  0.60905694
   0.53332731  0.66666169  0.70561333
   0.53333333  0.66666667  0.16985794
   0.53333333  0.66666667  0.26837554
   0.53335523  0.46665698  0.60904777
   0.53333290  0.46666726  0.70562084
   0.53333333  0.46666667  0.16985794
   0.53333333  0.46666667  0.26837554
   0.53333639  0.26669586  0.60905616
   0.53332917  0.26666505  0.70561262
   0.53333333  0.26666667  0.16985794
   0.53333333  0.26666667  0.26837554
   0.53333668  0.06667764  0.60908488
   0.93333332  0.86666631  0.70561422
   0.53333333  0.06666667  0.16985794
   0.53333333  0.06666667  0.26837554
   0.33333077  0.86666718  0.60908747
   0.33333302  0.86666846  0.70561466
   0.33333333  0.86666667  0.16985794
   0.33333333  0.86666667  0.26837554
   0.33333123  0.66666872  0.60908195
   0.33333598  0.66666501  0.70561710
   0.33333333  0.66666667  0.16985794
   0.33333333  0.66666667  0.26837554
   0.33335360  0.46664573  0.60905133
   0.33333657  0.46666656  0.70561657
   0.53333703  0.86666805  0.70561445
   0.93332911  0.86666223  0.60908595
Direct configuration=     4
   0.58734627  0.49687872  0.47527424
   0.55537401  0.39610736  0.47200110
   0.51170194  0.50753075  0.49365642
   0.43148262  0.41196674  0.50217634
   0.45901780  0.34267399  0.48854267
   0.46216966  0.40967038  0.37374847
   0.31571645  0.36364573  0.40677689
   0.37556684  0.32768970  0.39012739
   0.36449903  0.46603726  0.40057767
   0.45432575  0.49475498  0.38041677
   0.45322892  0.42399952  0.43813187
   0.41521336  0.26405971  0.49089282
   0.35753959  0.25209031  0.38907043
   0.52170748  0.40747541  0.35821735
   0.24600519  0.32049689  0.42209766
   0.33959931  0.51460659  0.41147262
   0.59583588  0.36498941  0.45797071
   0.65598282  0.55560205  0.46369239
   0.51426402  0.57604481  0.49984133
   0.36375333  0.39530206  0.51733865
   0.50881575  0.56893035  0.37257510
   0.59998962  0.59996516  0.65734431
   0.20000000  0.80000000  0.21911674
   0.20001092  0.60000149  0.65734485
   0.60000000  0.80000000  0.21911674
   0.20000000  0.60000000  0.21911674
   0.60000216  0.80001298  0.65735094
   0.20000000  0.40000000  0.21911674
   0.80000000  0.00000000  0.21911674
   0.20001617  0.20000257  0.65735926
   0.80000165  0.00000772  0.65734933
   0.20000000  0.20000000  0.21911674
   0.19999950  0.80000188  0.65734658
   0.20000004  0.40000678  0.65735363
   0.60000000  0.60000000  0.21911674
   0.40000000  0.60000000  0.21911674
   0.39998009 -0.00001008  0.65734635
   0.59997130  0.40000599  0.65734855
   0.40000000  0.20000000  0.21911674
   0.60000000  0.40000000  0.21911674
   0.40000709  0.20001544  0.65734302
   0.40000000  0.40000000  0.21911674
   0.59999784  0.20000166  0.65735185
   0.40003613  0.39999858  0.65731413
   0.60000000  0.20000000  0.21911674
   0.39999893  0.79999640  0.65734529
   0.39999803  0.60000826  0.65734564
   0.60001780 -0.00000222  0.65734647
   0.40000000  0.80000000  0.21911674
   0.60000000  0.00000000  0.21911674
   0.40000000  0.00000000  0.21911674
   0.80000000  0.20000000  0.21911674
   0.20000168  0.00000086  0.65734848
   0.20000000  0.00000000  0.21911674
   0.00000000  0.00000000  0.21911674
   0.79999907  0.79999550  0.65735266
  -0.00000329  0.00000141  0.65733919
   0.80000000  0.80000000  0.21911674
   0.00000000  0.20000000  0.21911674
  -0.00002019  0.19999064  0.65735030
   0.80000243  0.60000382  0.65734337
   0.00000000  0.40000000  0.21911674
  -0.00000040  0.39997786  0.65734698
   0.00000000  0.60000000  0.21911674
   0.79999520  0.39999969  0.65734907
   0.00000680  0.60002563  0.65734714
   0.80000000  0.60000000  0.21911674
   0.80000000  0.40000000  0.21911674
   0.00000145  0.79999712  0.65734946
   0.00000000  0.80000000  0.21911674
   0.80000377  0.19999488  0.65734685
   0.93333333  0.06666667  0.16985794
   0.73332595  0.26667176  0.60909254
   0.73333351  0.26666666  0.70560437
   0.93333100  0.66666460  0.70560564
   0.93332582  0.66666128  0.60909448
   0.73333333  0.26666667  0.16985794
   0.73333333  0.26666667  0.26837554
   0.93333333  0.46666667  0.26837554
   0.73333214  0.06666794  0.60909623
   0.73333125  0.06666558  0.70560543
   0.93333388  0.06666757  0.70560446
   0.93333333  0.86666667  0.16985794
   0.73333333  0.06666667  0.16985794
   0.93333107  0.06666512  0.60909612
   0.73333333  0.06666667  0.26837554
   0.93333333  0.26666667  0.16985794
   0.93333419  0.26666712  0.70560519
   0.93333333  0.86666667  0.26837554
   0.73333333  0.46666667  0.26837554
   0.73333333  0.46666667  0.16985794
   0.73333333  0.86666667  0.16985794
   0.73333150  0.86666572  0.70560474
   0.73333333  0.86666667  0.26837554
   0.93333333  0.46666667  0.16985794
   0.73333334  0.86666211  0.60909367
   0.73330703  0.66663780  0.60907734
   0.73333293  0.66666632  0.70560495
   0.93333273  0.46666672  0.70560597
   0.73333333  0.66666667  0.16985794
   0.93332541  0.46666564  0.60909442
   0.73333333  0.66666667  0.26837554
   0.93332947  0.26666572  0.60909589
   0.93333333  0.26666667  0.26837554
   0.73330181  0.46666012  0.60907740
   0.73333276  0.46666693  0.70560421
   0.93333333  0.66666667  0.26837554
   0.93333333  0.06666667  0.26837554
   0.93333333  0.66666667  0.16985794
   0.53333844  0.86666951  0.60909539
   0.53333304  0.06666717  0.70560500
   0.53333333  0.86666667  0.16985794
   0.33333333  0.26666667  0.16985794
   0.33333333  0.26666667  0.26837554
   0.33334041  0.06667905  0.60908880
   0.33333717  0.06667045  0.70560527
   0.33333333  0.06666667  0.16985794
   0.33333333  0.06666667  0.26837554
   0.13333229  0.86666618  0.60909658
   0.13333356  0.86666769  0.70560537
   0.13333333  0.86666667  0.16985794
   0.13333333  0.86666667  0.26837554
   0.13333184  0.66666718  0.60909738
   0.13333241  0.66666625  0.70560493
   0.33333341  0.26666801  0.70560780
   0.13333333  0.66666667  0.16985794
   0.13333106  0.46666718  0.60909444
   0.13333222  0.46666433  0.70560462
   0.13333333  0.46666667  0.16985794
   0.13333333  0.46666667  0.26837554
   0.13334708  0.26667041  0.60908664
   0.13333728  0.26667052  0.70560378
   0.13333333  0.26666667  0.16985794
   0.13333333  0.26666667  0.26837554
   0.13333985  0.06666994  0.60909286
   0.13333403  0.06666600  0.70560406
   0.13333333  0.06666667  0.16985794
   0.13333333  0.06666667  0.26837554
   0.13333333  0.66666667  0.26837554
   0.33335427  0.26669662  0.60905514
   0.33333333  0.46666667  0.26837554
   0.33333333  0.46666667  0.16985794
   0.53333333  0.86666667  0.26837554
   0.53333500  0.66663558  0.60906591
   0.53332726  0.66666165  0.70560408
   0.53333333  0.66666667  0.16985794
   0.53333333  0.66666667  0.26837554
   0.53335544  0.46665689  0.60905666
   0.53333290  0.46666727  0.70561166
   0.53333333  0.46666667  0.16985794
   0.53333333  0.46666667  0.26837554
   0.53333642  0.26669613  0.60906512
   0.53332913  0.26666503  0.70560336
   0.53333333  0.26666667  0.16985794
   0.53333333  0.26666667  0.26837554
   0.53333671  0.06667774  0.60909411
   0.93333332  0.86666631  0.70560498
   0.53333333  0.06666667  0.16985794
   0.53333333  0.06666667  0.26837554
   0.33333074  0.86666718  0.60909672
   0.33333301  0.86666847  0.70560542
   0.33333333  0.86666667  0.16985794
   0.33333333  0.86666667  0.26837554
   0.33333121  0.66666874  0.60909115
   0.33333600  0.66666499  0.70560789
   0.33333333  0.66666667  0.16985794
   0.33333333  0.66666667  0.26837554
   0.33335379  0.46664553  0.60906024
   0.33333660  0.46666656  0.70560735
   0.53333707  0.86666806  0.70560521
   0.93332907  0.86666219  0.60909519
Direct configuration=     5
   0.58749097  0.49694357  0.47528291
   0.55542110  0.39609714  0.47202186
   0.51170607  0.50765402  0.49371072
   0.43124291  0.41192326  0.50226553
   0.45901945  0.34255958  0.48855612
   0.46234644  0.40975873  0.37368114
   0.31545351  0.36348921  0.40680786
   0.37541410  0.32742036  0.39011910
   0.36441997  0.46608140  0.40055058
   0.45444186  0.49484832  0.38035786
   0.45325864  0.42399799  0.43815636
   0.41522765  0.26408422  0.49090221
   0.35755442  0.25217130  0.38907034
   0.52164885  0.40744049  0.35823431
   0.24611469  0.32058473  0.42207283
   0.33960570  0.51464389  0.41145944
   0.59584040  0.36501039  0.45797446
   0.65595037  0.55559363  0.46370856
   0.51423294  0.57598638  0.49986308
   0.36387358  0.39532270  0.51733288
   0.50880631  0.56889072  0.37254442
   0.59998239  0.59995410  0.65733277
   0.20000000  0.80000000  0.21911674
   0.20000616  0.60000210  0.65734646
   0.60000000  0.80000000  0.21911674
   0.20000000  0.60000000  0.21911674
   0.59999700  0.79998559  0.65734044
   0.20000000  0.40000000  0.21911674
   0.80000000  0.00000000  0.21911674
   0.20003281  0.20001748  0.65734389
   0.80000033  0.00000216  0.65734904
   0.20000000  0.20000000  0.21911674
   0.20000078  0.80000107  0.65734963
   0.20001985  0.40000651  0.65734044
   0.60000000  0.60000000  0.21911674
   0.40000000  0.60000000  0.21911674
   0.39998965 -0.00000069  0.65734525
   0.59997349  0.40000836  0.65733750
   0.40000000  0.20000000  0.21911674
   0.60000000  0.40000000  0.21911674
   0.40001062  0.20002935  0.65732543
   0.40000000  0.40000000  0.21911674
   0.59999120  0.20001815  0.65734261
   0.40004243  0.40000356  0.65730833
   0.60000000  0.20000000  0.21911674
   0.39999929  0.79999747  0.65734689
   0.40000145  0.59999074  0.65732919
   0.60001007  0.00000073  0.65734702
   0.40000000  0.80000000  0.21911674
   0.60000000  0.00000000  0.21911674
   0.40000000  0.00000000  0.21911674
   0.80000000  0.20000000  0.21911674
   0.20000464  0.00000489  0.65734631
   0.20000000  0.00000000  0.21911674
   0.00000000  0.00000000  0.21911674
   0.79998692  0.79998140  0.65734563
   0.00000037  0.00000222  0.65734102
   0.80000000  0.80000000  0.21911674
   0.00000000  0.20000000  0.21911674
  -0.00000453  0.19999730  0.65734592
   0.79999026  0.59999622  0.65733688
   0.00000000  0.40000000  0.21911674
  -0.00000104  0.39998818  0.65734692
   0.00000000  0.60000000  0.21911674
   0.79998334  0.40000279  0.65734366
   0.00000082  0.60001160  0.65734859
   0.80000000  0.60000000  0.21911674
   0.80000000  0.40000000  0.21911674
  -0.00000307  0.79999700  0.65734981
   0.00000000  0.80000000  0.21911674
   0.79999976  0.19999809  0.65734717
   0.93333333  0.06666667  0.16985794
   0.73332112  0.26667370  0.60909566
   0.73333384  0.26666691  0.70560014
   0.93332631  0.66666564  0.70560230
   0.93332339  0.66666469  0.60909369
   0.73333333  0.26666667  0.16985794
   0.73333333  0.26666667  0.26837554
   0.93333333  0.46666667  0.26837554
   0.73333760  0.06667036  0.60909562
   0.73333590  0.06666861  0.70560343
   0.93333364  0.06666448  0.70560081
   0.93333333  0.86666667  0.16985794
   0.73333333  0.06666667  0.16985794
   0.93332694  0.06666624  0.60909592
   0.73333333  0.06666667  0.26837554
   0.93333333  0.26666667  0.16985794
   0.93332891  0.26666048  0.70560391
   0.93333333  0.86666667  0.26837554
   0.73333333  0.46666667  0.26837554
   0.73333333  0.46666667  0.16985794
   0.73333333  0.86666667  0.16985794
   0.73333088  0.86666691  0.70560137
   0.73333333  0.86666667  0.26837554
   0.93333333  0.46666667  0.16985794
   0.73333215  0.86665953  0.60909751