       N       E                     dE             d eps       ncg     rms          rms(c)
DAV:   1     0.769726394642E+04    0.76973E+04   -0.36435E+05  1188   0.114E+03
DAV:   2    -0.233417704038E+03   -0.79307E+04   -0.77105E+04  1548   0.271E+02
DAV:   3    -0.126023418703E+04   -0.10268E+04   -0.10129E+04  1368   0.104E+02
DAV:   4    -0.132093389165E+04   -0.60700E+02   -0.60363E+02  1776   0.309E+01
DAV:   5    -0.132312133211E+04   -0.21874E+01   -0.21756E+01  1752   0.489E+00    0.169E+02
DAV:   6    -0.127592355774E+04    0.47198E+02   -0.96729E+02  1584   0.276E+01    0.921E+01
DAV:   7    -0.129201496317E+04   -0.16091E+02   -0.13436E+03  1776   0.485E+01    0.537E+01
DAV:   8    -0.123612533861E+04    0.55890E+02   -0.95848E+01  1452   0.857E+00    0.318E+01
DAV:   9    -0.125053485556E+04   -0.14410E+02   -0.24552E+02  1788   0.101E+01    0.656E+01
DAV:  10    -0.122561076062E+04    0.24924E+02   -0.83051E+01  1668   0.142E+01    0.244E+01
DAV:  11    -0.122385637899E+04    0.17544E+01   -0.43842E+01  1704   0.722E+00    0.190E+01
DAV:  12    -0.122415528100E+04   -0.29890E+00   -0.10683E+01  1608   0.147E+00    0.166E+01
DAV:  13    -0.122398952841E+04    0.16575E+00   -0.76729E-01  1752   0.540E-01    0.166E+01
DAV:  14    -0.122336607720E+04    0.62345E+00   -0.74037E-01  1536   0.758E-01    0.164E+01
DAV:  15    -0.122325042209E+04    0.11566E+00   -0.96775E+00  1716   0.186E+00    0.162E+01
DAV:  16    -0.122342134883E+04   -0.17093E+00   -0.11338E+00  1560   0.691E-01    0.156E+01
DAV:  17    -0.122342676062E+04   -0.54118E-02   -0.70546E-01  1752   0.349E-01    0.148E+01
DAV:  18    -0.122337518074E+04    0.51580E-01   -0.54149E-01  1632   0.322E-01    0.136E+01
DAV:  19    -0.122340599224E+04   -0.30812E-01   -0.45615E-01  1572   0.386E-01    0.121E+01
DAV:  20    -0.122337342649E+04    0.32566E-01   -0.32358E-01  1596   0.248E-01    0.107E+01
DAV:  21    -0.122334166317E+04    0.31763E-01   -0.20896E-01  1728   0.162E-01    0.101E+01
DAV:  22    -0.122325864964E+04    0.83014E-01   -0.20620E-01  1704   0.220E-01    0.852E+00
DAV:  23    -0.122318450811E+04    0.74142E-01   -0.15902E-01  1728   0.240E-01    0.675E+00
DAV:  24    -0.122316142594E+04    0.23082E-01   -0.65800E-02  1644   0.116E-01    0.605E+00
DAV:  25    -0.122310415282E+04    0.57273E-01   -0.79934E-02  1656   0.174E-01    0.482E+00
DAV:  26    -0.122305065165E+04    0.53501E-01   -0.46275E-02  1668   0.159E-01    0.410E+00
DAV:  27    -0.122300724573E+04    0.43406E-01   -0.26638E-02  1668   0.147E-01    0.357E+00
DAV:  28    -0.122298330399E+04    0.23942E-01   -0.11454E-02  1596   0.872E-02    0.343E+00
DAV:  29    -0.122293421470E+04    0.49089E-01   -0.27853E-02  1596   0.151E-01    0.284E+00
DAV:  30    -0.122286942183E+04    0.64793E-01   -0.37506E-02  1668   0.235E-01    0.224E+00
DAV:  31    -0.122284881828E+04    0.20604E-01   -0.18596E-02  1608   0.123E-01    0.196E+00
DAV:  32    -0.122282338844E+04    0.25430E-01   -0.22888E-02  1584   0.148E-01    0.132E+00
DAV:  33    -0.122280461027E+04    0.18778E-01   -0.11259E-02  1596   0.157E-01    0.921E-01
DAV:  34    -0.122280502821E+04   -0.41795E-03   -0.56622E-03  1536   0.666E-02    0.834E-01
DAV:  35    -0.122280615316E+04   -0.11249E-02   -0.85402E-04  1320   0.272E-02    0.981E-01
DAV:  36    -0.122281445519E+04   -0.83020E-02   -0.13153E-03  1200   0.385E-02    0.195E+00
DAV:  37    -0.122281002770E+04    0.44275E-02   -0.62714E-04  1140   0.261E-02    0.124E+00
DAV:  38    -0.122287586214E+04   -0.65834E-01   -0.40350E-03  1464   0.921E-02    0.573E+00
DAV:  39    -0.122293483127E+04   -0.58969E-01   -0.13514E-02  1524   0.912E-02    0.739E+00
DAV:  40    -0.122294937695E+04   -0.14546E-01   -0.36261E-03  1296   0.318E-02    0.768E+00
DAV:  41    -0.122295393619E+04   -0.45592E-02   -0.24542E-04  1056   0.141E-02    0.785E+00
DAV:  42    -0.122292419952E+04    0.29737E-01   -0.15853E-03  1104   0.276E-02    0.682E+00
DAV:  43    -0.122295756369E+04   -0.33364E-01   -0.16531E-03  1020   0.229E-02    0.826E+00
DAV:  44    -0.122295751439E+04    0.49304E-04   -0.72265E-04   960   0.163E-02
   1 F= -.12533931E+04 E0= -.12532287E+04  d E =-.125339E+04
       N       E                     dE             d eps       ncg     rms          rms(c)
DAV:   1    -0.122350106023E+04   -0.54350E+00   -0.87251E+01  1224   0.753E+00    0.175E+01
DAV:   2    -0.127435171813E+04   -0.50851E+02   -0.22204E+02  1728   0.118E+01    0.138E+02
DAV:   3    -0.126545640612E+04    0.88953E+01   -0.94816E+01  1704   0.704E+00    0.895E+01
DAV:   4    -0.122434849803E+04    0.41108E+02   -0.45464E+01  1728   0.142E+01    0.207E+01
DAV:   5    -0.122349085539E+04    0.85764E+00   -0.26696E+01  1704   0.278E+00    0.661E+00
DAV:   6    -0.122357069357E+04   -0.79838E-01   -0.44005E+00  1560   0.643E-01    0.609E+00
DAV:   7    -0.122345008406E+04    0.12061E+00   -0.16113E+00  1788   0.301E-01    0.493E+00
DAV:   8    -0.122350103554E+04   -0.50951E-01   -0.24860E+00  1620   0.380E-01    0.517E+00
DAV:   9    -0.122332388690E+04    0.17715E+00   -0.14391E-01  1680   0.341E-01    0.325E+00
DAV:  10    -0.122329746214E+04    0.26425E-01   -0.28415E-02  1740   0.144E-01    0.363E+00
DAV:  11    -0.122324435178E+04    0.53110E-01   -0.42260E-02  1704   0.136E-01    0.247E+00
DAV:  12    -0.122323811411E+04    0.62377E-02   -0.13981E-02  1548   0.650E-02    0.283E+00
DAV:  13    -0.122323726514E+04    0.84896E-03   -0.43201E-03  1212   0.328E-02    0.255E+00
DAV:  14    -0.122324027488E+04   -0.30097E-02   -0.26148E-03   972   0.166E-02    0.279E+00
DAV:  15    -0.122323709771E+04    0.31772E-02   -0.13964E-03   852   0.123E-02    0.261E+00
DAV:  16    -0.122323834161E+04   -0.12439E-02   -0.82726E-04   840   0.874E-03    0.272E+00
DAV:  17    -0.122323280226E+04    0.55393E-02   -0.60677E-04   900   0.142E-02    0.258E+00
DAV:  18    -0.122321452813E+04    0.18274E-01   -0.32277E-03  1320   0.582E-02    0.242E+00
DAV:  19    -0.122315341373E+04    0.61114E-01   -0.41219E-02  1584   0.194E-01    0.168E+00
DAV:  20    -0.122311510431E+04    0.38309E-01   -0.27833E-02  1644   0.170E-01    0.139E+00
DAV:  21    -0.122307995198E+04    0.35152E-01   -0.58888E-02  1644   0.215E-01    0.162E+00
DAV:  22    -0.122308283351E+04   -0.28815E-02   -0.18490E-02  1644   0.205E-01    0.306E+00
DAV:  23    -0.122307813391E+04    0.46996E-02   -0.16977E-02  1476   0.134E-01    0.129E+00
DAV:  24    -0.122308085551E+04   -0.27216E-02   -0.45964E-02  1488   0.114E-01    0.286E+00
DAV:  25    -0.122307171575E+04    0.91398E-02   -0.46394E-02  1320   0.766E-02    0.113E+00
DAV:  26    -0.122307214183E+04   -0.42608E-03   -0.50398E-02  1248   0.528E-02    0.208E+00
DAV:  27    -0.122306632971E+04    0.58121E-02   -0.51135E-02  1128   0.393E-02    0.978E-01
DAV:  28    -0.122306782973E+04   -0.15000E-02   -0.22063E-02  1164   0.302E-02    0.156E+00
DAV:  29    -0.122306484882E+04    0.29809E-02   -0.17766E-02   948   0.209E-02    0.958E-01
DAV:  30    -0.122306655238E+04   -0.17036E-02   -0.76480E-03   852   0.190E-02    0.135E+00
DAV:  31    -0.122306457478E+04    0.19776E-02   -0.55820E-03   876   0.185E-02    0.935E-01
DAV:  32    -0.122306584661E+04   -0.12718E-02   -0.20741E-03   792   0.133E-02    0.119E+00
DAV:  33    -0.122306536985E+04    0.47676E-03   -0.23330E-03   816   0.146E-02    0.898E-01
DAV:  34    -0.122306593090E+04   -0.56105E-03   -0.98586E-04   756   0.125E-02    0.102E+00
DAV:  35    -0.122306547068E+04    0.46022E-03   -0.73319E-04   696   0.781E-03    0.835E-01
DAV:  36    -0.122306603413E+04   -0.56346E-03   -0.21223E-04   720   0.885E-03    0.893E-01
DAV:  37    -0.122306570410E+04    0.33003E-03   -0.16284E-04   732   0.837E-03    0.785E-01
DAV:  38    -0.122306592387E+04   -0.21976E-03   -0.61370E-05   684   0.598E-03    0.820E-01
DAV:  39    -0.122306580262E+04    0.12125E-03   -0.30547E-05   672   0.425E-03    0.786E-01
DAV:  40    -0.122306589810E+04   -0.95480E-04   -0.92678E-06   648   0.308E-03
   2 F= -.12535489E+04 E0= -.12534834E+04  d E =-.155788E+00
       N       E                     dE             d eps       ncg     rms          rms(c)
DAV:   1    -0.122299788727E+04    0.67915E-01   -0.21821E+01  1224   0.378E+00    0.270E+00
DAV:   2    -0.122370568127E+04   -0.70779E+00   -0.40102E+00  1440   0.133E+00    0.148E+01
DAV:   3    -0.122320756926E+04    0.49811E+00   -0.63307E-01  1620   0.601E-01    0.341E+00
DAV:   4    -0.122317922021E+04    0.28349E-01   -0.22053E+00  1572   0.186E-01    0.410E+00
DAV:   5    -0.122311943475E+04    0.59785E-01   -0.15373E+00  1584   0.150E-01    0.212E+00
DAV:   6    -0.122311717142E+04    0.22633E-02   -0.12041E+00  1668   0.261E-01    0.316E+00
DAV:   7    -0.122308164948E+04    0.35522E-01   -0.72445E-01  1536   0.143E-01    0.904E-01
DAV:   8    -0.122306700850E+04    0.14641E-01   -0.23505E-01  1656   0.125E-01    0.157E+00
DAV:   9    -0.122305815758E+04    0.88509E-02   -0.16616E-01  1536   0.832E-02    0.523E-01
DAV:  10    -0.122305577122E+04    0.23864E-02   -0.51004E-02  1308   0.589E-02    0.818E-01
DAV:  11    -0.122305376496E+04    0.20063E-02   -0.35812E-02  1044   0.375E-02    0.438E-01
DAV:  12    -0.122305292052E+04    0.84444E-03   -0.20636E-02   960   0.297E-02    0.424E-01
DAV:  13    -0.122305246519E+04    0.45533E-03   -0.13168E-02   804   0.201E-02    0.319E-01
DAV:  14    -0.122305219160E+04    0.27359E-03   -0.62758E-03   744   0.171E-02    0.221E-01
DAV:  15    -0.122305212670E+04    0.64903E-04   -0.42646E-03   696   0.119E-02    0.240E-01
DAV:  16    -0.122305197455E+04    0.15215E-03   -0.16599E-03   720   0.114E-02    0.804E-02
DAV:  17    -0.122305203175E+04   -0.57200E-04   -0.81781E-04   672   0.733E-03
   3 F= -.12535104E+04 E0= -.12534434E+04  d E =-.117332E+00
       N       E                     dE             d eps       ncg     rms          rms(c)
DAV:   1    -0.122307116194E+04   -0.19187E-01   -0.97187E+00  1212   0.255E+00    0.281E+00
DAV:   2    -0.122394902660E+04   -0.87786E+00   -0.58880E+00  1608   0.185E+00    0.697E+00
DAV:   3    -0.122319421546E+04    0.75481E+00   -0.39368E+00  1716   0.129E+00    0.294E+00
DAV:   4    -0.122315885855E+04    0.35357E-01   -0.76231E-01  1764   0.269E-01    0.245E+00
DAV:   5    -0.122310992188E+04    0.48937E-01   -0.37623E-01  1668   0.316E-01    0.154E+00
DAV:   6    -0.122310611766E+04    0.38042E-02   -0.26865E-01  1608   0.177E-01    0.157E+00
DAV:   7    -0.122310283652E+04    0.32811E-02   -0.16805E-01  1620   0.108E-01    0.158E+00
DAV:   8    -0.122309677688E+04    0.60596E-02   -0.12323E-01  1440   0.838E-02    0.108E+00
DAV:   9    -0.122309758317E+04   -0.80629E-03   -0.82335E-02  1536   0.973E-02    0.160E+00
DAV:  10    -0.122309073865E+04    0.68445E-02   -0.39362E-02  1320   0.655E-02    0.525E-01
DAV:  11    -0.122308863784E+04    0.21008E-02   -0.13364E-02   984   0.345E-02    0.430E-01
DAV:  12    -0.122308799453E+04    0.64330E-03   -0.87151E-03   780   0.233E-02    0.258E-01
DAV:  13    -0.122308779147E+04    0.20307E-03   -0.52324E-03   720   0.169E-02    0.299E-01
DAV:  14    -0.122308751313E+04    0.27833E-03   -0.40074E-03   720   0.144E-02    0.844E-02
DAV:  15    -0.122308759328E+04   -0.80145E-04   -0.20252E-03   708   0.115E-02    0.221E-01
DAV:  16    -0.122308742781E+04    0.16547E-03   -0.12587E-03   684   0.926E-03    0.651E-02
DAV:  17    -0.122308748025E+04   -0.52438E-04   -0.55774E-04   660   0.632E-03
   4 F= -.12535621E+04 E0= -.12534954E+04  d E =-.168987E+00
       N       E                     dE             d eps       ncg     rms          rms(c)
DAV:   1    -0.122261890252E+04    0.46853E+00   -0.67499E+01  1212   0.655E+00    0.502E+00
DAV:   2    -0.122285033942E+04   -0.23144E+00   -0.31582E+00  1356   0.162E+00    0.419E+00
DAV:   3    -0.122296922115E+04   -0.11888E+00   -0.13872E+00  1584   0.605E-01    0.436E+00
DAV:   4    -0.122297952426E+04   -0.10303E-01   -0.20203E+00  1680   0.570E-01    0.892E+00
DAV:   5    -0.122293628642E+04    0.43238E-01   -0.95777E-01  1692   0.520E-01    0.261E+00
DAV:   6    -0.122300882267E+04   -0.72536E-01   -0.93124E-01  1488   0.331E-01    0.417E+00
DAV:   7    -0.122297321845E+04    0.35604E-01   -0.95492E-01  1584   0.162E-01    0.199E+00
DAV:   8    -0.122292907037E+04    0.44148E-01   -0.20898E-01  1572   0.119E-01    0.208E+00
DAV:   9    -0.122291261428E+04    0.16456E-01   -0.15465E-01  1584   0.830E-02    0.158E+00
DAV:  10    -0.122289080901E+04    0.21805E-01   -0.57748E-02  1524   0.760E-02    0.146E+00
DAV:  11    -0.122287672233E+04    0.14087E-01   -0.41708E-02  1404   0.642E-02    0.130E+00
DAV:  12    -0.122285896494E+04    0.17757E-01   -0.22647E-02  1548   0.696E-02    0.114E+00
DAV:  13    -0.122284496553E+04    0.13999E-01   -0.15463E-02  1524   0.636E-02    0.105E+00
DAV:  14    -0.122283581528E+04    0.91503E-02   -0.62924E-03  1488   0.475E-02    0.949E-01
DAV:  15    -0.122281844479E+04    0.17370E-01   -0.79718E-03  1476   0.871E-02    0.864E-01
DAV:  16    -0.122280760668E+04    0.10838E-01   -0.50242E-03  1500   0.677E-02    0.721E-01
DAV:  17    -0.122279513460E+04    0.12472E-01   -0.52433E-03  1572   0.914E-02    0.454E-01
DAV:  18    -0.122279369125E+04    0.14433E-02   -0.32675E-03  1380   0.412E-02    0.214E-01
DAV:  19    -0.122279628401E+04   -0.25928E-02   -0.10705E-03  1260   0.382E-02    0.534E-01
DAV:  20    -0.122279391166E+04    0.23723E-02   -0.98587E-04  1200   0.497E-02    0.353E-01
DAV:  21    -0.122279582872E+04   -0.19171E-02   -0.10348E-03  1116   0.464E-02    0.518E-01
DAV:  22    -0.122279531924E+04    0.50948E-03   -0.44268E-04   936   0.171E-02    0.420E-01
DAV:  23    -0.122279397779E+04    0.13415E-02   -0.24655E-04   912   0.243E-02    0.211E-01
DAV:  24    -0.122279384644E+04    0.13134E-03   -0.13460E-04   876   0.100E-02    0.175E-01
DAV:  25    -0.122279392437E+04   -0.77925E-04   -0.50502E-05   708   0.677E-03
   5 F= -.12533070E+04 E0= -.12532390E+04  d E =0.255063E+00
       N       E                     dE             d eps       ncg     rms          rms(c)
DAV:   1    -0.122310516077E+04   -0.31131E+00   -0.28474E+01  1200   0.434E+00    0.286E+00
DAV:   2    -0.122321507231E+04   -0.10991E+00   -0.12328E+00  1284   0.104E+00    0.286E+00
DAV:   3    -0.122343166827E+04   -0.21660E+00   -0.12730E+00  1632   0.497E-01    0.989E+00
DAV:   4    -0.122327626928E+04    0.15540E+00   -0.67080E-01  1632   0.394E-01    0.211E+00
DAV:   5    -0.122323662354E+04    0.39646E-01   -0.29688E-01  1536   0.206E-01    0.226E+00
DAV:   6    -0.122323196235E+04    0.46612E-02   -0.11297E-01  1524   0.873E-02    0.153E+00
DAV:   7    -0.122324131522E+04   -0.93529E-02   -0.14681E-01  1572   0.109E-01    0.238E+00
DAV:   8    -0.122322601516E+04    0.15300E-01   -0.19458E-02  1608   0.948E-02    0.157E+00
DAV:   9    -0.122323038176E+04   -0.43666E-02   -0.97380E-03  1440   0.475E-02    0.240E+00
DAV:  10    -0.122322673462E+04    0.36471E-02   -0.53061E-03  1104   0.378E-02    0.204E+00
DAV:  11    -0.122322945377E+04   -0.27192E-02   -0.47015E-03  1176   0.396E-02    0.257E+00
DAV:  12    -0.122323163105E+04   -0.21773E-02   -0.49077E-03  1332   0.485E-02    0.267E+00
DAV:  13    -0.122323477705E+04   -0.31460E-02   -0.22001E-03   972   0.232E-02    0.287E+00
DAV:  14    -0.122323997543E+04   -0.51984E-02   -0.19541E-03   852   0.176E-02    0.303E+00
DAV:  15    -0.122323341255E+04    0.65629E-02   -0.10709E-03   768   0.147E-02    0.270E+00
DAV:  16    -0.122322892502E+04    0.44875E-02   -0.11997E-03   876   0.206E-02    0.257E+00
DAV:  17    -0.122324375178E+04   -0.14827E-01   -0.10788E-03   816   0.173E-02    0.315E+00
DAV:  18    -0.122323012356E+04    0.13628E-01   -0.39499E-04   804   0.129E-02    0.248E+00
DAV:  19    -0.122321933332E+04    0.10790E-01   -0.22842E-03  1152   0.254E-02    0.246E+00
DAV:  20    -0.122320915295E+04    0.10180E-01   -0.10121E-03  1248   0.354E-02    0.211E+00
DAV:  21    -0.122320189970E+04    0.72532E-02   -0.10077E-03  1116   0.249E-02    0.189E+00
DAV:  22    -0.122319476110E+04    0.71386E-02   -0.68963E-04   984   0.211E-02    0.149E+00
DAV:  23    -0.122318694985E+04    0.78112E-02   -0.58430E-03  1284   0.590E-02    0.117E+00
DAV:  24    -0.122318498616E+04    0.19637E-02   -0.92792E-04  1176   0.256E-02    0.945E-01
DAV:  25    -0.122318243795E+04    0.25482E-02   -0.58110E-04   924   0.193E-02    0.596E-01
DAV:  26    -0.122318273372E+04   -0.29577E-03   -0.56402E-04   984   0.300E-02    0.620E-01
DAV:  27    -0.122318339430E+04   -0.66058E-03   -0.24462E-04   744   0.109E-02    0.720E-01
DAV:  28    -0.122318231876E+04    0.10755E-02   -0.10010E-04   744   0.155E-02    0.554E-01
DAV:  29    -0.122318133357E+04    0.98519E-03   -0.31376E-04   828   0.110E-02    0.314E-01
DAV:  30    -0.122318127851E+04    0.55067E-04   -0.17463E-04   768   0.962E-03
   6 F= -.12536688E+04 E0= -.12536025E+04  d E =-.106737E+00
       N       E                     dE             d eps       ncg     rms          rms(c)
DAV:   1    -0.122320235658E+04   -0.21023E-01   -0.18802E+00  1212   0.108E+00    0.859E-01
DAV:   2    -0.122352608262E+04   -0.32373E+00   -0.13907E+00  1668   0.549E-01    0.118E+01
DAV:   3    -0.122328895880E+04    0.23712E+00   -0.45946E-01  1596   0.279E-01    0.221E+00
DAV:   4    -0.122323320499E+04    0.55754E-01   -0.52389E-01  1620   0.143E-01    0.180E+00
DAV:   5    -0.122321840533E+04    0.14800E-01   -0.34201E-01  1296   0.913E-02    0.953E-01
DAV:   6    -0.122321273658E+04    0.56687E-02   -0.16762E-02  1248   0.608E-02    0.111E+00
DAV:   7    -0.122320932787E+04    0.34087E-02   -0.12309E-02  1212   0.554E-02    0.662E-01
DAV:   8    -0.122320709096E+04    0.22369E-02   -0.98927E-03  1068   0.395E-02    0.630E-01
DAV:   9    -0.122320537590E+04    0.17151E-02   -0.63879E-03   840   0.242E-02    0.329E-01
DAV:  10    -0.122320498787E+04    0.38803E-03   -0.46745E-03   816   0.195E-02    0.349E-01
DAV:  11    -0.122320436297E+04    0.62490E-03   -0.24729E-03   828   0.156E-02    0.771E-02
DAV:  12    -0.122320440909E+04   -0.46125E-04   -0.92551E-04   708   0.108E-02
   7 F= -.12536984E+04 E0= -.12536293E+04  d E =-.295275E-01
       N       E                     dE             d eps       ncg     rms          rms(c)
DAV:   1    -0.122320437020E+04   -0.72273E-05   -0.54821E-01  1212   0.581E-01    0.445E-01
DAV:   2    -0.122331432118E+04   -0.10995E+00   -0.10999E-01  1608   0.309E-01    0.734E+00
DAV:   3    -0.122324269230E+04    0.71629E-01   -0.82753E-02  1572   0.166E-01    0.117E+00
DAV:   4    -0.122321124655E+04    0.31446E-01   -0.18744E-02  1416   0.915E-02    0.785E-01
DAV:   5    -0.122320710234E+04    0.41442E-02   -0.38962E-03   984   0.418E-02    0.387E-01
DAV:   6    -0.122320648601E+04    0.61633E-03   -0.47587E-03   960   0.256E-02    0.475E-01
DAV:   7    -0.122320641734E+04    0.68664E-04   -0.79835E-03   852   0.271E-02    0.441E-01
DAV:   8    -0.122320600530E+04    0.41204E-03   -0.81089E-03   900   0.207E-02    0.365E-01
DAV:   9    -0.122320554157E+04    0.46373E-03   -0.53395E-03   720   0.171E-02    0.237E-01
DAV:  10    -0.122320536032E+04    0.18125E-03   -0.36973E-03   672   0.124E-02    0.172E-01
DAV:  11    -0.122320524932E+04    0.11099E-03   -0.20058E-03   660   0.107E-02    0.105E-01
DAV:  12    -0.122320521159E+04    0.37732E-04   -0.10161E-03   660   0.794E-03    0.792E-02
DAV:  13    -0.122320518988E+04    0.21715E-04   -0.46760E-04   624   0.604E-03
   8 F= -.12537027E+04 E0= -.12536349E+04  d E =-.338415E-01
       N       E                     dE             d eps       ncg     rms          rms(c)
DAV:   1    -0.122320206365E+04    0.31479E-02   -0.35257E+00  1152   0.113E+00    0.725E-01
DAV:   2    -0.122370445510E+04   -0.50239E+00   -0.25179E+00  1740   0.590E-01    0.132E+01
DAV:   3    -0.122328251820E+04    0.42194E+00   -0.54198E-01  1656   0.315E-01    0.163E+00
DAV:   4    -0.122322113981E+04    0.61378E-01   -0.13549E-01  1536   0.155E-01    0.116E+00
DAV:   5    -0.122321231116E+04    0.88286E-02   -0.72700E-02  1200   0.727E-02    0.894E-01
DAV:   6    -0.122320774431E+04    0.45669E-02   -0.18998E-02  1248   0.588E-02    0.677E-01
DAV:   7    -0.122321352091E+04   -0.57766E-02   -0.26271E-02  1032   0.331E-02    0.129E+00
DAV:   8    -0.122322022769E+04   -0.67068E-02   -0.22883E-02  1296   0.586E-02    0.156E+00
DAV:   9    -0.122321947978E+04    0.74791E-03   -0.70513E-03   912   0.231E-02    0.153E+00
DAV:  10    -0.122321690326E+04    0.25765E-02   -0.17562E-02   840   0.217E-02    0.145E+00
DAV:  11    -0.122321582239E+04    0.10809E-02   -0.15441E-03   960   0.265E-02    0.139E+00
DAV:  12    -0.122321868051E+04   -0.28581E-02   -0.23402E-02  1032   0.295E-02    0.167E+00
DAV:  13    -0.122322160102E+04   -0.29205E-02   -0.28016E-03  1056   0.315E-02    0.176E+00
DAV:  14    -0.122322770345E+04   -0.61024E-02   -0.11904E-02   924   0.202E-02    0.211E+00
DAV:  15    -0.122323460589E+04   -0.69024E-02   -0.15230E-03  1020   0.302E-02    0.237E+00
DAV:  16    -0.122323309944E+04    0.15064E-02   -0.25494E-04   792   0.997E-03    0.226E+00
DAV:  17    -0.122323309877E+04    0.67532E-06   -0.25571E-05   624   0.561E-03
   9 F= -.12537322E+04 E0= -.12536836E+04  d E =-.295462E-01
       N       E                     dE             d eps       ncg     rms          rms(c)
DAV:   1    -0.122323510017E+04   -0.20007E-02   -0.39176E-02  1092   0.120E-01    0.227E+00
DAV:   2    -0.122354910603E+04   -0.31401E+00   -0.27980E+00  1644   0.378E-01    0.971E+00
DAV:   3    -0.122337863786E+04    0.17047E+00   -0.11856E+00  1632   0.609E-01    0.318E+00
DAV:   4    -0.122328639423E+04    0.92244E-01   -0.10999E+00  1548   0.231E-01    0.283E+00
DAV:   5    -0.122326266297E+04    0.23731E-01   -0.76526E-01  1488   0.113E-01    0.180E+00
DAV:   6    -0.122324161900E+04    0.21044E-01   -0.50064E-01  1572   0.146E-01    0.191E+00
DAV:   7    -0.122322842522E+04    0.13194E-01   -0.30424E-01  1452   0.837E-02    0.104E+00
DAV:   8    -0.122322360285E+04    0.48224E-02   -0.18652E-01  1272   0.682E-02    0.141E+00
DAV:   9    -0.122321674381E+04    0.68590E-02   -0.16504E-01  1272   0.584E-02    0.901E-01
DAV:  10    -0.122321044886E+04    0.62949E-02   -0.80964E-02  1380   0.666E-02    0.628E-01
DAV:  11    -0.122320844361E+04    0.20052E-02   -0.41601E-02  1236   0.419E-02    0.410E-01
DAV:  12    -0.122320782805E+04    0.61557E-03   -0.27313E-02  1056   0.332E-02    0.404E-01
DAV:  13    -0.122320701104E+04    0.81701E-03   -0.12401E-02   864   0.257E-02    0.116E-01
DAV:  14    -0.122320705259E+04   -0.41551E-04   -0.65574E-03   744   0.183E-02    0.261E-01
DAV:  15    -0.122320676402E+04    0.28857E-03   -0.36373E-03   708   0.123E-02    0.613E-02
DAV:  16    -0.122320682584E+04   -0.61823E-04   -0.15346E-03   696   0.105E-02    0.163E-01
DAV:  17    -0.122320671460E+04    0.11124E-03   -0.11134E-03   624   0.743E-03    0.526E-02
DAV:  18    -0.122320673947E+04   -0.24869E-04   -0.42702E-04   624   0.610E-03
  10 F= -.12537057E+04 E0= -.12536392E+04  d E =-.300425E-02
       N       E                     dE             d eps       ncg     rms          rms(c)
DAV:   1    -0.122321155153E+04   -0.48369E-02   -0.54614E-01  1152   0.457E-01    0.491E-01
DAV:   2    -0.122327615009E+04   -0.64599E-01   -0.26102E-01  1692   0.373E-01    0.202E+00
DAV:   3    -0.122322111673E+04    0.55033E-01   -0.15030E-01  1632   0.267E-01    0.953E-01
DAV:   4    -0.122321767766E+04    0.34391E-02   -0.60751E-03  1236   0.499E-02    0.835E-01
DAV:   5    -0.122321363001E+04    0.40477E-02   -0.10021E-02  1524   0.865E-02    0.585E-01
DAV:   6    -0.122321232840E+04    0.13016E-02   -0.14873E-03  1188   0.310E-02    0.206E-01
DAV:   7    -0.122321275623E+04   -0.42783E-03   -0.72050E-04  1032   0.276E-02    0.526E-01
DAV:   8    -0.122321190649E+04    0.84974E-03   -0.61654E-04   876   0.225E-02    0.182E-01
DAV:   9    -0.122321211251E+04   -0.20602E-03   -0.29021E-04   684   0.127E-02    0.408E-01
DAV:  10    -0.122321178393E+04    0.32858E-03   -0.23343E-04   636   0.854E-03    0.249E-01
DAV:  11    -0.122321182729E+04   -0.43367E-04   -0.17121E-04   624   0.710E-03
  11 F= -.12537101E+04 E0= -.12536398E+04  d E =-.743077E-02
       N       E                     dE             d eps       ncg     rms          rms(c)
DAV:   1    -0.122321914309E+04   -0.73592E-02   -0.15953E+00  1152   0.785E-01    0.467E-01
DAV:   2    -0.122345746900E+04   -0.23833E+00   -0.86740E-01  1716   0.376E-01    0.999E+00
DAV:   3    -0.122328379541E+04    0.17367E+00   -0.31708E-01  1668   0.227E-01    0.160E+00
DAV:   4    -0.122323280406E+04    0.50991E-01   -0.80494E-02  1524   0.114E-01    0.110E+00
DAV:   5    -0.122322535307E+04    0.74510E-02   -0.36274E-02  1116   0.549E-02    0.544E-01
DAV:   6    -0.122322336369E+04    0.19894E-02   -0.31894E-03   996   0.350E-02    0.643E-01
DAV:   7    -0.122322202650E+04    0.13372E-02   -0.21880E-03  1032   0.372E-02    0.398E-01
DAV:   8    -0.122322139656E+04    0.62994E-03   -0.11414E-03   900   0.292E-02    0.366E-01
DAV:   9    -0.122322074178E+04    0.65478E-03   -0.55869E-04   648   0.136E-02    0.141E-01
DAV:  10    -0.122322080658E+04   -0.64794E-04   -0.27370E-04   648   0.109E-02
  12 F= -.12537186E+04 E0= -.12536491E+04  d E =-.855228E-02
       N       E                     dE             d eps       ncg     rms          rms(c)
DAV:   1    -0.122322124279E+04   -0.50101E-03   -0.76745E-02  1116   0.172E-01    0.118E-01
DAV:   2    -0.122322686739E+04   -0.56246E-02   -0.87466E-03  1176   0.716E-02    0.136E+00
DAV:   3    -0.122322242145E+04    0.44459E-02   -0.55089E-03  1068   0.485E-02    0.226E-01
DAV:   4    -0.122322170378E+04    0.71768E-03   -0.73510E-04   792   0.174E-02    0.210E-01
DAV:   5    -0.122322142910E+04    0.27468E-03   -0.28185E-04   648   0.958E-03    0.510E-02
DAV:   6    -0.122322150683E+04   -0.77727E-04   -0.27297E-04   672   0.778E-03
  13 F= -.12537193E+04 E0= -.12536521E+04  d E =-.917123E-02
       N       E                     dE             d eps       ncg     rms          rms(c)
DAV:   1    -0.122322167200E+04   -0.24290E-03   -0.30287E-01  1152   0.341E-01    0.245E-01
DAV:   2    -0.122329378396E+04   -0.72112E-01   -0.71063E-02  1632   0.197E-01    0.586E+00
DAV:   3    -0.122324627341E+04    0.47511E-01   -0.40550E-02  1500   0.135E-01    0.814E-01
DAV:   4    -0.122322437740E+04    0.21896E-01   -0.11459E-02  1356   0.709E-02    0.458E-01
DAV:   5    -0.122322263153E+04    0.17459E-02   -0.18551E-03   924   0.259E-02    0.252E-01
DAV:   6    -0.122322230383E+04    0.32769E-03   -0.11539E-03   780   0.166E-02    0.244E-01
DAV:   7    -0.122322215820E+04    0.14563E-03   -0.16378E-03   768   0.163E-02    0.205E-01
DAV:   8    -0.122322205211E+04    0.10609E-03   -0.14088E-03   732   0.116E-02    0.153E-01
DAV:   9    -0.122322194047E+04    0.11164E-03   -0.86776E-04   636   0.867E-03    0.961E-02
DAV:  10    -0.122322190688E+04    0.33592E-04   -0.50412E-04   624   0.622E-03
  14 F= -.12537195E+04 E0= -.12536526E+04  d E =-.942154E-02
       N       E                     dE             d eps       ncg     rms          rms(c)
DAV:   1    -0.122322190822E+04    0.32254E-04   -0.38994E-02  1092   0.122E-01    0.114E-01
DAV:   2    -0.122322805487E+04   -0.61467E-02   -0.15335E-02  1284   0.867E-02    0.789E-01
DAV:   3    -0.122322209321E+04    0.59617E-02   -0.11256E-02  1176   0.700E-02    0.134E-01
DAV:   4    -0.122322200589E+04    0.87313E-04   -0.67779E-04   756   0.116E-02
  15 F= -.12537197E+04 E0= -.12536554E+04  d E =-.957224E-02
       N       E                     dE             d eps       ncg     rms          rms(c)
DAV:   1    -0.122322518281E+04   -0.30896E-02   -0.72606E-01  1152   0.578E-01    0.418E-01
DAV:   2    -0.122342350003E+04   -0.19832E+00   -0.61196E-01  1716   0.331E-01    0.913E+00
DAV:   3    -0.122328321119E+04    0.14029E+00   -0.23810E-01  1632   0.223E-01    0.137E+00
DAV:   4    -0.122323286772E+04    0.50343E-01   -0.27699E-02  1488   0.108E-01    0.742E-01
DAV:   5    -0.122322873304E+04    0.41347E-02   -0.59738E-03  1056   0.456E-02    0.540E-01
DAV:   6    -0.122322696003E+04    0.17730E-02   -0.36823E-03   936   0.291E-02    0.347E-01
DAV:   7    -0.122322665917E+04    0.30085E-03   -0.49737E-03   852   0.284E-02    0.372E-01
DAV:   8    -0.122322614072E+04    0.51845E-03   -0.40651E-03   852   0.203E-02    0.205E-01
DAV:   9    -0.122322592867E+04    0.21205E-03   -0.25619E-03   708   0.154E-02    0.209E-01
DAV:  10    -0.122322571980E+04    0.20887E-03   -0.15078E-03   684   0.107E-02    0.529E-02
DAV:  11    -0.122322572832E+04   -0.85201E-05   -0.89701E-04   648   0.786E-03
  16 F= -.12537225E+04 E0= -.12536571E+04  d E =-.283188E-02
       N       E                     dE             d eps       ncg     rms          rms(c)
DAV:   1    -0.122322561022E+04    0.10959E-03   -0.36330E-03   984   0.389E-02    0.311E-02
DAV:   2    -0.122322578048E+04   -0.17026E-03   -0.10323E-03   792   0.135E-02    0.187E-01
DAV:   3    -0.122322561778E+04    0.16270E-03   -0.83836E-04   684   0.124E-02    0.569E-02
DAV:   4    -0.122322566158E+04   -0.43796E-04   -0.21109E-04   660   0.745E-03
  17 F= -.12537225E+04 E0= -.12536579E+04  d E =-.282215E-02
       N       E                     dE             d eps       ncg     rms          rms(c)
DAV:   1    -0.122322493777E+04    0.68001E-03   -0.48469E-01  1152   0.463E-01    0.254E-01
DAV:   2    -0.122326224765E+04   -0.37310E-01   -0.56397E-02  1632   0.176E-01    0.402E+00
DAV:   3    -0.122323711439E+04    0.25133E-01   -0.25385E-02  1428   0.114E-01    0.668E-01
DAV:   4    -0.122322690057E+04    0.10214E-01   -0.53410E-03  1200   0.498E-02    0.350E-01
DAV:   5    -0.122322598944E+04    0.91113E-03   -0.14305E-03   912   0.222E-02    0.260E-01
DAV:   6    -0.122322572957E+04    0.25987E-03   -0.15164E-03   864   0.167E-02    0.207E-01
DAV:   7    -0.122322561215E+04    0.11742E-03   -0.24503E-03   804   0.166E-02    0.186E-01
DAV:   8    -0.122322548092E+04    0.13122E-03   -0.18007E-03   708   0.120E-02    0.112E-01
DAV:   9    -0.122322545643E+04    0.24492E-04   -0.12250E-03   624   0.924E-03    0.105E-01
DAV:  10    -0.122322539645E+04    0.59982E-04   -0.78779E-04   636   0.733E-03
  18 F= -.12537223E+04 E0= -.12536561E+04  d E =0.204000E-03
       N       E                     dE             d eps       ncg     rms          rms(c)
DAV:   1    -0.122322625562E+04   -0.79919E-03   -0.12826E-01  1116   0.237E-01    0.110E-01
DAV:   2    -0.122322843898E+04   -0.21834E-02   -0.76683E-03  1356   0.674E-02    0.518E-01
DAV:   3    -0.122322657886E+04    0.18601E-02   -0.42133E-03  1032   0.442E-02    0.181E-01
DAV:   4    -0.122322652010E+04    0.58758E-04   -0.32102E-04   768   0.133E-02
  19 F= -.12537234E+04 E0= -.12536594E+04  d E =-.884520E-03
       N       E                     dE             d eps       ncg     rms          rms(c)
DAV:   1    -0.122322644225E+04    0.13661E-03   -0.69997E-04   780   0.182E-02    0.833E-02
DAV:   2    -0.122322664197E+04   -0.19972E-03   -0.50835E-04   720   0.907E-03    0.205E-01
DAV:   3    -0.122322650780E+04    0.13418E-03   -0.70314E-04   648   0.821E-03    0.106E-01
DAV:   4    -0.122322660477E+04   -0.96976E-04   -0.77749E-04   708   0.129E-02
  20 F= -.12537235E+04 E0= -.12536552E+04  d E =-.966907E-03
       N       E                     dE             d eps       ncg     rms          rms(c)
DAV:   1    -0.122322634589E+04    0.16191E-03   -0.31536E-02  1104   0.119E-01    0.834E-02
DAV:   2    -0.122322657517E+04   -0.22928E-03   -0.12629E-03   888   0.300E-02    0.193E-01
DAV:   3    -0.122322702305E+04   -0.44788E-03   -0.18814E-03   888   0.310E-02    0.404E-01
DAV:   4    -0.122322642299E+04    0.60006E-03   -0.70651E-04   804   0.204E-02    0.963E-02
DAV:   5    -0.122322637392E+04    0.49072E-04   -0.95864E-05   720   0.706E-03
  21 F= -.12537235E+04 E0= -.12536571E+04  d E =-.871307E-04
       N       E                     dE             d eps       ncg     rms          rms(c)
DAV:   1    -0.122322637604E+04    0.46955E-04   -0.75859E-05   648   0.550E-03    0.675E-02
DAV:   2    -0.122322654163E+04   -0.16560E-03   -0.46627E-04   600   0.583E-03    0.187E-01
DAV:   3    -0.122322643446E+04    0.10717E-03   -0.65317E-04   636   0.584E-03    0.956E-02
DAV:   4    -0.122322641784E+04    0.16627E-04   -0.38213E-04   624   0.508E-03
  22 F= -.12537236E+04 E0= -.12536567E+04  d E =-.139500E-03
       N       E                     dE             d eps       ncg     rms          rms(c)
DAV:   1    -0.122322591840E+04    0.51606E-03   -0.23773E-02  1128   0.113E-01    0.533E-02
DAV:   2    -0.122322606335E+04   -0.14494E-03   -0.90146E-04   948   0.276E-02    0.141E-01
DAV:   3    -0.122322601637E+04    0.46980E-04   -0.42658E-04   792   0.159E-02
  23 F= -.12537236E+04 E0= -.12536557E+04  d E =-.458703E-04
       N       E                     dE             d eps       ncg     rms          rms(c)
DAV:   1    -0.122322615875E+04   -0.95402E-04   -0.28533E-03  1116   0.400E-02    0.776E-02
DAV:   2    -0.122323214979E+04   -0.59910E-02   -0.67139E-03  1068   0.546E-02    0.142E+00
DAV:   3    -0.122322726224E+04    0.48875E-02   -0.51589E-03  1032   0.504E-02    0.225E-01
DAV:   4    -0.122322629680E+04    0.96545E-03   -0.64787E-04   852   0.181E-02    0.120E-01
DAV:   5    -0.122322617740E+04    0.11939E-03   -0.99175E-05   636   0.858E-03    0.569E-02
DAV:   6    -0.122322616774E+04    0.96685E-05   -0.69415E-05   624   0.532E-03
  24 F= -.12537236E+04 E0= -.12536572E+04  d E =-.478933E-04
       N       E                     dE             d eps       ncg     rms          rms(c)
DAV:   1    -0.122322578765E+04    0.38975E-03   -0.13356E-02  1128   0.913E-02    0.591E-02
DAV:   2    -0.122322644259E+04   -0.65494E-03   -0.15625E-03  1116   0.321E-02    0.319E-01
DAV:   3    -0.122322587009E+04    0.57250E-03   -0.14440E-03   876   0.267E-02    0.130E-01
DAV:   4    -0.122322582851E+04    0.41583E-04   -0.10159E-04   636   0.744E-03
  25 F= -.12537237E+04 E0= -.12536586E+04  d E =-.953541E-04
       N       E                     dE             d eps       ncg     rms          rms(c)
DAV:   1    -0.122322570807E+04    0.16203E-03   -0.11131E-03  1068   0.258E-02    0.564E-02
DAV:   2    -0.122322585004E+04   -0.14197E-03   -0.56163E-04   684   0.881E-03    0.178E-01
DAV:   3    -0.122322596945E+04   -0.11941E-03   -0.11793E-03   720   0.155E-02    0.244E-01
DAV:   4    -0.122322576303E+04    0.20642E-03   -0.56883E-04   672   0.117E-02    0.908E-02
DAV:   5    -0.122322573149E+04    0.31539E-04   -0.13407E-04   624   0.437E-03
  26 F= -.12537238E+04 E0= -.12536573E+04  d E =-.119836E-03
       N       E                     dE             d eps       ncg     rms          rms(c)
DAV:   1    -0.122322552759E+04    0.23544E-03   -0.89913E-03  1116   0.759E-02    0.436E-02
DAV:   2    -0.122322574099E+04   -0.21340E-03   -0.63040E-04   852   0.210E-02    0.187E-01
DAV:   3    -0.122322559445E+04    0.14653E-03   -0.65103E-04   780   0.191E-02    0.126E-01
DAV:   4    -0.122322554798E+04    0.46473E-04   -0.10218E-04   636   0.786E-03
  27 F= -.12537239E+04 E0= -.12536585E+04  d E =-.866522E-04
       N       E                     dE             d eps       ncg     rms          rms(c)
DAV:   1    -0.122322535251E+04    0.24195E-03   -0.65878E-03  1116   0.645E-02    0.624E-02
DAV:   2    -0.122322568678E+04   -0.33427E-03   -0.12462E-03   852   0.203E-02    0.260E-01
DAV:   3    -0.122322571102E+04   -0.24246E-04   -0.19962E-03   828   0.250E-02    0.283E-01
DAV:   4    -0.122322543173E+04    0.27930E-03   -0.55216E-04   672   0.140E-02    0.998E-02
DAV:   5    -0.122322537910E+04    0.52625E-04   -0.88760E-05   636   0.546E-03
  28 F= -.12537239E+04 E0= -.12536577E+04  d E =-.148111E-03
       N       E                     dE             d eps       ncg     rms          rms(c)
DAV:   1    -0.122322532425E+04    0.10748E-03   -0.43821E-03  1092   0.541E-02    0.349E-02
DAV:   2    -0.122322538667E+04   -0.62419E-04   -0.17837E-04   756   0.120E-02
  29 F= -.12537240E+04 E0= -.12536574E+04  d E =-.126177E-03
       N       E                     dE             d eps       ncg     rms          rms(c)
DAV:   1    -0.122322514750E+04    0.17675E-03   -0.32791E-02  1152   0.146E-01    0.109E-01
DAV:   2    -0.122323296536E+04   -0.78179E-02   -0.91523E-03  1332   0.727E-02    0.166E+00
DAV:   3    -0.122322698335E+04    0.59820E-02   -0.76393E-03  1104   0.585E-02    0.288E-01
DAV:   4    -0.122322556288E+04    0.14205E-02   -0.11436E-03   924   0.235E-02    0.228E-01
DAV:   5    -0.122322524552E+04    0.31737E-03   -0.39145E-04   672   0.131E-02    0.723E-02
DAV:   6    -0.122322525179E+04   -0.62722E-05   -0.32841E-04   636   0.851E-03
  30 F= -.12537242E+04 E0= -.12536576E+04  d E =-.312550E-03
       N       E                     dE             d eps       ncg     rms          rms(c)
DAV:   1    -0.122322409494E+04    0.11506E-02   -0.12879E-01  1152   0.290E-01    0.140E-01
DAV:   2    -0.122322499286E+04   -0.89792E-03   -0.72864E-03  1572   0.650E-02    0.412E-01
DAV:   3    -0.122322548817E+04   -0.49532E-03   -0.71559E-03  1056   0.408E-02    0.416E-01
DAV:   4    -0.122322452917E+04    0.95900E-03   -0.24495E-03   924   0.329E-02    0.207E-01
DAV:   5    -0.122322439201E+04    0.13716E-03   -0.25412E-04   660   0.951E-03    0.121E-01
DAV:   6    -0.122322434025E+04    0.51768E-04   -0.24906E-04   684   0.107E-02
  31 F= -.12537240E+04 E0= -.12536584E+04  d E =-.457665E-04
       N       E                     dE             d eps       ncg     rms          rms(c)
DAV:   1    -0.122322498199E+04   -0.58997E-03   -0.69388E-02  1152   0.211E-01    0.165E-01
DAV:   2    -0.122323013299E+04   -0.51510E-02   -0.11855E-02  1524   0.867E-02    0.720E-01
DAV:   3    -0.122322549613E+04    0.46369E-02   -0.13910E-02  1212   0.785E-02    0.332E-01
DAV:   4    -0.122322529621E+04    0.19992E-03   -0.10001E-03   864   0.244E-02    0.212E-01
DAV:   5    -0.122322505337E+04    0.24284E-03   -0.24667E-04   636   0.104E-02    0.960E-02
DAV:   6    -0.122322498998E+04    0.63390E-04   -0.24836E-04   648   0.831E-03
  32 F= -.12537241E+04 E0= -.12536583E+04  d E =-.229589E-03
       N       E                     dE             d eps       ncg     rms          rms(c)
DAV:   1    -0.122322507607E+04   -0.22697E-04   -0.18123E-03  1056   0.334E-02    0.605E-02
DAV:   2    -0.122322652171E+04   -0.14456E-02   -0.34162E-03   936   0.344E-02    0.473E-01
DAV:   3    -0.122322520694E+04    0.13148E-02   -0.31361E-03   924   0.339E-02    0.128E-01
DAV:   4    -0.122322513449E+04    0.72447E-04   -0.29554E-04   660   0.808E-03
  33 F= -.12537242E+04 E0= -.12536590E+04  d E =-.302348E-03
       N       E                     dE             d eps       ncg     rms          rms(c)
DAV:   1    -0.122322504769E+04    0.15924E-03   -0.28191E-03  1080   0.427E-02    0.486E-02
DAV:   2    -0.122322595619E+04   -0.90850E-03   -0.14928E-03   876   0.267E-02    0.469E-01
DAV:   3    -0.122322515358E+04    0.80261E-03   -0.15922E-03   864   0.268E-02    0.145E-01
DAV:   4    -0.122322505612E+04    0.97464E-04   -0.15897E-04   636   0.706E-03
  34 F= -.12537242E+04 E0= -.12536579E+04  d E =0.151830E-05
       N       E                     dE             d eps       ncg     rms          rms(c)
DAV:   1    -0.122322492927E+04    0.22431E-03   -0.23634E-02  1152   0.125E-01    0.786E-02
DAV:   2    -0.122322574375E+04   -0.81448E-03   -0.18897E-03  1164   0.378E-02    0.450E-01
DAV:   3    -0.122322538274E+04    0.36101E-03   -0.23064E-03   936   0.302E-02    0.245E-01
DAV:   4    -0.122322504130E+04    0.34144E-03   -0.34639E-04   672   0.141E-02    0.103E-01
DAV:   5    -0.122322497522E+04    0.66079E-04   -0.60912E-05   624   0.576E-03
  35 F= -.12537244E+04 E0= -.12536585E+04  d E =-.148462E-03
       N       E                     dE             d eps       ncg     rms          rms(c)
DAV:   1    -0.122322449461E+04    0.54669E-03   -0.93092E-02  1152   0.249E-01    0.113E-01
DAV:   2    -0.122322537091E+04   -0.87630E-03   -0.32407E-03  1500   0.572E-02    0.435E-01
DAV:   3    -0.122322504448E+04    0.32643E-03   -0.22988E-03  1020   0.338E-02    0.269E-01
DAV:   4    -0.122322469402E+04    0.35047E-03   -0.29961E-04   696   0.155E-02    0.103E-01
DAV:   5    -0.122322466425E+04    0.29764E-04   -0.80531E-05   624   0.717E-03
  36 F= -.12537245E+04 E0= -.12536592E+04  d E =-.300670E-03
       N       E                     dE             d eps       ncg     rms          rms(c)
DAV:   1    -0.122322280776E+04    0.18863E-02   -0.37085E-01  1152   0.498E-01    0.223E-01
DAV:   2    -0.122322442012E+04   -0.16124E-02   -0.11060E-02  1560   0.107E-01    0.511E-01
DAV:   3    -0.122322622290E+04   -0.18028E-02   -0.99169E-03  1320   0.677E-02    0.596E-01
DAV:   4    -0.122322355389E+04    0.26690E-02   -0.34388E-03  1116   0.449E-02    0.169E-01
DAV:   5    -0.122322350340E+04    0.50492E-04   -0.34510E-04   792   0.129E-02
  37 F= -.12537243E+04 E0= -.12536603E+04  d E =-.717641E-04
       N       E                     dE             d eps       ncg     rms          rms(c)
DAV:   1    -0.122322431696E+04   -0.76307E-03   -0.17989E-01  1152   0.345E-01    0.311E-01
DAV:   2    -0.122324550005E+04   -0.21183E-01   -0.61162E-02  1596   0.187E-01    0.135E+00
DAV:   3    -0.122322647183E+04    0.19028E-01   -0.55009E-02  1500   0.157E-01    0.387E-01
DAV:   4    -0.122322570351E+04    0.76833E-03   -0.56903E-03  1068   0.336E-02    0.400E-01
DAV:   5    -0.122322487076E+04    0.83275E-03   -0.32225E-03   852   0.264E-02    0.182E-01
DAV:   6    -0.122322459608E+04    0.27468E-03   -0.21448E-03   684   0.171E-02    0.198E-01
DAV:   7    -0.122322449507E+04    0.10101E-03   -0.19876E-03   720   0.136E-02    0.167E-01
DAV:   8    -0.122322439994E+04    0.95130E-04   -0.12175E-03   660   0.124E-02    0.106E-01
DAV:   9    -0.122322437940E+04    0.20536E-04   -0.68186E-04   636   0.905E-03
  38 F= -.12537245E+04 E0= -.12536571E+04  d E =-.311834E-03
       N       E                     dE             d eps       ncg     rms          rms(c)
DAV:   1    -0.122322450444E+04   -0.10450E-03   -0.14120E-02  1140   0.971E-02    0.585E-02
DAV:   2    -0.122322508434E+04   -0.57990E-03   -0.16977E-03  1056   0.331E-02    0.306E-01
DAV:   3    -0.122322463923E+04    0.44511E-03   -0.16826E-03   876   0.269E-02    0.165E-01
DAV:   4    -0.122322453607E+04    0.10316E-03   -0.18537E-04   672   0.106E-02    0.653E-02
DAV:   5    -0.122322452539E+04    0.10682E-04   -0.12623E-04   612   0.436E-03
  39 F= -.12537245E+04 E0= -.12536585E+04  d E =-.278275E-03
       N       E                     dE             d eps       ncg     rms          rms(c)
DAV:   1    -0.122322444470E+04    0.91374E-04   -0.14076E-02  1140   0.970E-02    0.565E-02
DAV:   2    -0.122322454639E+04   -0.10169E-03   -0.11704E-03  1032   0.210E-02    0.121E-01
DAV:   3    -0.122322461152E+04   -0.65132E-04   -0.15271E-03   720   0.155E-02    0.180E-01
DAV:   4    -0.122322452880E+04    0.82723E-04   -0.81102E-04   696   0.147E-02
  40 F= -.12537247E+04 E0= -.12536604E+04  d E =-.204138E-03
       N       E                     dE             d eps       ncg     rms          rms(c)
DAV:   1    -0.122322387817E+04    0.73335E-03   -0.12499E-01  1152   0.290E-01    0.143E-01
DAV:   2    -0.122322420824E+04   -0.33006E-03   -0.46670E-03  1572   0.594E-02    0.175E-01
DAV:   3    -0.122322425343E+04   -0.45190E-04   -0.36088E-03   792   0.155E-02    0.190E-01
DAV:   4    -0.122322445108E+04   -0.19765E-03   -0.34729E-03   792   0.228E-02    0.291E-01
DAV:   5    -0.122322411640E+04    0.33468E-03   -0.14465E-03   756   0.176E-02    0.954E-02
DAV:   6    -0.122322412630E+04   -0.98979E-05   -0.98061E-04   684   0.811E-03
  41 F= -.12537249E+04 E0= -.12536590E+04  d E =-.405228E-03
       N       E                     dE             d eps       ncg     rms          rms(c)
DAV:   1    -0.122322394569E+04    0.17071E-03   -0.17617E-02  1140   0.108E-01    0.527E-02
DAV:   2    -0.122322410570E+04   -0.16001E-03   -0.14383E-03  1116   0.239E-02    0.165E-01
DAV:   3    -0.122322406664E+04    0.39057E-04   -0.15065E-03   708   0.173E-02    0.157E-01
DAV:   4    -0.122322401687E+04    0.49772E-04   -0.58092E-04   696   0.134E-02
  42 F= -.12537250E+04 E0= -.12536604E+04  d E =-.123375E-03
       N       E                     dE             d eps       ncg     rms          rms(c)
DAV:   1    -0.122322337610E+04    0.69054E-03   -0.15668E-01  1152   0.327E-01    0.154E-01
DAV:   2    -0.122322519148E+04   -0.18154E-02   -0.66916E-03  1620   0.827E-02    0.657E-01
DAV:   3    -0.122322442145E+04    0.77004E-03   -0.44704E-03  1104   0.458E-02    0.351E-01
DAV:   4    -0.122322371976E+04    0.70169E-03   -0.59923E-04   804   0.212E-02    0.138E-01
DAV:   5    -0.122322365706E+04    0.62699E-04   -0.13794E-04   696   0.969E-03
  43 F= -.12537254E+04 E0= -.12536604E+04  d E =-.463713E-03
       N       E                     dE             d eps       ncg     rms          rms(c)
DAV:   1    -0.122322132210E+04    0.23977E-02   -0.62166E-01  1152   0.650E-01    0.308E-01
DAV:   2    -0.122322336736E+04   -0.20453E-02   -0.18978E-02  1608   0.133E-01    0.487E-01
DAV:   3    -0.122322652480E+04   -0.31574E-02   -0.16574E-02  1392   0.761E-02    0.678E-01
DAV:   4    -0.122322272043E+04    0.38044E-02   -0.13397E-02  1224   0.761E-02    0.372E-01
DAV:   5    -0.122322245711E+04    0.26332E-03   -0.22462E-03  1032   0.254E-02    0.234E-01
DAV:   6    -0.122322228001E+04    0.17710E-03   -0.23021E-03   840   0.133E-02    0.172E-01
DAV:   7    -0.122322253521E+04   -0.25520E-03   -0.31779E-03   876   0.228E-02    0.289E-01
DAV:   8    -0.122322224032E+04    0.29489E-03   -0.25926E-03   828   0.202E-02    0.121E-01
DAV:   9    -0.122322220563E+04    0.34687E-04   -0.21494E-03   624   0.863E-03    0.106E-01
DAV:  10    -0.122322218095E+04    0.24686E-04   -0.12769E-03   648   0.860E-03    0.764E-02
DAV:  11    -0.122322216421E+04    0.16736E-04   -0.69207E-04   624   0.549E-03
  44 F= -.12537253E+04 E0= -.12536590E+04  d E =-.378898E-03
       N       E                     dE             d eps       ncg     rms          rms(c)
DAV:   1    -0.122322272797E+04   -0.54703E-03   -0.13068E-01  1152   0.296E-01    0.146E-01
DAV:   2    -0.122322468673E+04   -0.19588E-02   -0.89238E-03  1572   0.789E-02    0.517E-01
DAV:   3    -0.122322380192E+04    0.88481E-03   -0.82897E-03  1104   0.531E-02    0.462E-01
DAV:   4    -0.122322327959E+04    0.52233E-03   -0.15055E-03   864   0.287E-02    0.227E-01
DAV:   5    -0.122322306694E+04    0.21265E-03   -0.27228E-04   672   0.103E-02    0.143E-01
DAV:   6    -0.122322294406E+04    0.12288E-03   -0.30631E-04   660   0.110E-02    0.833E-02
DAV:   7    -0.122322299801E+04   -0.53952E-04   -0.55226E-04   708   0.904E-03
  45 F= -.12537255E+04 E0= -.12536578E+04  d E =-.569855E-03
       N       E                     dE             d eps       ncg     rms          rms(c)
DAV:   1    -0.122322283283E+04    0.11123E-03   -0.14945E-02  1152   0.998E-02    0.660E-02
DAV:   2    -0.122322302836E+04   -0.19553E-03   -0.17314E-03  1080   0.228E-02    0.196E-01
DAV:   3    -0.122322300627E+04    0.22094E-04   -0.20021E-03   684   0.136E-02    0.162E-01
DAV:   4    -0.122322299500E+04    0.11267E-04   -0.11258E-03   684   0.157E-02    0.174E-01
DAV:   5    -0.122322286862E+04    0.12638E-03   -0.36005E-04   636   0.795E-03    0.513E-02
DAV:   6    -0.122322286466E+04    0.39621E-05   -0.99098E-05   624   0.472E-03
  46 F= -.12537256E+04 E0= -.12536593E+04  d E =-.980289E-04
       N       E                     dE             d eps       ncg     rms          rms(c)
DAV:   1    -0.122322230035E+04    0.56827E-03   -0.12895E-01  1152   0.296E-01    0.139E-01
DAV:   2    -0.122322324989E+04   -0.94954E-03   -0.50836E-03  1512   0.663E-02    0.441E-01
DAV:   3    -0.122322368896E+04   -0.43907E-03   -0.47647E-03  1068   0.418E-02    0.416E-01
DAV:   4    -0.122322266717E+04    0.10218E-02   -0.17540E-03   888   0.310E-02    0.169E-01
DAV:   5    -0.122322257741E+04    0.89760E-04   -0.16805E-04   660   0.995E-03
  47 F= -.12537260E+04 E0= -.12536601E+04  d E =-.506383E-03
       N       E                     dE             d eps       ncg     rms          rms(c)
DAV:   1    -0.122322043309E+04    0.22341E-02   -0.51565E-01  1152   0.593E-01    0.268E-01
DAV:   2    -0.122322861049E+04   -0.81774E-02   -0.21505E-02  1584   0.139E-01    0.160E+00
DAV:   3    -0.122322385451E+04    0.47560E-02   -0.12792E-02  1440   0.777E-02    0.501E-01
DAV:   4    -0.122322179205E+04    0.20625E-02   -0.12245E-03  1032   0.274E-02    0.305E-01
DAV:   5    -0.122322145526E+04    0.33679E-03   -0.62796E-04   948   0.189E-02    0.227E-01
DAV:   6    -0.122322144301E+04    0.12255E-04   -0.10865E-03   936   0.168E-02    0.233E-01
DAV:   7    -0.122322127440E+04    0.16861E-03   -0.13810E-03   792   0.152E-02    0.130E-01
DAV:   8    -0.122322121018E+04    0.64221E-04   -0.10430E-03   708   0.115E-02    0.123E-01
DAV:   9    -0.122322114577E+04    0.64408E-04   -0.83245E-04   660   0.749E-03
  48 F= -.12537259E+04 E0= -.12536601E+04  d E =-.472469E-03
       N       E                     dE             d eps       ncg     rms          rms(c)
DAV:   1    -0.122322162051E+04   -0.41033E-03   -0.68485E-02  1152   0.217E-01    0.114E-01
DAV:   2    -0.122322259125E+04   -0.97074E-03   -0.48713E-03  1560   0.545E-02    0.408E-01
DAV:   3    -0.122322265579E+04   -0.64541E-04   -0.54177E-03   984   0.390E-02    0.467E-01
DAV:   4    -0.122322203846E+04    0.61733E-03   -0.16591E-03   864   0.273E-02    0.211E-01
DAV:   5    -0.122322181869E+04    0.21977E-03   -0.17659E-04   660   0.913E-03    0.123E-01
DAV:   6    -0.122322172185E+04    0.96832E-04   -0.88883E-05   660   0.866E-03
  49 F= -.12537260E+04 E0= -.12536606E+04  d E =-.541070E-03
       N       E                     dE             d eps       ncg     rms          rms(c)
DAV:   1    -0.122322202467E+04   -0.20598E-03   -0.20976E-02  1152   0.121E-01    0.123E-01
DAV:   2    -0.122322430846E+04   -0.22838E-02   -0.37541E-03  1200   0.501E-02    0.619E-01
DAV:   3    -0.122322329651E+04    0.10120E-02   -0.67086E-03  1044   0.532E-02    0.516E-01
DAV:   4    -0.122322247516E+04    0.82135E-03   -0.13762E-03   852   0.242E-02    0.240E-01
DAV:   5    -0.122322215099E+04    0.32417E-03   -0.21157E-04   672   0.102E-02    0.140E-01
DAV:   6    -0.122322204384E+04    0.10715E-03   -0.98101E-05   660   0.849E-03    0.832E-02
DAV:   7    -0.122322209784E+04   -0.54000E-04   -0.59435E-05   600   0.581E-03
  50 F= -.12537261E+04 E0= -.12536587E+04  d E =-.632142E-03
       N       E                     dE             d eps       ncg     rms          rms(c)
DAV:   1    -0.122322190139E+04    0.14245E-03   -0.30477E-03  1068   0.449E-02    0.389E-02
DAV:   2    -0.122322242768E+04   -0.52629E-03   -0.12201E-03   876   0.245E-02    0.295E-01
DAV:   3    -0.122322192221E+04    0.50547E-03   -0.10267E-03   816   0.223E-02    0.841E-02
DAV:   4    -0.122322190522E+04    0.16996E-04   -0.91703E-05   624   0.512E-03
  51 F= -.12537261E+04 E0= -.12536600E+04  d E =0.373657E-04
       N       E                     dE             d eps       ncg     rms          rms(c)
DAV:   1    -0.122322165546E+04    0.26675E-03   -0.14225E-02  1152   0.960E-02    0.955E-02
DAV:   2    -0.122322221705E+04   -0.56159E-03   -0.18323E-03  1056   0.291E-02    0.335E-01
DAV:   3    -0.122322274119E+04   -0.52414E-03   -0.37943E-03   948   0.355E-02    0.513E-01
DAV:   4    -0.122322189207E+04    0.84912E-03   -0.13526E-03   816   0.219E-02    0.144E-01
DAV:   5    -0.122322175163E+04    0.14044E-03   -0.17307E-04   660   0.837E-03    0.123E-01
DAV:   6    -0.122322166757E+04    0.84064E-04   -0.58511E-05   636   0.687E-03
  52 F= -.12537262E+04 E0= -.12536602E+04  d E =-.646800E-04
       N       E                     dE             d eps       ncg     rms          rms(c)
DAV:   1    -0.122322158845E+04    0.16318E-03   -0.45355E-03  1080   0.559E-02    0.807E-02
DAV:   2    -0.122322188219E+04   -0.29374E-03   -0.30472E-04   780   0.156E-02    0.251E-01
DAV:   3    -0.122322219223E+04   -0.31005E-03   -0.11652E-03   816   0.229E-02    0.378E-01
DAV:   4    -0.122322172852E+04    0.46371E-03   -0.65058E-04   708   0.160E-02    0.125E-01
DAV:   5    -0.122322165913E+04    0.69394E-04   -0.98427E-05   660   0.710E-03
  53 F= -.12537264E+04 E0= -.12536592E+04  d E =-.185429E-03
       N       E                     dE             d eps       ncg     rms          rms(c)
DAV:   1    -0.122322109845E+04    0.63007E-03   -0.40997E-02  1152   0.167E-01    0.111E-01
DAV:   2    -0.122322323761E+04   -0.21392E-02   -0.39839E-03  1428   0.548E-02    0.764E-01
DAV:   3    -0.122322198740E+04    0.12502E-02   -0.40503E-03  1020   0.406E-02    0.290E-01
DAV:   4    -0.122322136404E+04    0.62336E-03   -0.53221E-04   756   0.172E-02    0.177E-01
DAV:   5    -0.122322117179E+04    0.19226E-03   -0.10372E-04   660   0.827E-03    0.559E-02
DAV:   6    -0.122322117217E+04   -0.38586E-06   -0.80671E-05   648   0.830E-03
  54 F= -.12537264E+04 E0= -.12536598E+04  d E =-.280798E-03
       N       E                     dE             d eps       ncg     rms          rms(c)
DAV:   1    -0.122322103418E+04    0.13761E-03   -0.57802E-03  1104   0.635E-02    0.637E-02
DAV:   2    -0.122322140898E+04   -0.37480E-03   -0.14948E-03   816   0.215E-02    0.254E-01
DAV:   3    -0.122322133021E+04    0.78774E-04   -0.23049E-03   840   0.286E-02    0.270E-01
DAV:   4    -0.122322106602E+04    0.26419E-03   -0.60353E-04   696   0.147E-02    0.609E-02
DAV:   5    -0.122322104241E+04    0.23610E-04   -0.28991E-04   624   0.531E-03
  55 F= -.12537265E+04 E0= -.12536605E+04  d E =-.774564E-04
       N       E                     dE             d eps       ncg     rms          rms(c)
DAV:   1    -0.122322045717E+04    0.60885E-03   -0.49554E-02  1152   0.186E-01    0.942E-02
DAV:   2    -0.122322062780E+04   -0.17063E-03   -0.15474E-03  1452   0.402E-02    0.137E-01
DAV:   3    -0.122322126083E+04   -0.63303E-03   -0.17835E-03   912   0.292E-02    0.338E-01
DAV:   4    -0.122322058212E+04    0.67870E-03   -0.10122E-03   828   0.245E-02    0.925E-02
DAV:   5    -0.122322056517E+04    0.16951E-04   -0.62722E-05   624   0.597E-03
  56 F= -.12537267E+04 E0= -.12536613E+04  d E =-.205672E-03
       N       E                     dE             d eps       ncg     rms          rms(c)
DAV:   1    -0.122322052465E+04    0.57467E-04   -0.11433E-02  1140   0.911E-02    0.647E-02
DAV:   2    -0.122322098410E+04   -0.45944E-03   -0.81160E-04   960   0.258E-02    0.300E-01
DAV:   3    -0.122322090476E+04    0.79332E-04   -0.15264E-03   852   0.280E-02    0.285E-01
DAV:   4    -0.122322063387E+04    0.27090E-03   -0.45178E-04   672   0.143E-02    0.117E-01
DAV:   5    -0.122322056199E+04    0.71878E-04   -0.58982E-05   624   0.645E-03
  57 F= -.12537268E+04 E0= -.12536603E+04  d E =-.128262E-03
       N       E                     dE             d eps       ncg     rms          rms(c)
DAV:   1    -0.122322037401E+04    0.25985E-03   -0.35395E-02  1152   0.159E-01    0.933E-02
DAV:   2    -0.122322132581E+04   -0.95180E-03   -0.18761E-03  1332   0.432E-02    0.481E-01
DAV:   3    -0.122322109165E+04    0.23416E-03   -0.25613E-03   972   0.339E-02    0.303E-01
DAV:   4    -0.122322054918E+04    0.54248E-03   -0.68383E-04   720   0.188E-02    0.139E-01
DAV:   5    -0.122322044567E+04    0.10350E-03   -0.93626E-05   648   0.672E-03    0.760E-02
DAV:   6    -0.122322040794E+04    0.37733E-04   -0.81258E-05   672   0.946E-03
  58 F= -.12537269E+04 E0= -.12536609E+04  d E =-.202579E-03
       N       E                     dE             d eps       ncg     rms          rms(c)
DAV:   1    -0.122321974385E+04    0.70183E-03   -0.14175E-01  1152   0.319E-01    0.183E-01
DAV:   2    -0.122322439650E+04   -0.46527E-02   -0.89130E-03  1560   0.918E-02    0.118E+00
DAV:   3    -0.122322244989E+04    0.19466E-02   -0.98288E-03  1212   0.651E-02    0.485E-01
DAV:   4    -0.122322045606E+04    0.19938E-02   -0.11866E-03   960   0.269E-02    0.256E-01
DAV:   5    -0.122322003765E+04    0.41841E-03   -0.35976E-04   696   0.144E-02    0.132E-01
DAV:   6    -0.122321998957E+04    0.48079E-04   -0.35856E-04   780   0.140E-02
  59 F= -.12537269E+04 E0= -.12536591E+04  d E =-.242781E-03
       N       E                     dE             d eps       ncg     rms          rms(c)
DAV:   1    -0.122322021906E+04   -0.18142E-03   -0.52784E-02  1152   0.194E-01    0.131E-01
DAV:   2    -0.122322181516E+04   -0.15961E-02   -0.54128E-03  1548   0.634E-02    0.474E-01
DAV:   3    -0.122322136293E+04    0.45224E-03   -0.70118E-03  1128   0.525E-02    0.522E-01
DAV:   4    -0.122322050849E+04    0.85444E-03   -0.14256E-03   876   0.287E-02    0.170E-01
DAV:   5    -0.122322031117E+04    0.19732E-03   -0.25841E-04   636   0.906E-03    0.872E-02
DAV:   6    -0.122322025143E+04    0.59737E-04   -0.22160E-04   624   0.709E-03
  60 F= -.12537269E+04 E0= -.12536614E+04  d E =-.227001E-03
       N       E                     dE             d eps       ncg     rms          rms(c)
DAV:   1    -0.122322030392E+04    0.72456E-05   -0.68888E-03  1140   0.693E-02    0.564E-02
DAV:   2    -0.122322054140E+04   -0.23748E-03   -0.11518E-03   852   0.199E-02    0.218E-01
DAV:   3    -0.122322059754E+04   -0.56140E-04   -0.16407E-03   828   0.232E-02    0.255E-01
DAV:   4    -0.122322038110E+04    0.21645E-03   -0.49306E-04   672   0.141E-02    0.965E-02
DAV:   5    -0.122322033211E+04    0.48986E-04   -0.69490E-05   624   0.582E-03
  61 F= -.12537270E+04 E0= -.12536611E+04  d E =-.118245E-03
       N       E                     dE             d eps       ncg     rms          rms(c)
DAV:   1    -0.122322033729E+04    0.43803E-04   -0.58312E-02  1152   0.205E-01    0.103E-01
DAV:   2    -0.122322137001E+04   -0.10327E-02   -0.28386E-03  1524   0.533E-02    0.496E-01
DAV:   3    -0.122322103110E+04    0.33892E-03   -0.26428E-03  1056   0.344E-02    0.289E-01
DAV:   4    -0.122322053277E+04    0.49832E-03   -0.49018E-04   720   0.182E-02    0.122E-01
DAV:   5    -0.122322043900E+04    0.93770E-04   -0.87421E-05   636   0.705E-03
  62 F= -.12537272E+04 E0= -.12536614E+04  d E =-.338414E-03
       N       E                     dE             d eps       ncg     rms          rms(c)
DAV:   1    -0.122322007907E+04    0.45370E-03   -0.23196E-01  1152   0.409E-01    0.178E-01
DAV:   2    -0.122322170617E+04   -0.16271E-02   -0.75995E-03  1536   0.861E-02    0.592E-01
DAV:   3    -0.122322175301E+04   -0.46840E-04   -0.58788E-03  1212   0.525E-02    0.437E-01
DAV:   4    -0.122322060482E+04    0.11482E-02   -0.92927E-04   984   0.273E-02    0.162E-01
DAV:   5    -0.122322049837E+04    0.10645E-03   -0.24491E-04   684   0.121E-02    0.140E-01
DAV:   6    -0.122322050991E+04   -0.11545E-04   -0.37112E-04   924   0.139E-02
  63 F= -.12537275E+04 E0= -.12536600E+04  d E =-.638501E-03
       N       E                     dE             d eps       ncg     rms          rms(c)
DAV:   1    -0.122322068088E+04   -0.18251E-03   -0.40948E-02  1152   0.170E-01    0.119E-01
DAV:   2    -0.122322272300E+04   -0.20421E-02   -0.72480E-03  1596   0.627E-02    0.529E-01
DAV:   3    -0.122322133219E+04    0.13908E-02   -0.79670E-03  1080   0.537E-02    0.376E-01
DAV:   4    -0.122322086478E+04    0.46741E-03   -0.11255E-03   804   0.215E-02    0.146E-01
DAV:   5    -0.122322074917E+04    0.11562E-03   -0.56424E-04   624   0.904E-03    0.997E-02
DAV:   6    -0.122322068866E+04    0.60502E-04   -0.48748E-04   636   0.918E-03
  64 F= -.12537277E+04 E0= -.12536618E+04  d E =-.148910E-03
       N       E                     dE             d eps       ncg     rms          rms(c)
DAV:   1    -0.122322070918E+04    0.39982E-04   -0.19413E-01  1152   0.369E-01    0.199E-01
DAV:   2    -0.122322370480E+04   -0.29956E-02   -0.14206E-02  1620   0.986E-02    0.640E-01
DAV:   3    -0.122322337232E+04    0.33248E-03   -0.15769E-02  1236   0.726E-02    0.785E-01
DAV:   4    -0.122322206619E+04    0.13061E-02   -0.40890E-03   996   0.413E-02    0.347E-01
DAV:   5    -0.122322132179E+04    0.74440E-03   -0.41342E-04   792   0.165E-02    0.214E-01
DAV:   6    -0.122322105260E+04    0.26919E-03   -0.27102E-04   696   0.149E-02    0.121E-01
DAV:   7    -0.122322111499E+04   -0.62396E-04   -0.26195E-04   696   0.125E-02
  65 F= -.12537280E+04 E0= -.12536603E+04  d E =-.512554E-03
       N       E                     dE             d eps       ncg     rms          rms(c)
DAV:   1    -0.122322130373E+04   -0.25113E-03   -0.38238E-02  1152   0.165E-01    0.977E-02
DAV:   2    -0.122322341138E+04   -0.21077E-02   -0.55047E-03  1608   0.649E-02    0.522E-01
DAV:   3    -0.122322152074E+04    0.18906E-02   -0.47109E-03  1032   0.468E-02    0.203E-01
DAV:   4    -0.122322139199E+04    0.12875E-03   -0.25492E-04   696   0.131E-02    0.998E-02
DAV:   5    -0.122322136083E+04    0.31161E-04   -0.15485E-04   600   0.823E-03
  66 F= -.12537282E+04 E0= -.12536620E+04  d E =-.161266E-03
       N       E                     dE             d eps       ncg     rms          rms(c)
DAV:   1    -0.122322154149E+04   -0.14949E-03   -0.34661E-01  1152   0.493E-01    0.230E-01
DAV:   2    -0.122322593742E+04   -0.43959E-02   -0.16905E-02  1668   0.132E-01    0.668E-01
DAV:   3    -0.122322376331E+04    0.21741E-02   -0.15125E-02  1416   0.859E-02    0.670E-01
DAV:   4    -0.122322289229E+04    0.87102E-03   -0.21880E-03  1068   0.366E-02    0.323E-01
DAV:   5    -0.122322241199E+04    0.48030E-03   -0.38694E-04   828   0.165E-02    0.217E-01
DAV:   6    -0.122322222561E+04    0.18638E-03   -0.49493E-04   888   0.218E-02    0.157E-01
DAV:   7    -0.122322217350E+04    0.52110E-04   -0.47802E-04   756   0.143E-02
  67 F= -.12537288E+04 E0= -.12536611E+04  d E =-.723651E-03
       N       E                     dE             d eps       ncg     rms          rms(c)
DAV:   1    -0.122321972144E+04    0.25042E-02   -0.13884E+00  1152   0.986E-01    0.463E-01
DAV:   2    -0.122323394995E+04   -0.14229E-01   -0.70829E-02  1656   0.265E-01    0.979E-01
DAV:   3    -0.122322977041E+04    0.41795E-02   -0.67359E-02  1608   0.191E-01    0.162E+00
DAV:   4    -0.122322745229E+04    0.23181E-02   -0.14520E-02  1392   0.894E-02    0.679E-01
DAV:   5    -0.122322431896E+04    0.31333E-02   -0.17542E-03  1140   0.323E-02    0.530E-01
DAV:   6    -0.122322241532E+04    0.19036E-02   -0.17992E-03  1248   0.380E-02    0.245E-01
DAV:   7    -0.122322259440E+04   -0.17908E-03   -0.28210E-03   984   0.254E-02    0.361E-01
DAV:   8    -0.122322240228E+04    0.19212E-03   -0.25250E-03   852   0.199E-02    0.252E-01
DAV:   9    -0.122322210234E+04    0.29994E-03   -0.24453E-03   792   0.178E-02    0.161E-01
DAV:  10    -0.122322205773E+04    0.44609E-04   -0.17800E-03   684   0.103E-02    0.115E-01
DAV:  11    -0.122322201334E+04    0.44390E-04   -0.11672E-03   672   0.910E-03    0.834E-02
DAV:  12    -0.122322198854E+04    0.24800E-04   -0.60248E-04   660   0.657E-03
  68 F= -.12537281E+04 E0= -.12536622E+04  d E =-.537637E-04
       N       E                     dE             d eps       ncg     rms          rms(c)
DAV:   1    -0.122322115212E+04    0.86122E-03   -0.65315E-01  1152   0.675E-01    0.309E-01
DAV:   2    -0.122322565322E+04   -0.45011E-02   -0.22045E-02  1644   0.152E-01    0.999E-01
DAV:   3    -0.122322618098E+04   -0.52775E-03   -0.15648E-02  1452   0.901E-02    0.652E-01
DAV:   4    -0.122322298880E+04    0.31922E-02   -0.30922E-03  1272   0.434E-02    0.306E-01
DAV:   5    -0.122322256645E+04    0.42235E-03   -0.54481E-04   828   0.197E-02    0.237E-01
DAV:   6    -0.122322292377E+04   -0.35732E-03   -0.11301E-03  1080   0.304E-02    0.379E-01
DAV:   7    -0.122322245149E+04    0.47228E-03   -0.66193E-04   876   0.202E-02    0.119E-01
DAV:   8    -0.122322234701E+04    0.10448E-03   -0.55853E-04   660   0.131E-02    0.112E-01
DAV:   9    -0.122322228448E+04    0.62528E-04   -0.42935E-04   624   0.101E-02
  69 F= -.12537287E+04 E0= -.12536626E+04  d E =-.679752E-03
       N       E                     dE             d eps       ncg     rms          rms(c)
DAV:   1    -0.122322233321E+04    0.13793E-04   -0.13437E-01  1152   0.307E-01    0.149E-01
DAV:   2    -0.122322558247E+04   -0.32493E-02   -0.97716E-03  1668   0.932E-02    0.654E-01
DAV:   3    -0.122322330578E+04    0.22767E-02   -0.87052E-03  1140   0.606E-02    0.390E-01
DAV:   4    -0.122322295198E+04    0.35380E-03   -0.98730E-04   852   0.238E-02    0.251E-01
DAV:   5    -0.122322269597E+04    0.25601E-03   -0.22621E-04   684   0.124E-02    0.160E-01
DAV:   6    -0.122322255102E+04    0.14495E-03   -0.32297E-04   732   0.161E-02    0.941E-02
DAV:   7    -0.122322257628E+04   -0.25255E-04   -0.37712E-04   612   0.981E-03
  70 F= -.12537291E+04 E0= -.12536616E+04  d E =-.380500E-03
       N       E                     dE             d eps       ncg     rms          rms(c)
DAV:   1    -0.122322062102E+04    0.19300E-02   -0.12043E+00  1152   0.922E-01    0.406E-01
DAV:   2    -0.122324039156E+04   -0.19771E-01   -0.85138E-02  1644   0.285E-01    0.114E+00
DAV:   3    -0.122322372102E+04    0.16671E-01   -0.61754E-02  1560   0.177E-01    0.521E-01
DAV:   4    -0.122322396705E+04   -0.24602E-03   -0.29941E-03  1356   0.402E-02    0.496E-01
DAV:   5    -0.122322338914E+04    0.57791E-03   -0.12120E-03  1152   0.269E-02    0.359E-01
DAV:   6    -0.122322376006E+04   -0.37092E-03   -0.28704E-03  1116   0.443E-02    0.535E-01
DAV:   7    -0.122322249793E+04    0.12621E-02   -0.15059E-03   984   0.345E-02    0.993E-02
DAV:   8    -0.122322245548E+04    0.42451E-04   -0.12740E-03   708   0.134E-02    0.135E-01
DAV:   9    -0.122322245051E+04    0.49674E-05   -0.12507E-03   636   0.117E-02    0.153E-01
DAV:  10    -0.122322240376E+04    0.46755E-04   -0.80986E-04   624   0.894E-03
  71 F= -.12537292E+04 E0= -.12536622E+04  d E =-.485361E-03
       N       E                     dE             d eps       ncg     rms          rms(c)
DAV:   1    -0.122322239379E+04    0.56725E-04   -0.54731E-02  1152   0.196E-01    0.922E-02
DAV:   2    -0.122322266756E+04   -0.27378E-03   -0.32328E-03  1596   0.412E-02    0.198E-01
DAV:   3    -0.122322293469E+04   -0.26713E-03   -0.35319E-03   888   0.232E-02    0.279E-01
DAV:   4    -0.122322266162E+04    0.27308E-03   -0.17921E-03   816   0.227E-02    0.183E-01
DAV:   5    -0.122322253307E+04    0.12854E-03   -0.30031E-04   636   0.101E-02    0.877E-02
DAV:   6    -0.122322249563E+04    0.37448E-04   -0.13352E-04   636   0.684E-03
  72 F= -.12537292E+04 E0= -.12536636E+04  d E =-.517168E-03
       N       E                     dE             d eps       ncg     rms          rms(c)
DAV:   1    -0.122322232080E+04    0.21228E-03   -0.18631E-01  1152   0.363E-01    0.159E-01
DAV:   2    -0.122322480288E+04   -0.24821E-02   -0.83228E-03  1620   0.919E-02    0.787E-01
DAV:   3    -0.122322392028E+04    0.88259E-03   -0.60634E-03  1032   0.518E-02    0.398E-01
DAV:   4    -0.122322285280E+04    0.10675E-02   -0.87802E-04   876   0.235E-02    0.174E-01
DAV:   5    -0.122322264727E+04    0.20553E-03   -0.21695E-04   672   0.128E-02    0.109E-01
DAV:   6    -0.122322262028E+04    0.26986E-04   -0.17670E-04   720   0.115E-02
  73 F= -.12537292E+04 E0= -.12536625E+04  d E =-.531851E-03
       N       E                     dE             d eps       ncg     rms          rms(c)
DAV:   1    -0.122322260281E+04    0.44462E-04   -0.29120E-02  1152   0.142E-01    0.131E-01
DAV:   2    -0.122322592249E+04   -0.33197E-02   -0.85520E-03  1596   0.693E-02    0.627E-01
DAV:   3    -0.122322307112E+04    0.28514E-02   -0.98880E-03  1152   0.645E-02    0.336E-01
DAV:   4    -0.122322278194E+04    0.28917E-03   -0.10711E-03   792   0.218E-02    0.166E-01
DAV:   5    -0.122322262862E+04    0.15333E-03   -0.49473E-04   624   0.925E-03    0.899E-02
DAV:   6    -0.122322257826E+04    0.50360E-04   -0.40272E-04   624   0.875E-03
  74 F= -.12537292E+04 E0= -.12536636E+04  d E =-.532223E-03
       N       E                     dE             d eps       ncg     rms          rms(c)
DAV:   1    -0.122322247025E+04    0.15837E-03   -0.15397E-01  1152   0.332E-01    0.144E-01
DAV:   2    -0.122322560086E+04   -0.31306E-02   -0.97843E-03  1596   0.937E-02    0.618E-01
DAV:   3    -0.122322311263E+04    0.24882E-02   -0.73162E-03  1092   0.584E-02    0.283E-01
DAV:   4    -0.122322294363E+04    0.16900E-03   -0.53654E-04   828   0.190E-02    0.198E-01
DAV:   5    -0.122322280956E+04    0.13406E-03   -0.22125E-04   684   0.120E-02    0.135E-01
DAV:   6    -0.122322276637E+04    0.43194E-04   -0.36361E-04   792   0.166E-02
  75 F= -.12537298E+04 E0= -.12536628E+04  d E =-.582280E-03
       N       E                     dE             d eps       ncg     rms          rms(c)
DAV:   1    -0.122321970597E+04    0.31036E-02   -0.13853E+00  1152   0.997E-01    0.458E-01
DAV:   2    -0.122324718667E+04   -0.27481E-01   -0.11820E-01  1668   0.322E-01    0.133E+00
DAV:   3    -0.122322313796E+04    0.24049E-01   -0.81071E-02  1608   0.212E-01    0.462E-01
DAV:   4    -0.122322350771E+04   -0.36975E-03   -0.29405E-03  1404   0.402E-02    0.509E-01
DAV:   5    -0.122322284565E+04    0.66206E-03   -0.21353E-03  1440   0.384E-02    0.361E-01
DAV:   6    -0.122322367924E+04   -0.83359E-03   -0.30432E-03  1200   0.481E-02    0.656E-01
DAV:   7    -0.122322191757E+04    0.17617E-02   -0.15008E-03  1116   0.402E-02    0.127E-01
DAV:   8    -0.122322186122E+04    0.56348E-04   -0.29609E-04   804   0.207E-02
  76 F= -.12537301E+04 E0= -.12536621E+04  d E =-.872004E-03
       N       E                     dE             d eps       ncg     rms          rms(c)
DAV:   1    -0.122322195178E+04   -0.34215E-04   -0.48092E-02  1152   0.187E-01    0.137E-01
DAV:   2    -0.122322782263E+04   -0.58708E-02   -0.14597E-02  1548   0.888E-02    0.779E-01
DAV:   3    -0.122322225840E+04    0.55642E-02   -0.12332E-02  1188   0.713E-02    0.150E-01
DAV:   4    -0.122322224123E+04    0.17165E-04   -0.83197E-04   780   0.144E-02
  77 F= -.12537303E+04 E0= -.12536659E+04  d E =-.103044E-02
       N       E                     dE             d eps       ncg     rms          rms(c)
DAV:   1    -0.122322234649E+04   -0.88096E-04   -0.23141E-01  1152   0.407E-01    0.204E-01
DAV:   2    -0.122323377592E+04   -0.11429E-01   -0.19888E-02  1644   0.122E-01    0.200E+00
DAV:   3    -0.122322570274E+04    0.80732E-02   -0.13340E-02  1308   0.817E-02    0.473E-01
DAV:   4    -0.122322293914E+04    0.27636E-02   -0.14630E-03  1008   0.272E-02    0.196E-01
DAV:   5    -0.122322276153E+04    0.17761E-03   -0.11293E-03   720   0.185E-02    0.212E-01
DAV:   6    -0.122322262274E+04    0.13879E-03   -0.13412E-03   732   0.153E-02    0.125E-01
DAV:   7    -0.122322265273E+04   -0.29994E-04   -0.21355E-03   732   0.178E-02    0.158E-01
DAV:   8    -0.122322253523E+04    0.11750E-03   -0.13999E-03   660   0.111E-02    0.562E-02
DAV:   9    -0.122322257202E+04   -0.36790E-04   -0.95982E-04   624   0.861E-03
  78 F= -.12537301E+04 E0= -.12536643E+04  d E =-.873021E-03
       N       E                     dE             d eps       ncg     rms          rms(c)
DAV:   1    -0.122322205720E+04    0.47803E-03   -0.22419E-01  1152   0.398E-01    0.183E-01
DAV:   2    -0.122322326056E+04   -0.12034E-02   -0.80020E-03  1668   0.898E-02    0.361E-01
DAV:   3    -0.122322556868E+04   -0.23081E-02   -0.84465E-03  1176   0.629E-02    0.970E-01
DAV:   4    -0.122322322087E+04    0.23478E-02   -0.33902E-03  1032   0.431E-02    0.260E-01
DAV:   5    -0.122322260859E+04    0.61228E-03   -0.43279E-04   780   0.165E-02    0.140E-01
DAV:   6    -0.122322251022E+04    0.98379E-04   -0.26437E-04   672   0.132E-02
  79 F= -.12537307E+04 E0= -.12536651E+04  d E =-.549739E-03
       N       E                     dE             d eps       ncg     rms          rms(c)
DAV:   1    -0.122322170148E+04    0.90712E-03   -0.19481E-01  1152   0.371E-01    0.206E-01
DAV:   2    -0.122322729346E+04   -0.55920E-02   -0.20174E-02  1644   0.114E-01    0.823E-01
DAV:   3    -0.122322352791E+04    0.37656E-02   -0.20487E-02  1320   0.855E-02    0.563E-01
DAV:   4    -0.122322301693E+04    0.51097E-03   -0.36083E-03   984   0.354E-02    0.380E-01
DAV:   5    -0.122322236361E+04    0.65333E-03   -0.63524E-04   696   0.160E-02    0.222E-01
DAV:   6    -0.122322205739E+04    0.30621E-03   -0.74208E-04   756   0.193E-02    0.142E-01
DAV:   7    -0.122322212971E+04   -0.72319E-04   -0.10816E-03   720   0.134E-02    0.194E-01
DAV:   8    -0.122322199299E+04    0.13673E-03   -0.65955E-04   636   0.116E-02    0.558E-02
DAV:   9    -0.122322201394E+04   -0.20956E-04   -0.45371E-04   624   0.729E-03
  80 F= -.12537307E+04 E0= -.12536635E+04  d E =-.629126E-03
       N       E                     dE             d eps       ncg     rms          rms(c)
DAV:   1    -0.122322150840E+04    0.48459E-03   -0.10550E-01  1152   0.273E-01    0.136E-01
DAV:   2    -0.122322394232E+04   -0.24339E-02   -0.73529E-03  1620   0.822E-02    0.547E-01
DAV:   3    -0.122322213833E+04    0.18040E-02   -0.61456E-03  1116   0.551E-02    0.320E-01
DAV:   4    -0.122322188408E+04    0.25425E-03   -0.40212E-04   708   0.183E-02    0.165E-01
DAV:   5    -0.122322178056E+04    0.10352E-03   -0.14709E-04   672   0.103E-02    0.119E-01
DAV:   6    -0.122322175589E+04    0.24669E-04   -0.15511E-04   684   0.136E-02
  81 F= -.12537309E+04 E0= -.12536640E+04  d E =-.172812E-03
       N       E                     dE             d eps       ncg     rms          rms(c)
DAV:   1    -0.122322028966E+04    0.14909E-02   -0.36860E-01  1152   0.511E-01    0.252E-01
DAV:   2    -0.122322652167E+04   -0.62320E-02   -0.22802E-02  1668   0.147E-01    0.821E-01
DAV:   3    -0.122322316160E+04    0.33601E-02   -0.20363E-02  1440   0.970E-02    0.740E-01
DAV:   4    -0.122322243935E+04    0.72225E-03   -0.38881E-03  1104   0.442E-02    0.430E-01
DAV:   5    -0.122322144176E+04    0.99759E-03   -0.52619E-04   852   0.197E-02    0.263E-01
DAV:   6    -0.122322104498E+04    0.39678E-03   -0.61045E-04   876   0.219E-02    0.138E-01
DAV:   7    -0.122322118823E+04   -0.14325E-03   -0.52630E-04   804   0.146E-02    0.245E-01
DAV:   8    -0.122322097933E+04    0.20890E-03   -0.49010E-04   636   0.111E-02    0.846E-02
DAV:   9    -0.122322099823E+04   -0.18904E-04   -0.40679E-04   636   0.851E-03
  82 F= -.12537310E+04 E0= -.12536633E+04  d E =-.225553E-03
       N       E                     dE             d eps       ncg     rms          rms(c)
DAV:   1    -0.122322119831E+04   -0.21898E-03   -0.34948E-02  1152   0.156E-01    0.112E-01
DAV:   2    -0.122322445079E+04   -0.32525E-02   -0.90607E-03  1560   0.688E-02    0.644E-01
DAV:   3    -0.122322163973E+04    0.28111E-02   -0.86282E-03  1140   0.574E-02    0.254E-01
DAV:   4    -0.122322138685E+04    0.25289E-03   -0.63541E-04   708   0.137E-02    0.137E-01
DAV:   5    -0.122322133204E+04    0.54811E-04   -0.70058E-04   672   0.107E-02
  83 F= -.12537313E+04 E0= -.12536659E+04  d E =-.347420E-03
       N       E                     dE             d eps       ncg     rms          rms(c)
DAV:   1    -0.122322127075E+04    0.11610E-03   -0.37123E-02  1152   0.161E-01    0.906E-02
DAV:   2    -0.122322292062E+04   -0.16499E-02   -0.39764E-03  1500   0.527E-02    0.476E-01
DAV:   3    -0.122322145736E+04    0.14633E-02   -0.38448E-03  1080   0.414E-02    0.188E-01
DAV:   4    -0.122322136838E+04    0.88985E-04   -0.33649E-04   684   0.128E-02
  84 F= -.12537314E+04 E0= -.12536671E+04  d E =-.398500E-03
       N       E                     dE             d eps       ncg     rms          rms(c)
DAV:   1    -0.122322183439E+04   -0.37703E-03   -0.39450E-02  1152   0.169E-01    0.102E-01
DAV:   2    -0.122322282685E+04   -0.99245E-03   -0.25659E-03  1512   0.474E-02    0.482E-01
DAV:   3    -0.122322237965E+04    0.44719E-03   -0.28878E-03  1104   0.366E-02    0.289E-01
DAV:   4    -0.122322189965E+04    0.48001E-03   -0.41595E-04   708   0.168E-02    0.725E-02
DAV:   5    -0.122322188011E+04    0.19539E-04   -0.12227E-04   648   0.637E-03
  85 F= -.12537317E+04 E0= -.12536665E+04  d E =-.307902E-03
       N       E                     dE             d eps       ncg     rms          rms(c)
DAV:   1    -0.122322217347E+04   -0.27383E-03   -0.55164E-02  1152   0.201E-01    0.116E-01
DAV:   2    -0.122322337813E+04   -0.12047E-02   -0.51865E-03  1596   0.513E-02    0.534E-01
DAV:   3    -0.122322299579E+04    0.38235E-03   -0.55458E-03  1176   0.414E-02    0.342E-01
DAV:   4    -0.122322231406E+04    0.68172E-03   -0.92306E-04   804   0.210E-02    0.102E-01
DAV:   5    -0.122322227266E+04    0.41409E-04   -0.47229E-04   732   0.777E-03
  86 F= -.12537318E+04 E0= -.12536663E+04  d E =-.461079E-03
       N       E                     dE             d eps       ncg     rms          rms(c)
DAV:   1    -0.122322273605E+04   -0.42199E-03   -0.55806E-02  1152   0.197E-01    0.106E-01
DAV:   2    -0.122322338987E+04   -0.65382E-03   -0.35052E-03  1440   0.431E-02    0.358E-01
DAV:   3    -0.122322346766E+04   -0.77785E-04   -0.37531E-03   996   0.353E-02    0.325E-01
DAV:   4    -0.122322285252E+04    0.61514E-03   -0.10252E-03   840   0.223E-02    0.900E-02
DAV:   5    -0.122322283416E+04    0.18355E-04   -0.37705E-04   660   0.668E-03
  87 F= -.12537323E+04 E0= -.12536668E+04  d E =-.424014E-03
       N       E                     dE             d eps       ncg     rms          rms(c)
DAV:   1    -0.122322289689E+04   -0.44373E-04   -0.16903E-02  1140   0.108E-01    0.781E-02
DAV:   2    -0.122322379782E+04   -0.90093E-03   -0.29198E-03  1128   0.332E-02    0.465E-01
DAV:   3    -0.122322321067E+04    0.58715E-03   -0.30802E-03   972   0.325E-02    0.226E-01
DAV:   4    -0.122322294170E+04    0.26897E-03   -0.43185E-04   672   0.124E-02    0.747E-02
DAV:   5    -0.122322292152E+04    0.20180E-04   -0.35787E-04   648   0.574E-03
  88 F= -.12537323E+04 E0= -.12536666E+04  d E =-.436445E-03
       N       E                     dE             d eps       ncg     rms          rms(c)
DAV:   1    -0.122322302481E+04   -0.83110E-04   -0.43925E-02  1152   0.171E-01    0.778E-02
DAV:   2    -0.122322364573E+04   -0.62092E-03   -0.19217E-03  1416   0.428E-02    0.366E-01
DAV:   3    -0.122322324979E+04    0.39594E-03   -0.12165E-03   888   0.252E-02    0.170E-01
DAV:   4    -0.122322313030E+04    0.11949E-03   -0.11145E-04   660   0.102E-02    0.746E-02
DAV:   5    -0.122322311133E+04    0.18973E-04   -0.42782E-05   624   0.520E-03
  89 F= -.12537325E+04 E0= -.12536670E+04  d E =-.240965E-03
       N       E                     dE             d eps       ncg     rms          rms(c)
DAV:   1    -0.122322307669E+04    0.53613E-04   -0.11748E-02  1140   0.896E-02    0.631E-02
DAV:   2    -0.122322321423E+04   -0.13754E-03   -0.32498E-04   804   0.190E-02    0.158E-01
DAV:   3    -0.122322312625E+04    0.87979E-04   -0.75423E-05   612   0.922E-03
  90 F= -.12537325E+04 E0= -.12536658E+04  d E =-.283288E-03
       N       E                     dE             d eps       ncg     rms          rms(c)
DAV:   1    -0.122322320017E+04    0.14064E-04   -0.15399E-03  1068   0.327E-02    0.146E-01
DAV:   2    -0.122324104748E+04   -0.17847E-01   -0.17710E-02  1296   0.876E-02    0.269E+00
DAV:   3    -0.122322885314E+04    0.12194E-01   -0.15011E-02  1260   0.860E-02    0.447E-01
DAV:   4    -0.122322383554E+04    0.50176E-02   -0.24509E-03  1080   0.349E-02    0.268E-01
DAV:   5    -0.122322323660E+04    0.59895E-03   -0.42704E-04   708   0.159E-02    0.114E-01
DAV:   6    -0.122322326168E+04   -0.25081E-04   -0.28467E-04   636   0.851E-03
  91 F= -.12537327E+04 E0= -.12536667E+04  d E =-.409565E-03
       N       E                     dE             d eps       ncg     rms          rms(c)
DAV:   1    -0.122322301430E+04    0.22230E-03   -0.29403E-02  1152   0.139E-01    0.865E-02
[...]
DAV:  10    -0.122322523037E+04    0.10452E-03   -0.11868E-03   636   0.106E-02    0.104E-01
DAV:  11    -0.122322517905E+04    0.51324E-04   -0.81515E-04   636   0.858E-03
 254 F= -.12537522E+04 E0= -.12536859E+04  d E =-.230646E-02
       N       E                     dE             d eps       ncg     rms          rms(c)
DAV:   1    -0.122321299290E+04    0.12237E-01   -0.54351E+00  1152   0.199E+00    0.998E-01
DAV:   2    -0.122322888309E+04   -0.15890E-01   -0.16750E-01  1668   0.413E-01    0.794E-01
DAV:   3    -0.122336591509E+04   -0.13703E+00   -0.28304E-01  1596   0.312E-01    0.787E+00
DAV:   4    -0.122327375871E+04    0.92156E-01   -0.14934E-01  1596   0.222E-01    0.111E+00
DAV:   5    -0.122322946633E+04    0.44292E-01   -0.20617E-02  1524   0.988E-02    0.795E-01
DAV:   6    -0.122322619036E+04    0.32760E-02   -0.34110E-03  1488   0.515E-02    0.519E-01
DAV:   7    -0.122322496156E+04    0.12288E-02   -0.31470E-03  1332   0.336E-02    0.408E-01
DAV:   8    -0.122322432462E+04    0.63694E-03   -0.14178E-03  1068   0.288E-02    0.249E-01
DAV:   9    -0.122322409384E+04    0.23078E-03   -0.18023E-03   876   0.187E-02    0.275E-01
DAV:  10    -0.122322385949E+04    0.23435E-03   -0.15237E-03   732   0.145E-02    0.137E-01
DAV:  11    -0.122322377012E+04    0.89377E-04   -0.10359E-03   756   0.132E-02    0.128E-01
DAV:  12    -0.122322372963E+04    0.40488E-04   -0.62998E-04   636   0.741E-03
 255 F= -.12537522E+04 E0= -.12536862E+04  d E =-.225339E-02
       N       E                     dE             d eps       ncg     rms          rms(c)
DAV:   1    -0.122322245680E+04    0.13133E-02   -0.12754E+00  1152   0.962E-01    0.488E-01
DAV:   2    -0.122322557666E+04   -0.31199E-02   -0.40152E-02  1656   0.191E-01    0.335E-01
DAV:   3    -0.122322585999E+04   -0.28333E-03   -0.15094E-02  1380   0.468E-02    0.437E-01
DAV:   4    -0.122322571729E+04    0.14270E-03   -0.17654E-02  1308   0.267E-02    0.350E-01
DAV:   5    -0.122322738118E+04   -0.16639E-02   -0.12028E-02  1080   0.426E-02    0.800E-01
DAV:   6    -0.122322547180E+04    0.19094E-02   -0.45306E-03  1080   0.375E-02    0.193E-01
DAV:   7    -0.122322527406E+04    0.19774E-03   -0.70365E-04   816   0.170E-02    0.241E-01
DAV:   8    -0.122322499495E+04    0.27912E-03   -0.22783E-04   660   0.135E-02    0.854E-02
DAV:   9    -0.122322505834E+04   -0.63393E-04   -0.98806E-05   636   0.115E-02
 256 F= -.12537528E+04 E0= -.12536869E+04  d E =-.290237E-02
       N       E                     dE             d eps       ncg     rms          rms(c)
DAV:   1    -0.122322475091E+04    0.24404E-03   -0.54656E-01  1152   0.633E-01    0.291E-01
DAV:   2    -0.122322620082E+04   -0.14499E-02   -0.17617E-02  1620   0.119E-01    0.312E-01
DAV:   3    -0.122322632008E+04   -0.11926E-03   -0.83131E-03  1212   0.300E-02    0.337E-01
DAV:   4    -0.122322609790E+04    0.22218E-03   -0.83757E-03  1008   0.216E-02    0.241E-01
DAV:   5    -0.122322606832E+04    0.29579E-04   -0.77884E-03   780   0.211E-02    0.264E-01
DAV:   6    -0.122322605111E+04    0.17210E-04   -0.43540E-03   852   0.270E-02    0.247E-01
DAV:   7    -0.122322572970E+04    0.32141E-03   -0.16969E-03   804   0.209E-02    0.134E-01
DAV:   8    -0.122322565157E+04    0.78131E-04   -0.45658E-04   636   0.894E-03
 257 F= -.12537538E+04 E0= -.12536895E+04  d E =-.985382E-03
       N       E                     dE             d eps       ncg     rms          rms(c)
DAV:   1    -0.122321707027E+04    0.86594E-02   -0.49071E+00  1152   0.190E+00    0.834E-01
DAV:   2    -0.122322763260E+04   -0.10562E-01   -0.14230E-01  1620   0.346E-01    0.625E-01
DAV:   3    -0.122323273208E+04   -0.50995E-02   -0.60337E-02  1524   0.112E-01    0.139E+00
DAV:   4    -0.122323330417E+04   -0.57209E-03   -0.59449E-02  1608   0.122E-01    0.830E-01
DAV:   5    -0.122322605887E+04    0.72453E-02   -0.18263E-02  1404   0.673E-02    0.392E-01
DAV:   6    -0.122322576376E+04    0.29511E-03   -0.10836E-02  1152   0.287E-02    0.367E-01
DAV:   7    -0.122322552505E+04    0.23871E-03   -0.53510E-03  1284   0.329E-02    0.296E-01
DAV:   8    -0.122322547273E+04    0.52315E-04   -0.23558E-03  1080   0.292E-02    0.251E-01
DAV:   9    -0.122322520625E+04    0.26648E-03   -0.42085E-04   816   0.180E-02    0.128E-01
DAV:  10    -0.122322516389E+04    0.42359E-04   -0.11453E-04   684   0.971E-03
 258 F= -.12537545E+04 E0= -.12536904E+04  d E =-.168865E-02
       N       E                     dE             d eps       ncg     rms          rms(c)
DAV:   1    -0.122322495112E+04    0.25513E-03   -0.45273E-01  1152   0.571E-01    0.264E-01
DAV:   2    -0.122322641260E+04   -0.14615E-02   -0.13235E-02  1572   0.110E-01    0.373E-01
DAV:   3    -0.122323099548E+04   -0.45829E-02   -0.11055E-02  1320   0.642E-02    0.128E+00
DAV:   4    -0.122322791671E+04    0.30788E-02   -0.95874E-03  1116   0.650E-02    0.431E-01
DAV:   5    -0.122322619849E+04    0.17182E-02   -0.10800E-03  1128   0.252E-02    0.259E-01
DAV:   6    -0.122322580424E+04    0.39425E-03   -0.43917E-04   696   0.149E-02    0.149E-01
DAV:   7    -0.122322581679E+04   -0.12557E-04   -0.10673E-03   720   0.151E-02    0.167E-01
DAV:   8    -0.122322568310E+04    0.13369E-03   -0.11061E-03   648   0.114E-02    0.641E-02
DAV:   9    -0.122322570454E+04   -0.21433E-04   -0.71476E-04   636   0.919E-03
 259 F= -.12537547E+04 E0= -.12536885E+04  d E =-.186536E-02
       N       E                     dE             d eps       ncg     rms          rms(c)
DAV:   1    -0.122322516141E+04    0.52169E-03   -0.11037E+00  1152   0.902E-01    0.324E-01
DAV:   2    -0.122322719511E+04   -0.20337E-02   -0.26700E-02  1584   0.154E-01    0.261E-01
DAV:   3    -0.122322842011E+04   -0.12250E-02   -0.82738E-03  1512   0.559E-02    0.655E-01
DAV:   4    -0.122322810847E+04    0.31164E-03   -0.93710E-03  1296   0.584E-02    0.440E-01
DAV:   5    -0.122322680189E+04    0.13066E-02   -0.21164E-03  1152   0.321E-02    0.157E-01
DAV:   6    -0.122322680991E+04   -0.80245E-05   -0.14158E-03   840   0.137E-02    0.187E-01
DAV:   7    -0.122322670369E+04    0.10622E-03   -0.16135E-03   804   0.167E-02    0.856E-02
DAV:   8    -0.122322671926E+04   -0.15572E-04   -0.11574E-03   708   0.129E-02    0.115E-01
DAV:   9    -0.122322668279E+04    0.36475E-04   -0.12468E-03   672   0.924E-03    0.770E-02
DAV:  10    -0.122322666987E+04    0.12915E-04   -0.81616E-04   660   0.761E-03
 260 F= -.12537562E+04 E0= -.12536909E+04  d E =-.148880E-02
       N       E                     dE             d eps       ncg     rms          rms(c)
DAV:   1    -0.122321521027E+04    0.11473E-01   -0.81816E+00  1152   0.245E+00    0.892E-01
DAV:   2    -0.122323176710E+04   -0.16557E-01   -0.19240E-01  1572   0.429E-01    0.100E+00
DAV:   3    -0.122326065373E+04   -0.28887E-01   -0.13424E-01  1656   0.250E-01    0.161E+00
DAV:   4    -0.122323130959E+04    0.29344E-01   -0.78066E-02  1644   0.209E-01    0.759E-01
DAV:   5    -0.122322855649E+04    0.27531E-02   -0.11773E-02  1548   0.643E-02    0.558E-01
DAV:   6    -0.122323385901E+04   -0.53025E-02   -0.12802E-02  1512   0.722E-02    0.159E+00
DAV:   7    -0.122323107641E+04    0.27826E-02   -0.12821E-02  1524   0.886E-02    0.727E-01
DAV:   8    -0.122322710539E+04    0.39710E-02   -0.21046E-03  1188   0.380E-02    0.225E-01
DAV:   9    -0.122322706048E+04    0.44910E-04   -0.49155E-04   900   0.209E-02
 261 F= -.12537580E+04 E0= -.12536986E+04  d E =-.333039E-02
       N       E                     dE             d eps       ncg     rms          rms(c)
DAV:   1    -0.122322629694E+04    0.80845E-03   -0.33087E-01  1152   0.497E-01    0.200E-01
DAV:   2    -0.122322765755E+04   -0.13606E-02   -0.11485E-02  1560   0.883E-02    0.453E-01
DAV:   3    -0.122322889624E+04   -0.12387E-02   -0.93323E-03  1128   0.501E-02    0.755E-01
DAV:   4    -0.122322805115E+04    0.84510E-03   -0.66781E-03  1068   0.523E-02    0.420E-01
DAV:   5    -0.122322691322E+04    0.11379E-02   -0.69812E-04  1020   0.216E-02    0.185E-01
DAV:   6    -0.122322678216E+04    0.13106E-03   -0.32901E-04   720   0.143E-02    0.188E-01
DAV:   7    -0.122322665335E+04    0.12881E-03   -0.49557E-04   660   0.135E-02    0.101E-01
DAV:   8    -0.122322663467E+04    0.18676E-04   -0.69156E-04   648   0.104E-02
 262 F= -.12537573E+04 E0= -.12536923E+04  d E =-.261071E-02
       N       E                     dE             d eps       ncg     rms          rms(c)
DAV:   1    -0.122322441963E+04    0.22337E-02   -0.14882E+00  1152   0.104E+00    0.414E-01
DAV:   2    -0.122322894789E+04   -0.45283E-02   -0.40176E-02  1584   0.203E-01    0.541E-01
DAV:   3    -0.122325272098E+04   -0.23773E-01   -0.41692E-02  1632   0.151E-01    0.332E+00
DAV:   4    -0.122323587339E+04    0.16848E-01   -0.21054E-02  1536   0.106E-01    0.577E-01
DAV:   5    -0.122322801777E+04    0.78556E-02   -0.39402E-03  1224   0.450E-02    0.387E-01
DAV:   6    -0.122322700779E+04    0.10100E-02   -0.85567E-04  1140   0.291E-02    0.193E-01
DAV:   7    -0.122322706443E+04   -0.56637E-04   -0.10688E-03   924   0.195E-02    0.258E-01
DAV:   8    -0.122322684868E+04    0.21575E-03   -0.10831E-03   744   0.155E-02    0.140E-01
DAV:   9    -0.122322686037E+04   -0.11687E-04   -0.98887E-04   684   0.117E-02
 263 F= -.12537584E+04 E0= -.12536907E+04  d E =-.110530E-02
       N       E                     dE             d eps       ncg     rms          rms(c)
DAV:   1    -0.122322627568E+04    0.57300E-03   -0.12416E-01  1152   0.303E-01    0.142E-01
DAV:   2    -0.122322957837E+04   -0.33027E-02   -0.10982E-02  1596   0.902E-02    0.624E-01
DAV:   3    -0.122322695268E+04    0.26257E-02   -0.95067E-03  1236   0.648E-02    0.320E-01
DAV:   4    -0.122322664337E+04    0.30931E-03   -0.72415E-04   768   0.193E-02    0.171E-01
DAV:   5    -0.122322655089E+04    0.92477E-04   -0.44016E-04   660   0.114E-02
 264 F= -.12537583E+04 E0= -.12536934E+04  d E =-.105144E-02
       N       E                     dE             d eps       ncg     rms          rms(c)
DAV:   1    -0.122322454005E+04    0.21033E-02   -0.14105E+00  1152   0.102E+00    0.466E-01
DAV:   2    -0.122322971077E+04   -0.51707E-02   -0.44432E-02  1632   0.205E-01    0.610E-01
DAV:   3    -0.122325704742E+04   -0.27337E-01   -0.54709E-02  1584   0.164E-01    0.359E+00
DAV:   4    -0.122323781634E+04    0.19231E-01   -0.24762E-02  1488   0.114E-01    0.647E-01
DAV:   5    -0.122322852935E+04    0.92870E-02   -0.43367E-03  1260   0.464E-02    0.440E-01
DAV:   6    -0.122322754788E+04    0.98147E-03   -0.13297E-03  1104   0.269E-02    0.287E-01
DAV:   7    -0.122322743465E+04    0.11323E-03   -0.17067E-03  1164   0.229E-02    0.288E-01
DAV:   8    -0.122322720810E+04    0.22655E-03   -0.12224E-03   864   0.197E-02    0.192E-01
DAV:   9    -0.122322711157E+04    0.96526E-04   -0.15262E-03   708   0.148E-02    0.187E-01
DAV:  10    -0.122322698194E+04    0.12963E-03   -0.88416E-04   672   0.978E-03    0.750E-02
DAV:  11    -0.122322698106E+04    0.88066E-06   -0.68705E-04   672   0.807E-03
 265 F= -.12537597E+04 E0= -.12536936E+04  d E =-.139535E-02
       N       E                     dE             d eps       ncg     rms          rms(c)
DAV:   1    -0.122322185071E+04    0.51312E-02   -0.25708E+00  1152   0.137E+00    0.627E-01
DAV:   2    -0.122322862925E+04   -0.67785E-02   -0.72989E-02  1620   0.269E-01    0.556E-01
DAV:   3    -0.122329144229E+04   -0.62813E-01   -0.74068E-02  1608   0.206E-01    0.550E+00
DAV:   4    -0.122325093739E+04    0.40505E-01   -0.40169E-02  1572   0.150E-01    0.733E-01
DAV:   5    -0.122322919049E+04    0.21747E-01   -0.96271E-03  1380   0.694E-02    0.583E-01
DAV:   6    -0.122322728822E+04    0.19023E-02   -0.16296E-03  1308   0.365E-02    0.267E-01
DAV:   7    -0.122322739165E+04   -0.10343E-03   -0.17666E-03  1104   0.250E-02    0.408E-01
DAV:   8    -0.122322673095E+04    0.66070E-03   -0.16740E-03   876   0.215E-02    0.160E-01
DAV:   9    -0.122322686781E+04   -0.13686E-03   -0.16997E-03   744   0.146E-02    0.306E-01
DAV:  10    -0.122322654412E+04    0.32369E-03   -0.13119E-03   708   0.120E-02    0.142E-01
DAV:  11    -0.122322659177E+04   -0.47651E-04   -0.92551E-04   696   0.104E-02
 266 F= -.12537606E+04 E0= -.12536934E+04  d E =-.231601E-02
       N       E                     dE             d eps       ncg     rms          rms(c)
DAV:   1    -0.122322369559E+04    0.28485E-02   -0.18016E+00  1152   0.114E+00    0.553E-01
DAV:   2    -0.122322964564E+04   -0.59500E-02   -0.55513E-02  1620   0.232E-01    0.613E-01
DAV:   3    -0.122327971998E+04   -0.50074E-01   -0.68578E-02  1620   0.193E-01    0.492E+00
DAV:   4    -0.122324706716E+04    0.32653E-01   -0.35099E-02  1548   0.140E-01    0.674E-01
DAV:   5    -0.122323001117E+04    0.17056E-01   -0.80926E-03  1320   0.625E-02    0.638E-01
DAV:   6    -0.122322797030E+04    0.20409E-02   -0.14330E-03  1176   0.335E-02    0.261E-01
DAV:   7    -0.122322833308E+04   -0.36278E-03   -0.15355E-03  1104   0.251E-02    0.483E-01
DAV:   8    -0.122322750144E+04    0.83164E-03   -0.95274E-04   852   0.223E-02    0.196E-01
DAV:   9    -0.122322761836E+04   -0.11692E-03   -0.10319E-03   696   0.154E-02    0.358E-01
DAV:  10    -0.122322718046E+04    0.43790E-03   -0.67871E-04   636   0.109E-02    0.138E-01
DAV:  11    -0.122322722979E+04   -0.49330E-04   -0.52188E-04   648   0.102E-02
 267 F= -.12537623E+04 E0= -.12536949E+04  d E =-.164877E-02
       N       E                     dE             d eps       ncg     rms          rms(c)
DAV:   1    -0.122322715126E+04    0.29196E-04   -0.64226E-03  1128   0.671E-02    0.127E-01
DAV:   2    -0.122323002763E+04   -0.28764E-02   -0.60726E-03  1164   0.558E-02    0.625E-01
DAV:   3    -0.122322803662E+04    0.19910E-02   -0.88714E-03  1152   0.626E-02    0.428E-01
DAV:   4    -0.122322754855E+04    0.48807E-03   -0.79082E-04   792   0.216E-02    0.222E-01
DAV:   5    -0.122322734778E+04    0.20077E-03   -0.19422E-04   672   0.102E-02    0.167E-01
DAV:   6    -0.122322719524E+04    0.15255E-03   -0.15732E-04   660   0.888E-03    0.701E-02
DAV:   7    -0.122322725642E+04   -0.61184E-04   -0.92249E-05   612   0.640E-03
 268 F= -.12537623E+04 E0= -.12536958E+04  d E =-.161602E-02
       N       E                     dE             d eps       ncg     rms          rms(c)
DAV:   1    -0.122322554549E+04    0.16497E-02   -0.10535E+00  1152   0.874E-01    0.407E-01
DAV:   2    -0.122322869374E+04   -0.31483E-02   -0.30443E-02  1620   0.173E-01    0.467E-01
DAV:   3    -0.122325232177E+04   -0.23628E-01   -0.34337E-02  1632   0.134E-01    0.323E+00
DAV:   4    -0.122323607882E+04    0.16243E-01   -0.20754E-02  1416   0.104E-01    0.523E-01
DAV:   5    -0.122322912963E+04    0.69492E-02   -0.39059E-03  1224   0.430E-02    0.508E-01
DAV:   6    -0.122322781509E+04    0.13145E-02   -0.10250E-03  1020   0.255E-02    0.174E-01
DAV:   7    -0.122322815345E+04   -0.33836E-03   -0.11772E-03   936   0.201E-02    0.386E-01
DAV:   8    -0.122322751647E+04    0.63699E-03   -0.11239E-03   792   0.195E-02    0.124E-01
DAV:   9    -0.122322766509E+04   -0.14863E-03   -0.87303E-04   696   0.129E-02    0.276E-01
DAV:  10    -0.122322739314E+04    0.27195E-03   -0.82324E-04   660   0.926E-03    0.129E-01
DAV:  11    -0.122322742416E+04   -0.31017E-04   -0.45359E-04   660   0.831E-03
 269 F= -.12537634E+04 E0= -.12536966E+04  d E =-.114331E-02
       N       E                     dE             d eps       ncg     rms          rms(c)
DAV:   1    -0.122322623806E+04    0.11551E-02   -0.41385E-01  1152   0.551E-01    0.298E-01
DAV:   2    -0.122322994463E+04   -0.37066E-02   -0.18322E-02  1632   0.126E-01    0.688E-01
DAV:   3    -0.122323618067E+04   -0.62360E-02   -0.27310E-02  1512   0.108E-01    0.177E+00
DAV:   4    -0.122323032602E+04    0.58547E-02   -0.11334E-02  1224   0.721E-02    0.447E-01
DAV:   5    -0.122322770350E+04    0.26225E-02   -0.15057E-03  1128   0.286E-02    0.337E-01
DAV:   6    -0.122322704660E+04    0.65690E-03   -0.65221E-04   876   0.183E-02    0.143E-01
DAV:   7    -0.122322716179E+04   -0.11519E-03   -0.12344E-03   768   0.147E-02    0.231E-01
DAV:   8    -0.122322692837E+04    0.23342E-03   -0.11258E-03   732   0.147E-02    0.121E-01
DAV:   9    -0.122322696894E+04   -0.40577E-04   -0.65648E-04   696   0.112E-02
 270 F= -.12537636E+04 E0= -.12536969E+04  d E =-.130197E-02
       N       E                     dE             d eps       ncg     rms          rms(c)
DAV:   1    -0.122322547462E+04    0.14537E-02   -0.82970E-01  1152   0.789E-01    0.338E-01
DAV:   2    -0.122323059335E+04   -0.51187E-02   -0.27286E-02  1584   0.164E-01    0.745E-01
DAV:   3    -0.122323712840E+04   -0.65350E-02   -0.30076E-02  1572   0.122E-01    0.189E+00
DAV:   4    -0.122323096265E+04    0.61657E-02   -0.13176E-02  1272   0.805E-02    0.500E-01
DAV:   5    -0.122322757262E+04    0.33900E-02   -0.23031E-03  1356   0.338E-02    0.364E-01
DAV:   6    -0.122322683346E+04    0.73916E-03   -0.11710E-03  1008   0.193E-02    0.162E-01
DAV:   7    -0.122322703105E+04   -0.19759E-03   -0.21642E-03   852   0.180E-02    0.289E-01
DAV:   8    -0.122322674916E+04    0.28189E-03   -0.20034E-03   804   0.148E-02    0.172E-01
DAV:   9    -0.122322674895E+04    0.20537E-06   -0.11431E-03   720   0.128E-02    0.189E-01
DAV:  10    -0.122322663961E+04    0.10934E-03   -0.88838E-04   672   0.786E-03    0.122E-01
DAV:  11    -0.122322663718E+04    0.24343E-05   -0.40097E-04   660   0.700E-03
 271 F= -.12537641E+04 E0= -.12536979E+04  d E =-.550934E-03
       N       E                     dE             d eps       ncg     rms          rms(c)
DAV:   1    -0.122322673343E+04   -0.93813E-04   -0.14693E-02  1140   0.104E-01    0.929E-02
DAV:   2    -0.122322765947E+04   -0.92604E-03   -0.24349E-03  1176   0.362E-02    0.396E-01
DAV:   3    -0.122322756298E+04    0.96495E-04   -0.41646E-03  1056   0.421E-02    0.420E-01
DAV:   4    -0.122322694207E+04    0.62090E-03   -0.77241E-04   768   0.206E-02    0.125E-01
DAV:   5    -0.122322684714E+04    0.94935E-04   -0.98763E-05   648   0.760E-03
 272 F= -.12537642E+04 E0= -.12536983E+04  d E =-.644516E-03
       N       E                     dE             d eps       ncg     rms          rms(c)
DAV:   1    -0.122322643623E+04    0.50585E-03   -0.49139E-01  1152   0.604E-01    0.233E-01
DAV:   2    -0.122323005163E+04   -0.36154E-02   -0.15424E-02  1572   0.127E-01    0.892E-01
DAV:   3    -0.122323000285E+04    0.48779E-04   -0.10808E-02  1356   0.728E-02    0.548E-01
DAV:   4    -0.122322752861E+04    0.24742E-02   -0.25761E-03  1308   0.431E-02    0.206E-01
DAV:   5    -0.122322721464E+04    0.31397E-03   -0.34964E-04   912   0.167E-02    0.119E-01
DAV:   6    -0.122322724158E+04   -0.26942E-04   -0.38498E-04   852   0.153E-02
 273 F= -.12537651E+04 E0= -.12536974E+04  d E =-.883859E-03
       N       E                     dE             d eps       ncg     rms          rms(c)
DAV:   1    -0.122322701905E+04    0.19559E-03   -0.62539E-02  1152   0.216E-01    0.156E-01
DAV:   2    -0.122322788561E+04   -0.86656E-03   -0.47514E-03  1584   0.466E-02    0.389E-01
DAV:   3    -0.122322817266E+04   -0.28705E-03   -0.60873E-03  1140   0.396E-02    0.493E-01
DAV:   4    -0.122322720873E+04    0.96392E-03   -0.24834E-03  1008   0.298E-02    0.137E-01
DAV:   5    -0.122322705707E+04    0.15166E-03   -0.11074E-03   660   0.100E-02    0.973E-02
DAV:   6    -0.122322701737E+04    0.39699E-04   -0.97901E-04   648   0.751E-03
 274 F= -.12537650E+04 E0= -.12536994E+04  d E =-.836130E-03
       N       E                     dE             d eps       ncg     rms          rms(c)
DAV:   1    -0.122322669447E+04    0.36259E-03   -0.41693E-01  1152   0.550E-01    0.251E-01
DAV:   2    -0.122323249048E+04   -0.57960E-02   -0.18686E-02  1620   0.133E-01    0.127E+00
DAV:   3    -0.122323068428E+04    0.18062E-02   -0.14972E-02  1404   0.812E-02    0.552E-01
DAV:   4    -0.122322797563E+04    0.27086E-02   -0.16797E-03  1176   0.359E-02    0.289E-01
