basalPlane                              
           1
    15.900000    0.000000    0.000000
    -7.950000   13.769804    0.000000
     0.000000    0.000000   32.380000
   C    Cr   H    Mo   S 
  10   1  10  50 100
Direct configuration=     1
   0.36558339  0.36757985  0.38088121
   0.30494044  0.32713905  0.41609395
   0.44037034  0.34292951  0.38243928
   0.42596731  0.28594786  0.41911343
   0.34142609  0.27646583  0.44005677
   0.46782036  0.54977154  0.46596850
   0.55157555  0.47375031  0.48918090
   0.46781709  0.48377313  0.49664411
   0.60251886  0.53289786  0.45460294
   0.55145540  0.57944713  0.44016377
   0.45266505  0.42329615  0.43769302
   0.31006619  0.23676571  0.46852955
   0.41566904  0.44999122  0.52156756
   0.41539718  0.57444379  0.46339446
   0.57183938  0.42791864  0.50644939
   0.66657351  0.53741571  0.44027200
   0.24354766  0.33620184  0.42418892
   0.35880652  0.41357833  0.35779765
   0.49836402  0.36422609  0.35994915
   0.46900073  0.25343374  0.42853535
   0.57122461  0.62715126  0.41344729
   0.60000000  0.60000000  0.65735022
   0.20000000  0.80000000  0.21911674
   0.20000000  0.60000000  0.65735022
   0.60000000  0.80000000  0.21911674
   0.20000000  0.60000000  0.21911674
   0.60000000  0.80000000  0.65735022
   0.20000000  0.40000000  0.21911674
   0.80000000  0.00000000  0.21911674
   0.20000000  0.20000000  0.65735022
   0.80000000  0.00000000  0.65735022
   0.20000000  0.20000000  0.21911674
   0.20000000  0.80000000  0.65735022
   0.20000000  0.40000000  0.65735022
   0.60000000  0.60000000  0.21911674
   0.40000000  0.60000000  0.21911674
   0.40000000  0.00000000  0.65735022
   0.60000000  0.40000000  0.65735022
   0.40000000  0.20000000  0.21911674
   0.60000000  0.40000000  0.21911674
   0.40000000  0.20000000  0.65735022
   0.40000000  0.40000000  0.21911674
   0.60000000  0.20000000  0.65735022
   0.40000000  0.40000000  0.65735022
   0.60000000  0.20000000  0.21911674
   0.40000000  0.80000000  0.65735022
   0.40000000  0.60000000  0.65735022
   0.60000000  0.00000000  0.65735022
   0.40000000  0.80000000  0.21911674
   0.60000000  0.00000000  0.21911674
   0.40000000  0.00000000  0.21911674
   0.80000000  0.20000000  0.21911674
   0.20000000  0.00000000  0.65735022
   0.20000000  0.00000000  0.21911674
   0.00000000  0.00000000  0.21911674
   0.80000000  0.80000000  0.65735022
   0.00000000  0.00000000  0.65735022
   0.80000000  0.80000000  0.21911674
   0.00000000  0.20000000  0.21911674
   0.00000000  0.20000000  0.65735022
   0.80000000  0.60000000  0.65735022
   0.00000000  0.40000000  0.21911674
   0.00000000  0.40000000  0.65735022
   0.00000000  0.60000000  0.21911674
   0.80000000  0.40000000  0.65735022
   0.00000000  0.60000000  0.65735022
   0.80000000  0.60000000  0.21911674
   0.80000000  0.40000000  0.21911674
   0.00000000  0.80000000  0.65735022
   0.00000000  0.80000000  0.21911674
   0.80000000  0.20000000  0.65735022
   0.93333333  0.06666667  0.16985794
   0.73333333  0.26666667  0.60809141
   0.73333333  0.26666667  0.70660902
   0.93333333  0.66666667  0.70660902
   0.93333333  0.66666667  0.60809141
   0.73333333  0.26666667  0.16985794
   0.73333333  0.26666667  0.26837554
   0.93333333  0.46666667  0.26837554
   0.73333333  0.06666667  0.60809141
   0.73333333  0.06666667  0.70660902
   0.93333333  0.06666667  0.70660902
   0.93333333  0.86666667  0.16985794
   0.73333333  0.06666667  0.16985794
   0.93333333  0.06666667  0.60809141
   0.73333333  0.06666667  0.26837554
   0.93333333  0.26666667  0.16985794
   0.93333333  0.26666667  0.70660902
   0.93333333  0.86666667  0.26837554
   0.73333333  0.46666667  0.26837554
   0.73333333  0.46666667  0.16985794
   0.73333333  0.86666667  0.16985794
   0.73333333  0.86666667  0.70660902
   0.73333333  0.86666667  0.26837554
   0.93333333  0.46666667  0.16985794
   0.73333333  0.86666667  0.60809141
   0.73333333  0.66666667  0.60809141
   0.73333333  0.66666667  0.70660902
   0.93333333  0.46666667  0.70660902
   0.73333333  0.66666667  0.16985794
   0.93333333  0.46666667  0.60809141
   0.73333333  0.66666667  0.26837554
   0.93333333  0.26666667  0.60809141
   0.93333333  0.26666667  0.26837554
   0.73333333  0.46666667  0.60809141
   0.73333333  0.46666667  0.70660902
   0.93333333  0.66666667  0.26837554
   0.93333333  0.06666667  0.26837554
   0.93333333  0.66666667  0.16985794
   0.53333333  0.86666667  0.60809141
   0.53333333  0.06666667  0.70660902
   0.53333333  0.86666667  0.16985794
   0.33333333  0.26666667  0.16985794
   0.33333333  0.26666667  0.26837554
   0.33333333  0.06666667  0.60809141
   0.33333333  0.06666667  0.70660902
   0.33333333  0.06666667  0.16985794
   0.33333333  0.06666667  0.26837554
   0.13333333  0.86666667  0.60809141
   0.13333333  0.86666667  0.70660902
   0.13333333  0.86666667  0.16985794
   0.13333333  0.86666667  0.26837554
   0.13333333  0.66666667  0.60809141
   0.13333333  0.66666667  0.70660902
   0.33333333  0.26666667  0.70660902
   0.13333333  0.66666667  0.16985794
   0.13333333  0.46666667  0.60809141
   0.13333333  0.46666667  0.70660902
   0.13333333  0.46666667  0.16985794
   0.13333333  0.46666667  0.26837554
   0.13333333  0.26666667  0.60809141
   0.13333333  0.26666667  0.70660902
   0.13333333  0.26666667  0.16985794
   0.13333333  0.26666667  0.26837554
   0.13333333  0.06666667  0.60809141
   0.13333333  0.06666667  0.70660902
   0.13333333  0.06666667  0.16985794
   0.13333333  0.06666667  0.26837554
   0.13333333  0.66666667  0.26837554
   0.33333333  0.26666667  0.60809141
   0.33333333  0.46666667  0.26837554
   0.33333333  0.46666667  0.16985794
   0.53333333  0.86666667  0.26837554
   0.53333333  0.66666667  0.60809141
   0.53333333  0.66666667  0.70660902
   0.53333333  0.66666667  0.16985794
   0.53333333  0.66666667  0.26837554
   0.53333333  0.46666667  0.60809141
   0.53333333  0.46666667  0.70660902
   0.53333333  0.46666667  0.16985794
   0.53333333  0.46666667  0.26837554
   0.53333333  0.26666667  0.60809141
   0.53333333  0.26666667  0.70660902
   0.53333333  0.26666667  0.16985794
   0.53333333  0.26666667  0.26837554
   0.53333333  0.06666667  0.60809141
   0.93333333  0.86666667  0.70660902
   0.53333333  0.06666667  0.16985794
   0.53333333  0.06666667  0.26837554
   0.33333333  0.86666667  0.60809141
   0.33333333  0.86666667  0.70660902
   0.33333333  0.86666667  0.16985794
   0.33333333  0.86666667  0.26837554
   0.33333333  0.66666667  0.60809141
   0.33333333  0.66666667  0.70660902
   0.33333333  0.66666667  0.16985794
   0.33333333  0.66666667  0.26837554
   0.33333333  0.46666667  0.60809141
   0.33333333  0.46666667  0.70660902
   0.53333333  0.86666667  0.70660902
   0.93333333  0.86666667  0.60809141
Direct configuration=     2
   0.36372266  0.36572583  0.38001709
   0.30258648  0.32501428  0.41540058
   0.43926936  0.34100273  0.38138543
   0.42514092  0.28303844  0.41857619
   0.33887344  0.27350589  0.43997318
   0.46872931  0.55255018  0.46657204
   0.55386945  0.47542050  0.49003044
   0.46855658  0.48524466  0.49787507
   0.60476542  0.53526475  0.45520761
   0.55364398  0.58219114  0.44050753
   0.45249198  0.42319060  0.43780408
   0.30999354  0.23670125  0.46866585
   0.41534882  0.44971709  0.52168904
   0.41511293  0.57441018  0.46334452
   0.57187963  0.42765982  0.50652105
   0.66676782  0.53738716  0.44018457
   0.24336081  0.33634740  0.42423297
   0.35884327  0.41387404  0.35766619
   0.49872935  0.36447366  0.35982971
   0.46922968  0.25342198  0.42860747
   0.57124811  0.62726373  0.41331558
   0.59999724  0.59999679  0.65732828
   0.20000000  0.80000000  0.21911674
   0.20001434  0.60000931  0.65734499
   0.60000000  0.80000000  0.21911674
   0.20000000  0.60000000  0.21911674
   0.59999859  0.80001471  0.65735070
   0.20000000  0.40000000  0.21911674
   0.80000000  0.00000000  0.21911674
   0.20000490  0.20001242  0.65734853
   0.80000121  0.00000279  0.65734891
   0.20000000  0.20000000  0.21911674
   0.20000195  0.80000465  0.65734491
   0.20000147  0.39999008  0.65735446
   0.60000000  0.60000000  0.21911674
   0.40000000  0.60000000  0.21911674
   0.39999092  0.00000896  0.65734478
   0.59998270  0.39999653  0.65736149
   0.40000000  0.20000000  0.21911674
   0.60000000  0.40000000  0.21911674
   0.40000174  0.20000388  0.65734268
   0.40000000  0.40000000  0.21911674
   0.60000959  0.20000920  0.65734631
   0.40000845  0.39999680  0.65734118
   0.60000000  0.20000000  0.21911674
   0.40000642  0.80000986  0.65734498
   0.40001996  0.60000864  0.65733759
   0.60001831  0.00000018  0.65734582
   0.40000000  0.80000000  0.21911674
   0.60000000  0.00000000  0.21911674
   0.40000000  0.00000000  0.21911674
   0.80000000  0.20000000  0.21911674
   0.20000882  0.00001435  0.65734584
   0.20000000  0.00000000  0.21911674
   0.00000000  0.00000000  0.21911674
   0.80001756  0.80001153  0.65734840
  -0.00000164  0.00000219  0.65733872
   0.80000000  0.80000000  0.21911674
   0.00000000  0.20000000  0.21911674
  -0.00000610  0.19999691  0.65734752
   0.80000277  0.60001896  0.65734231
   0.00000000  0.40000000  0.21911674
  -0.00000042  0.39998634  0.65734663
   0.00000000  0.60000000  0.21911674
   0.79999304  0.39999368  0.65734849
   0.00000403  0.60002686  0.65734570
   0.80000000  0.60000000  0.21911674
   0.80000000  0.40000000  0.21911674
   0.00000121  0.80000501  0.65734737
   0.00000000  0.80000000  0.21911674
   0.80000370  0.19999639  0.65734404
   0.93333333  0.06666667  0.16985794
   0.73333271  0.26667230  0.60889342
   0.73333172  0.26667002  0.70579730
   0.93333560  0.66667130  0.70579835
   0.93332909  0.66667096  0.60889323
   0.73333333  0.26666667  0.16985794
   0.73333333  0.26666667  0.26837554
   0.93333333  0.46666667  0.26837554
   0.73333207  0.06666699  0.60889431
   0.73333301  0.06667091  0.70579861
   0.93333817  0.06667112  0.70579741
   0.93333333  0.86666667  0.16985794
   0.73333333  0.06666667  0.16985794
   0.93333594  0.06666692  0.60889422
   0.73333333  0.06666667  0.26837554
   0.93333333  0.26666667  0.16985794
   0.93333804  0.26667291  0.70579654
   0.93333333  0.86666667  0.26837554
   0.73333333  0.46666667  0.26837554
   0.73333333  0.46666667  0.16985794
   0.73333333  0.86666667  0.16985794
   0.73333698  0.86667009  0.70579564
   0.73333333  0.86666667  0.26837554
   0.93333333  0.46666667  0.16985794
   0.73333094  0.86665910  0.60889310
   0.73332383  0.66666489  0.60888278
   0.73333697  0.66667275  0.70579637
   0.93333586  0.46667138  0.70579769
   0.73333333  0.66666667  0.16985794
   0.93333504  0.46667215  0.60889415
   0.73333333  0.66666667  0.26837554
   0.93333846  0.26667355  0.60889564
   0.93333333  0.26666667  0.26837554
   0.73332511  0.46667711  0.60887810
   0.73333265  0.46666747  0.70579699
   0.93333333  0.66666667  0.26837554
   0.93333333  0.06666667  0.26837554
   0.93333333  0.66666667  0.16985794
   0.53333830  0.86666500  0.60889390
   0.53333691  0.06667345  0.70579778
   0.53333333  0.86666667  0.16985794
   0.33333333  0.26666667  0.16985794
   0.33333333  0.26666667  0.26837554
   0.33333824  0.06667427  0.60889474
   0.33334088  0.06667796  0.70579626
   0.33333333  0.06666667  0.16985794
   0.33333333  0.06666667  0.26837554
   0.13333326  0.86667220  0.60889559
   0.13333385  0.86667102  0.70579704
   0.13333333  0.86666667  0.16985794
   0.13333333  0.86666667  0.26837554
   0.13333666  0.66667152  0.60889403
   0.13333575  0.66667283  0.70579914
   0.33333864  0.26667417  0.70580255
   0.13333333  0.66666667  0.16985794
   0.13333650  0.46667302  0.60889135
   0.13333529  0.46666771  0.70579803
   0.13333333  0.46666667  0.16985794
   0.13333333  0.46666667  0.26837554
   0.13334049  0.26667102  0.60888789
   0.13334138  0.26667323  0.70579807
   0.13333333  0.26666667  0.16985794
   0.13333333  0.26666667  0.26837554
   0.13333722  0.06667283  0.60889297
   0.13333856  0.06667460  0.70579715
   0.13333333  0.06666667  0.16985794
   0.13333333  0.06666667  0.26837554
   0.13333333  0.66666667  0.26837554
   0.33334714  0.26668612  0.60886312
   0.33333333  0.46666667  0.26837554
   0.33333333  0.46666667  0.16985794
   0.53333333  0.86666667  0.26837554
   0.53333861  0.66665784  0.60887270
   0.53333538  0.66667175  0.70579621
   0.53333333  0.66666667  0.16985794
   0.53333333  0.66666667  0.26837554
   0.53334619  0.46667466  0.60887756
   0.53333176  0.46666245  0.70580418
   0.53333333  0.46666667  0.16985794
   0.53333333  0.46666667  0.26837554
   0.53333648  0.26668772  0.60887571
   0.53333581  0.26667439  0.70579745
   0.53333333  0.26666667  0.16985794
   0.53333333  0.26666667  0.26837554
   0.53333665  0.06667044  0.60889397
   0.93333462  0.86667032  0.70579639
   0.53333333  0.06666667  0.16985794
   0.53333333  0.06666667  0.26837554
   0.33334050  0.86667263  0.60889648
   0.33333872  0.86667226  0.70579687
   0.33333333  0.86666667  0.16985794
   0.33333333  0.86666667  0.26837554
   0.33334415  0.66667213  0.60888843
   0.33333813  0.66667105  0.70580045
   0.33333333  0.66666667  0.16985794
   0.33333333  0.66666667  0.26837554
   0.33335774  0.46667821  0.60886436
   0.33333634  0.46666692  0.70580307
   0.53333744  0.86667215  0.70579578
   0.93332856  0.86666608  0.60889482
Direct configuration=     3
   0.36465373  0.36665354  0.38044948
   0.30376435  0.32607747  0.41574753
   0.43982027  0.34196685  0.38191275
   0.42555443  0.28449425  0.41884501
   0.34015073  0.27498698  0.44001501
   0.46827449  0.55115981  0.46627004
   0.55272163  0.47458477  0.48960535
   0.46818656  0.48450834  0.49725912
   0.60364129  0.53408041  0.45490504
   0.55254886  0.58081810  0.44033552
   0.45257858  0.42324341  0.43774851
   0.31002989  0.23673350  0.46859765
   0.41550905  0.44985426  0.52162825
   0.41525516  0.57442699  0.46336951
   0.57185949  0.42778933  0.50648519
   0.66667059  0.53740144  0.44022832
   0.24345430  0.33627456  0.42421093
   0.35882488  0.41372607  0.35773197
   0.49854655  0.36434978  0.35988947
   0.46911512  0.25342787  0.42857138
   0.57123635  0.62720745  0.41338149
   0.59999862  0.59999839  0.65733926
   0.20000000  0.80000000  0.21911674
   0.20000716  0.60000465  0.65734760
   0.60000000  0.80000000  0.21911674
   0.20000000  0.60000000  0.21911674
   0.59999929  0.80000735  0.65735046
   0.20000000  0.40000000  0.21911674
   0.80000000  0.00000000  0.21911674
   0.20000245  0.20000621  0.65734938
   0.80000061  0.00000139  0.65734956
   0.20000000  0.20000000  0.21911674
   0.20000098  0.80000232  0.65734756
   0.20000074  0.39999505  0.65735234
   0.60000000  0.60000000  0.21911674
   0.40000000  0.60000000  0.21911674
   0.39999547  0.00000447  0.65734750
   0.59999136  0.39999827  0.65735585
   0.40000000  0.20000000  0.21911674
   0.60000000  0.40000000  0.21911674
   0.40000087  0.20000194  0.65734645
   0.40000000  0.40000000  0.21911674
   0.60000479  0.20000460  0.65734826
   0.40000422  0.39999840  0.65734570
   0.60000000  0.20000000  0.21911674
   0.40000321  0.80000493  0.65734760
   0.40000997  0.60000431  0.65734391
   0.60000915  0.00000009  0.65734802
   0.40000000  0.80000000  0.21911674
   0.60000000  0.00000000  0.21911674
   0.40000000  0.00000000  0.21911674
   0.80000000  0.20000000  0.21911674
   0.20000441  0.00000717  0.65734803
   0.20000000  0.00000000  0.21911674
   0.00000000  0.00000000  0.21911674
   0.80000877  0.80000576  0.65734931
  -0.00000082  0.00000109  0.65734447
   0.80000000  0.80000000  0.21911674
   0.00000000  0.20000000  0.21911674
  -0.00000305  0.19999846  0.65734887
   0.80000138  0.60000947  0.65734627
   0.00000000  0.40000000  0.21911674
  -0.00000021  0.39999317  0.65734842
   0.00000000  0.60000000  0.21911674
   0.79999652  0.39999684  0.65734935
   0.00000201  0.60001342  0.65734796
   0.80000000  0.60000000  0.21911674
   0.80000000  0.40000000  0.21911674
   0.00000061  0.80000251  0.65734879
   0.00000000  0.80000000  0.21911674
   0.80000185  0.19999820  0.65734713
   0.93333333  0.06666667  0.16985794
   0.73333302  0.26666948  0.60849212
   0.73333253  0.26666834  0.70620347
   0.93333446  0.66666898  0.70620399
   0.93333121  0.66666881  0.60849202
   0.73333333  0.26666667  0.16985794
   0.73333333  0.26666667  0.26837554
   0.93333333  0.46666667  0.26837554
   0.73333270  0.06666683  0.60849256
   0.73333317  0.06666878  0.70620412
   0.93333575  0.06666889  0.70620352
   0.93333333  0.86666667  0.16985794
   0.73333333  0.06666667  0.16985794
   0.93333464  0.06666679  0.60849251
   0.73333333  0.06666667  0.26837554
   0.93333333  0.26666667  0.16985794
   0.93333568  0.26666979  0.70620309
   0.93333333  0.86666667  0.26837554
   0.73333333  0.46666667  0.26837554
   0.73333333  0.46666667  0.16985794
   0.73333333  0.86666667  0.16985794
   0.73333516  0.86666838  0.70620264
   0.73333333  0.86666667  0.26837554
   0.93333333  0.46666667  0.16985794
   0.73333214  0.86666289  0.60849195
   0.73332858  0.66666578  0.60848680
   0.73333515  0.66666971  0.70620300
   0.93333460  0.46666902  0.70620366
   0.73333333  0.66666667  0.16985794
   0.93333418  0.46666941  0.60849248
   0.73333333  0.66666667  0.26837554
   0.93333590  0.26667011  0.60849322
   0.93333333  0.26666667  0.26837554
   0.73332923  0.46667188  0.60848446
   0.73333299  0.46666707  0.70620331
   0.93333333  0.66666667  0.26837554
   0.93333333  0.06666667  0.26837554
   0.93333333  0.66666667  0.16985794
   0.53333581  0.86666584  0.60849235
   0.53333512  0.06667006  0.70620370
   0.53333333  0.86666667  0.16985794
   0.33333333  0.26666667  0.16985794
   0.33333333  0.26666667  0.26837554
   0.33333578  0.06667046  0.60849277
   0.33333710  0.06667231  0.70620295
   0.33333333  0.06666667  0.16985794
   0.33333333  0.06666667  0.26837554
   0.13333330  0.86666943  0.60849320
   0.13333359  0.86666884  0.70620334
   0.13333333  0.86666667  0.16985794
   0.13333333  0.86666667  0.26837554
   0.13333499  0.66666909  0.60849242
   0.13333454  0.66666974  0.70620438
   0.33333598  0.26667042  0.70620609
   0.13333333  0.66666667  0.16985794
   0.13333491  0.46666984  0.60849108
   0.13333431  0.46666719  0.70620383
   0.13333333  0.46666667  0.16985794
   0.13333333  0.46666667  0.26837554
   0.13333691  0.26666884  0.60848935
   0.13333735  0.26666994  0.70620385
   0.13333333  0.26666667  0.16985794
   0.13333333  0.26666667  0.26837554
   0.13333528  0.06666975  0.60849189
   0.13333594  0.06667063  0.70620339
   0.13333333  0.06666667  0.16985794
   0.13333333  0.06666667  0.26837554
   0.13333333  0.66666667  0.26837554
   0.33334023  0.26667638  0.60847698
   0.33333333  0.46666667  0.26837554
   0.33333333  0.46666667  0.16985794
   0.53333333  0.86666667  0.26837554
   0.53333597  0.66666226  0.60848176
   0.53333435  0.66666920  0.70620292
   0.53333333  0.66666667  0.16985794
   0.53333333  0.66666667  0.26837554
   0.53333976  0.46667066  0.60848419
   0.53333255  0.46666456  0.70620690
   0.53333333  0.46666667  0.16985794
   0.53333333  0.46666667  0.26837554
   0.53333491  0.26667718  0.60848326
   0.53333457  0.26667053  0.70620354
   0.53333333  0.26666667  0.16985794
   0.53333333  0.26666667  0.26837554
   0.53333499  0.06666855  0.60849239
   0.93333398  0.86666849  0.70620301
   0.53333333  0.06666667  0.16985794
   0.53333333  0.06666667  0.26837554
   0.33333691  0.86666965  0.60849364
   0.33333603  0.86666946  0.70620325
   0.33333333  0.86666667  0.16985794
   0.33333333  0.86666667  0.26837554
   0.33333874  0.66666940  0.60848962
   0.33333573  0.66666886  0.70620504
   0.33333333  0.66666667  0.16985794
   0.33333333  0.66666667  0.26837554
   0.33334553  0.46667243  0.60847759
   0.33333484  0.46666679  0.70620635
   0.53333538  0.86666940  0.70620271
   0.93333095  0.86666637  0.60849281
Direct configuration=     4
   0.36403236  0.36603441  0.38016091
   0.30297826  0.32536792  0.41551599
   0.43945260  0.34132342  0.38156083
   0.42527846  0.28352267  0.41866561
   0.33929830  0.27399853  0.43998710
   0.46857802  0.55208772  0.46647159
   0.55348766  0.47514252  0.48988905
   0.46843350  0.48499975  0.49767019
   0.60439152  0.53487081  0.45510697
   0.55327972  0.58173444  0.44045032
   0.45252078  0.42320817  0.43778560
   0.31000563  0.23671198  0.46864317
   0.41540212  0.44976271  0.52166882
   0.41516024  0.57441577  0.46335283
   0.57187294  0.42770290  0.50650912
   0.66673548  0.53739191  0.44019912
   0.24339191  0.33632317  0.42422564
   0.35883715  0.41382482  0.35768807
   0.49866855  0.36443245  0.35984959
   0.46919157  0.25342394  0.42859546
   0.57124420  0.62724501  0.41333750
   0.59999770  0.59999732  0.65733193
   0.20000000  0.80000000  0.21911674
   0.20001195  0.60000776  0.65734586
   0.60000000  0.80000000  0.21911674
   0.20000000  0.60000000  0.21911674
   0.59999882  0.80001226  0.65735062
   0.20000000  0.40000000  0.21911674
   0.80000000  0.00000000  0.21911674
   0.20000409  0.20001035  0.65734881
   0.80000101  0.00000232  0.65734913
   0.20000000  0.20000000  0.21911674
   0.20000163  0.80000388  0.65734579
   0.20000123  0.39999173  0.65735375
   0.60000000  0.60000000  0.21911674
   0.40000000  0.60000000  0.21911674
   0.39999244  0.00000746  0.65734568
   0.59998558  0.39999711  0.65735962
   0.40000000  0.20000000  0.21911674
   0.60000000  0.40000000  0.21911674
   0.40000145  0.20000324  0.65734394
   0.40000000  0.40000000  0.21911674
   0.60000799  0.20000767  0.65734696
   0.40000704  0.39999733  0.65734269
   0.60000000  0.20000000  0.21911674
   0.40000535  0.80000822  0.65734585
   0.40001664  0.60000720  0.65733969
   0.60001526  0.00000015  0.65734655
   0.40000000  0.80000000  0.21911674
   0.60000000  0.00000000  0.21911674
   0.40000000  0.00000000  0.21911674
   0.80000000  0.20000000  0.21911674
   0.20000735  0.00001197  0.65734657
   0.20000000  0.00000000  0.21911674
   0.00000000  0.00000000  0.21911674
   0.80001463  0.80000961  0.65734870
  -0.00000137  0.00000182  0.65734063
   0.80000000  0.80000000  0.21911674
   0.00000000  0.20000000  0.21911674
  -0.00000508  0.19999743  0.65734797
   0.80000231  0.60001580  0.65734363
   0.00000000  0.40000000  0.21911674
  -0.00000035  0.39998861  0.65734722
   0.00000000  0.60000000  0.21911674
   0.79999420  0.39999474  0.65734878
   0.00000336  0.60002239  0.65734645
   0.80000000  0.60000000  0.21911674
   0.80000000  0.40000000  0.21911674
   0.00000101  0.80000418  0.65734784
   0.00000000  0.80000000  0.21911674
   0.80000309  0.19999699  0.65734507
   0.93333333  0.06666667  0.16985794
   0.73333281  0.26667136  0.60875994
   0.73333199  0.26666946  0.70593240
   0.93333522  0.66667053  0.70593327
   0.93332979  0.66667025  0.60875978
   0.73333333  0.26666667  0.16985794
   0.73333333  0.26666667  0.26837554
   0.93333333  0.46666667  0.26837554
   0.73333228  0.06666694  0.60876068
   0.73333307  0.06667020  0.70593350
   0.93333737  0.06667038  0.70593249
   0.93333333  0.86666667  0.16985794
   0.73333333  0.06666667  0.16985794
   0.93333551  0.06666687  0.60876060
   0.73333333  0.06666667  0.26837554
   0.93333333  0.26666667  0.16985794
   0.93333726  0.26667187  0.70593177
   0.93333333  0.86666667  0.26837554
   0.73333333  0.46666667  0.26837554
   0.73333333  0.46666667  0.16985794
   0.73333333  0.86666667  0.16985794
   0.73333638  0.86666952  0.70593101
   0.73333333  0.86666667  0.26837554
   0.93333333  0.46666667  0.16985794
   0.73333134  0.86666036  0.60875967
   0.73332541  0.66666519  0.60875106
   0.73333636  0.66667174  0.70593162
   0.93333544  0.46667059  0.70593273
   0.73333333  0.66666667  0.16985794
   0.93333475  0.46667124  0.60876054
   0.73333333  0.66666667  0.26837554
   0.93333761  0.26667241  0.60876179
   0.93333333  0.26666667  0.26837554
   0.73332648  0.46667537  0.60874717
   0.73333277  0.46666733  0.70593214
   0.93333333  0.66666667  0.26837554
   0.93333333  0.06666667  0.26837554
   0.93333333  0.66666667  0.16985794
   0.53333747  0.86666528  0.60876033
   0.53333631  0.06667232  0.70593280
   0.53333333  0.86666667  0.16985794
   0.33333333  0.26666667  0.16985794
   0.33333333  0.26666667  0.26837554
   0.33333742  0.06667300  0.60876104
   0.33333962  0.06667608  0.70593154
   0.33333333  0.06666667  0.16985794
   0.33333333  0.06666667  0.26837554
   0.13333327  0.86667128  0.60876175
   0.13333377  0.86667029  0.70593218
   0.13333333  0.86666667  0.16985794
   0.13333333  0.86666667  0.26837554
   0.13333610  0.66667071  0.60876045
   0.13333535  0.66667180  0.70593393
   0.33333776  0.26667292  0.70593677
   0.13333333  0.66666667  0.16985794
   0.13333597  0.46667196  0.60875821
   0.13333496  0.46666753  0.70593301
   0.13333333  0.46666667  0.16985794
   0.13333333  0.46666667  0.26837554
   0.13333930  0.26667030  0.60875533
   0.13334004  0.26667213  0.70593304
   0.13333333  0.26666667  0.16985794
   0.13333333  0.26666667  0.26837554
   0.13333658  0.06667180  0.60875956
   0.13333769  0.06667328  0.70593227
   0.13333333  0.06666667  0.16985794
   0.13333333  0.06666667  0.26837554
   0.13333333  0.66666667  0.26837554
   0.33334484  0.26668288  0.60873468
   0.33333333  0.46666667  0.26837554
   0.33333333  0.46666667  0.16985794
   0.53333333  0.86666667  0.26837554
   0.53333773  0.66665931  0.60874267
   0.53333504  0.66667090  0.70593149
   0.53333333  0.66666667  0.16985794
   0.53333333  0.66666667  0.26837554
   0.53334405  0.46667333  0.60874672
   0.53333202  0.46666315  0.70593813
   0.53333333  0.46666667  0.16985794
   0.53333333  0.46666667  0.26837554
   0.53333596  0.26668421  0.60874517
   0.53333540  0.26667311  0.70593253
   0.53333333  0.26666667  0.16985794
   0.53333333  0.26666667  0.26837554
   0.53333610  0.06666981  0.60876040
   0.93333441  0.86666972  0.70593164
   0.53333333  0.06666667  0.16985794
   0.53333333  0.06666667  0.26837554
   0.33333931  0.86667164  0.60876249
   0.33333783  0.86667133  0.70593204
   0.33333333  0.86666667  0.16985794
   0.33333333  0.86666667  0.26837554
   0.33334235  0.66667122  0.60875578
   0.33333733  0.66667032  0.70593503
   0.33333333  0.66666667  0.16985794
   0.33333333  0.66666667  0.26837554
   0.33335368  0.46667629  0.60873571
   0.33333584  0.46666687  0.70593721
   0.53333676  0.86667123  0.70593113
   0.93332935  0.86666617  0.60876110
Direct configuration=     5
   0.36372844  0.36449880  0.38021653
   0.30342970  0.32402076  0.41532144
   0.43752862  0.33958938  0.38201775
   0.42267330  0.28384769  0.41813030
   0.34026707  0.27455327  0.43864865
   0.47090706  0.55182328  0.46696813
   0.55299273  0.47697127  0.48987807
   0.47102880  0.48722610  0.49695329
   0.60413882  0.53557210  0.45559502
   0.55293270  0.58153190  0.44137064
   0.45234863  0.42298234  0.43793045
   0.30933392  0.23597998  0.46913823
   0.41457515  0.44920077  0.52214795
   0.41445319  0.57482844  0.46331122
   0.57227063  0.42725841  0.50674168
   0.66718305  0.53755028  0.44013515
   0.24284140  0.33637753  0.42422546
   0.35871323  0.41405283  0.35745643
   0.49917653  0.36465531  0.35954476
   0.46990770  0.25284050  0.42874087
   0.57156006  0.62777504  0.41309468
   0.59999564  0.59999652  0.65731282
   0.20000000  0.80000000  0.21911674
   0.20002151  0.60001140  0.65734093
   0.60000000  0.80000000  0.21911674
   0.20000000  0.60000000  0.21911674
   0.59999576  0.79999798  0.65734459
   0.20000000  0.40000000  0.21911674
   0.80000000  0.00000000  0.21911674
   0.20000771  0.20001748  0.65733891
   0.80000313  0.00000670  0.65734606
   0.20000000  0.20000000  0.21911674
   0.20000502  0.80001131  0.65734203
   0.20000213  0.39998617  0.65734610
   0.60000000  0.60000000  0.21911674
   0.40000000  0.60000000  0.21911674
   0.39998457  0.00001175  0.65734017
   0.59997408  0.40000617  0.65735576
   0.40000000  0.20000000  0.21911674
   0.60000000  0.40000000  0.21911674
   0.40000076  0.20001091  0.65732878
   0.40000000  0.40000000  0.21911674
   0.60001256  0.20001376  0.65733729
   0.40002435  0.40000225  0.65732700
   0.60000000  0.20000000  0.21911674
   0.40000988  0.80000832  0.65733980
   0.40003824  0.60001550  0.65732339
   0.60002496  0.00000265  0.65734171
   0.40000000  0.80000000  0.21911674
   0.60000000  0.00000000  0.21911674
   0.40000000  0.00000000  0.21911674
   0.80000000  0.20000000  0.21911674
   0.20001262  0.00001883  0.65734211
   0.20000000  0.00000000  0.21911674
   0.00000000  0.00000000  0.21911674
   0.80000671  0.80000191  0.65734386
   0.00000235  0.00000550  0.65733136
   0.80000000  0.80000000  0.21911674
   0.00000000  0.20000000  0.21911674
  -0.00000401  0.19999729  0.65734233
   0.79999454  0.60002598  0.65733316
   0.00000000  0.40000000  0.21911674
   0.00000116  0.39998102  0.65734193
   0.00000000  0.60000000  0.21911674
   0.79998850  0.39999096  0.65734202
   0.00000426  0.60003527  0.65734248
   0.80000000  0.60000000  0.21911674
   0.80000000  0.40000000  0.21911674
   0.00000026  0.80000793  0.65734455
   0.00000000  0.80000000  0.21911674
   0.80000503  0.19999459  0.65733917
   0.93333333  0.06666667  0.16985794
   0.73333386  0.26667356  0.60943029
   0.73333096  0.26666882  0.70525802
   0.93333233  0.66667492  0.70525996
   0.93332541  0.66667739  0.60942810
   0.73333333  0.26666667  0.16985794
   0.73333333  0.26666667  0.26837554
   0.93333333  0.46666667  0.26837554
   0.73333621  0.06666538  0.60942981
   0.73333744  0.06667472  0.70526127
   0.93333988  0.06667102  0.70525880
   0.93333333  0.86666667  0.16985794
   0.73333333  0.06666667  0.16985794
   0.93333098  0.06666453  0.60942916
   0.73333333  0.06666667  0.26837554
   0.93333333  0.26666667  0.16985794
   0.93333560  0.26666887  0.70525859
   0.93333333  0.86666667  0.26837554
   0.73333333  0.46666667  0.26837554
   0.73333333  0.46666667  0.16985794
   0.73333333  0.86666667  0.16985794
   0.73333781  0.86667088  0.70525740
   0.73333333  0.86666667  0.26837554
   0.93333333  0.46666667  0.16985794
   0.73332704  0.86665313  0.60942805