 171 171   0   0
  0.4145774E+02  0.1590000E-08  0.1590000E-08  0.3238000E-08  0.5000000E-15
  1.000000000000000E-004
  CAR 
 basalPlane                              
      2.26903314    -19.11339366  301      0.17530616      1.00000000
    -19.113  0.0000E+00  0.0000E+00
    -19.042  0.0000E+00  0.0000E+00
    -18.971  0.0000E+00  0.0000E+00
    -18.900  0.0000E+00  0.0000E+00
    -18.828  0.0000E+00  0.0000E+00
    -18.757  0.0000E+00  0.0000E+00
    -18.686  0.7788E-18  0.5551E-19
    -18.614  0.1932E-14  0.1377E-15
    -18.543  0.1702E-11  0.1215E-12
    -18.472  0.5554E-09  0.3971E-10
    -18.401  0.6760E-07  0.4858E-08
    -18.329  0.3096E-05  0.2255E-06
    -18.258  0.5396E-04  0.4072E-05
    -18.187  0.3625E-03  0.2991E-04
    -18.116  0.9493E-03  0.9757E-04
    -18.044  0.9765E-03  0.1672E-03
    -17.973  0.3965E-03  0.1954E-03
    -17.902  0.1002E-03  0.2026E-03
    -17.830  0.2962E-03  0.2237E-03
    -17.759  0.8761E-03  0.2861E-03
    -17.688  0.1030E-02  0.3595E-03
    -17.617  0.4758E-03  0.3934E-03
    -17.545  0.8588E-04  0.3996E-03
    -17.474  0.5989E-05  0.4000E-03
    -17.403  0.1594E-06  0.4000E-03
    -17.332  0.1599E-08  0.4000E-03
    -17.260  0.5993E-11  0.4000E-03
    -17.189  0.8330E-14  0.4000E-03
    -17.118  0.4361E-17  0.4000E-03
    -17.046  0.0000E+00  0.4000E-03
    -16.975  0.0000E+00  0.4000E-03
    -16.904  0.0000E+00  0.4000E-03
    -16.833  0.0000E+00  0.4000E-03
    -16.761  0.0000E+00  0.4000E-03
    -16.690  0.0000E+00  0.4000E-03
    -16.619  0.0000E+00  0.4000E-03
    -16.548  0.0000E+00  0.4000E-03
    -16.476  0.0000E+00  0.4000E-03
    -16.405  0.0000E+00  0.4000E-03
    -16.334  0.0000E+00  0.4000E-03
    -16.262  0.0000E+00  0.4000E-03
    -16.191  0.0000E+00  0.4000E-03
    -16.120  0.0000E+00  0.4000E-03
    -16.049  0.2312E-15  0.4000E-03
    -15.977  0.2965E-12  0.4000E-03
    -15.906  0.1406E-09  0.4000E-03
    -15.835  0.2481E-07  0.4000E-03
    -15.763  0.1641E-05  0.4001E-03
    -15.692  0.4110E-04  0.4030E-03
    -15.621  0.3950E-03  0.4312E-03
    -15.550  0.1474E-02  0.5363E-03
    -15.478  0.2156E-02  0.6899E-03
    -15.407  0.1240E-02  0.7783E-03
    -15.336  0.2791E-03  0.7982E-03
    -15.265  0.2616E-04  0.8001E-03
    -15.193  0.6995E-04  0.8051E-03
    -15.122  0.1002E-02  0.8765E-03
    -15.051  0.5615E-02  0.1277E-02
    -14.979  0.1230E-01  0.2153E-02
    -14.908  0.1060E-01  0.2909E-02
    -14.837  0.3587E-02  0.3165E-02
    -14.766  0.4732E-03  0.3198E-02
    -14.694  0.2414E-04  0.3200E-02
    -14.623  0.5477E-05  0.3200E-02
    -14.552  0.9280E-04  0.3207E-02
    -14.481  0.6617E-03  0.3254E-02
    -14.409  0.1850E-02  0.3386E-02
    -14.338  0.2329E-02  0.3552E-02
    -14.267  0.4272E-02  0.3856E-02
    -14.195  0.1461E-01  0.4898E-02
    -14.124  0.2522E-01  0.6696E-02
    -14.053  0.1911E-01  0.8058E-02
    -13.982  0.1123E-01  0.8858E-02
    -13.910  0.1320E-01  0.9799E-02
    -13.839  0.1178E-01  0.1064E-01
    -13.768  0.1067E-01  0.1140E-01
    -13.697  0.1772E-01  0.1266E-01
    -13.625  0.2555E-01  0.1448E-01
    -13.554  0.2972E-01  0.1660E-01
    -13.483  0.2549E-01  0.1842E-01
    -13.411  0.1915E-01  0.1978E-01
    -13.340  0.1353E-01  0.2075E-01
    -13.269  0.5387E-02  0.2113E-01
    -13.198  0.9036E-03  0.2120E-01
    -13.126  0.5936E-04  0.2120E-01
    -13.055  0.1491E-05  0.2120E-01
    -12.984  0.1414E-07  0.2120E-01
    -12.912  0.5008E-10  0.2120E-01
    -12.841  0.6583E-13  0.2120E-01
    -12.770  0.3209E-16  0.2120E-01
    -12.699  0.0000E+00  0.2120E-01
    -12.627  0.0000E+00  0.2120E-01
    -12.556  0.0000E+00  0.2120E-01
    -12.485  0.0000E+00  0.2120E-01
    -12.414  0.0000E+00  0.2120E-01
    -12.342  0.0000E+00  0.2120E-01
    -12.271  0.0000E+00  0.2120E-01
    -12.200  0.0000E+00  0.2120E-01
    -12.128  0.0000E+00  0.2120E-01
    -12.057  0.0000E+00  0.2120E-01
    -11.986  0.0000E+00  0.2120E-01
    -11.915  0.0000E+00  0.2120E-01
    -11.843  0.0000E+00  0.2120E-01
    -11.772  0.0000E+00  0.2120E-01
    -11.701  0.0000E+00  0.2120E-01
    -11.630  0.0000E+00  0.2120E-01
    -11.558  0.0000E+00  0.2120E-01
    -11.487  0.0000E+00  0.2120E-01
    -11.416  0.0000E+00  0.2120E-01
    -11.344  0.0000E+00  0.2120E-01
    -11.273  0.0000E+00  0.2120E-01
    -11.202  0.0000E+00  0.2120E-01
    -11.131  0.0000E+00  0.2120E-01
    -11.059  0.0000E+00  0.2120E-01
    -10.988  0.0000E+00  0.2120E-01
    -10.917  0.0000E+00  0.2120E-01
    -10.846  0.0000E+00  0.2120E-01
    -10.774  0.0000E+00  0.2120E-01
    -10.703  0.0000E+00  0.2120E-01
    -10.632  0.0000E+00  0.2120E-01
    -10.560  0.0000E+00  0.2120E-01
    -10.489  0.0000E+00  0.2120E-01
    -10.418  0.0000E+00  0.2120E-01
    -10.347  0.0000E+00  0.2120E-01
    -10.275  0.0000E+00  0.2120E-01
    -10.204  0.0000E+00  0.2120E-01
    -10.133  0.0000E+00  0.2120E-01
    -10.061  0.0000E+00  0.2120E-01
     -9.990  0.1558E-18  0.2120E-01
     -9.919  0.5009E-15  0.2120E-01
     -9.848  0.5333E-12  0.2120E-01
     -9.776  0.2112E-09  0.2120E-01
     -9.705  0.3145E-07  0.2120E-01
     -9.634  0.1788E-05  0.2120E-01
     -9.563  0.3974E-04  0.2120E-01
     -9.491  0.3558E-03  0.2123E-01
     -9.420  0.1344E-02  0.2132E-01
     -9.349  0.2387E-02  0.2149E-01
     -9.277  0.2724E-02  0.2169E-01
     -9.206  0.2766E-02  0.2189E-01
     -9.135  0.2262E-02  0.2205E-01
     -9.064  0.1446E-02  0.2215E-01
     -8.992  0.6681E-03  0.2220E-01
     -8.921  0.5663E-03  0.2224E-01
     -8.850  0.1026E-02  0.2231E-01
     -8.779  0.8967E-03  0.2237E-01
     -8.707  0.3101E-03  0.2240E-01
     -8.636  0.4177E-04  0.2240E-01
     -8.565  0.2166E-05  0.2240E-01
     -8.493  0.4268E-07  0.2240E-01
     -8.422  0.3162E-09  0.2240E-01
     -8.351  0.8729E-12  0.2240E-01
     -8.280  0.8919E-15  0.2240E-01
     -8.208  0.3115E-18  0.2240E-01
     -8.137  0.0000E+00  0.2240E-01
     -8.066  0.0000E+00  0.2240E-01
     -7.995  0.0000E+00  0.2240E-01
     -7.923  0.0000E+00  0.2240E-01
     -7.852  0.0000E+00  0.2240E-01
     -7.781  0.0000E+00  0.2240E-01
     -7.709  0.0000E+00  0.2240E-01
     -7.638  0.3115E-18  0.2240E-01
     -7.567  0.1129E-14  0.2240E-01
     -7.496  0.1177E-11  0.2240E-01
     -7.424  0.4549E-09  0.2240E-01
     -7.353  0.6605E-07  0.2240E-01
     -7.282  0.3692E-05  0.2240E-01
     -7.211  0.8380E-04  0.2241E-01
     -7.139  0.8529E-03  0.2247E-01
     -7.068  0.4356E-02  0.2278E-01
     -6.997  0.1136E-01  0.2359E-01
     -6.925  0.1384E-01  0.2457E-01
     -6.854  0.7383E-02  0.2510E-01
     -6.783  0.3798E-02  0.2537E-01
     -6.712  0.1064E-01  0.2613E-01
     -6.640  0.2248E-01  0.2773E-01
     -6.569  0.2773E-01  0.2971E-01
     -6.498  0.2815E-01  0.3171E-01
     -6.426  0.2516E-01  0.3351E-01
     -6.355  0.1396E-01  0.3450E-01
     -6.284  0.3816E-02  0.3477E-01
     -6.213  0.1303E-02  0.3487E-01
     -6.141  0.4629E-02  0.3520E-01
     -6.070  0.1161E-01  0.3602E-01
     -5.999  0.1275E-01  0.3693E-01
     -5.928  0.6369E-02  0.3739E-01
     -5.856  0.2932E-02  0.3760E-01
     -5.785  0.2583E-02  0.3778E-01
     -5.714  0.4954E-02  0.3813E-01
     -5.642  0.1232E-01  0.3901E-01
     -5.571  0.1570E-01  0.4013E-01
     -5.500  0.1479E-01  0.4119E-01
     -5.429  0.2100E-01  0.4268E-01
     -5.357  0.2319E-01  0.4433E-01
     -5.286  0.1621E-01  0.4549E-01
     -5.215  0.1527E-01  0.4658E-01
     -5.144  0.1638E-01  0.4775E-01
     -5.072  0.1205E-01  0.4860E-01
     -5.001  0.1286E-01  0.4952E-01
     -4.930  0.1567E-01  0.5064E-01
     -4.858  0.1456E-01  0.5168E-01
     -4.787  0.1522E-01  0.5276E-01
     -4.716  0.1536E-01  0.5385E-01
     -4.645  0.2143E-01  0.5538E-01
     -4.573  0.2607E-01  0.5724E-01
     -4.502  0.1912E-01  0.5860E-01
     -4.431  0.1532E-01  0.5970E-01
     -4.360  0.1170E-01  0.6053E-01
     -4.288  0.7734E-02  0.6108E-01
     -4.217  0.1148E-01  0.6190E-01
     -4.146  0.1216E-01  0.6277E-01
     -4.074  0.5911E-02  0.6319E-01
     -4.003  0.3640E-02  0.6345E-01
     -3.932  0.4403E-02  0.6376E-01
     -3.861  0.3041E-02  0.6398E-01
     -3.789  0.3908E-02  0.6426E-01
     -3.718  0.1248E-01  0.6515E-01
     -3.647  0.2356E-01  0.6682E-01
     -3.575  0.2807E-01  0.6883E-01
     -3.504  0.2681E-01  0.7074E-01
     -3.433  0.2884E-01  0.7279E-01
     -3.362  0.2999E-01  0.7493E-01
     -3.290  0.1649E-01  0.7610E-01
     -3.219  0.3791E-02  0.7637E-01
     -3.148  0.3488E-03  0.7640E-01
     -3.077  0.7767E-04  0.7640E-01
     -3.005  0.8389E-03  0.7646E-01
     -2.934  0.4865E-02  0.7681E-01
     -2.863  0.1385E-01  0.7780E-01
     -2.791  0.2161E-01  0.7934E-01
     -2.720  0.2181E-01  0.8089E-01
     -2.649  0.1559E-01  0.8200E-01
     -2.578  0.1157E-01  0.8283E-01
     -2.506  0.1551E-01  0.8393E-01
     -2.435  0.1881E-01  0.8528E-01
     -2.364  0.1886E-01  0.8662E-01
     -2.293  0.1781E-01  0.8789E-01
     -2.221  0.1612E-01  0.8904E-01
     -2.150  0.1259E-01  0.8994E-01
     -2.079  0.1362E-01  0.9091E-01
     -2.007  0.1339E-01  0.9186E-01
     -1.936  0.6413E-02  0.9232E-01
     -1.865  0.2877E-02  0.9252E-01
     -1.794  0.7751E-02  0.9307E-01
     -1.722  0.1421E-01  0.9409E-01
     -1.651  0.1109E-01  0.9488E-01
     -1.580  0.3843E-02  0.9515E-01
     -1.509  0.6228E-03  0.9520E-01
     -1.437  0.4726E-04  0.9520E-01
     -1.366  0.1581E-05  0.9520E-01
     -1.295  0.2167E-07  0.9520E-01
     -1.223  0.1155E-09  0.9520E-01
     -1.152  0.2327E-12  0.9520E-01
     -1.081  0.1738E-15  0.9520E-01
     -1.010  0.0000E+00  0.9520E-01
     -0.938  0.0000E+00  0.9520E-01
     -0.867  0.0000E+00  0.9520E-01
     -0.796  0.0000E+00  0.9520E-01
     -0.725  0.0000E+00  0.9520E-01
     -0.653  0.0000E+00  0.9520E-01
     -0.582  0.6698E-17  0.9520E-01
     -0.511  0.1232E-13  0.9520E-01
     -0.439  0.8385E-11  0.9520E-01
     -0.368  0.2118E-08  0.9520E-01
     -0.297  0.1999E-06  0.9520E-01
     -0.226  0.7120E-05  0.9520E-01
     -0.154  0.9682E-04  0.9521E-01
     -0.083  0.5099E-03  0.9524E-01
     -0.012  0.1071E-02  0.9532E-01
      0.060  0.1109E-02  0.9540E-01
      0.131  0.1428E-02  0.9550E-01
      0.202  0.2425E-02  0.9567E-01
      0.273  0.4430E-02  0.9599E-01
      0.345  0.1055E-01  0.9674E-01
      0.416  0.1695E-01  0.9795E-01
      0.487  0.2297E-01  0.9959E-01
      0.558  0.3042E-01  0.1018E+00
      0.630  0.2784E-01  0.1037E+00
      0.701  0.1677E-01  0.1049E+00
      0.772  0.7344E-02  0.1055E+00
      0.844  0.1161E-01  0.1063E+00
      0.915  0.2980E-01  0.1084E+00
      0.986  0.3834E-01  0.1111E+00
      1.057  0.2879E-01  0.1132E+00
      1.129  0.1833E-01  0.1145E+00
      1.200  0.1248E-01  0.1154E+00
      1.271  0.1174E-01  0.1162E+00
      1.342  0.8072E-02  0.1168E+00
      1.414  0.2467E-02  0.1170E+00
      1.485  0.3035E-03  0.1170E+00
      1.556  0.1464E-04  0.1170E+00
      1.628  0.2727E-06  0.1170E+00
      1.699  0.1933E-08  0.1170E+00
      1.770  0.5167E-11  0.1170E+00
      1.841  0.5170E-14  0.1170E+00
      1.913  0.6231E-18  0.1170E+00
      1.984  0.0000E+00  0.1170E+00
      2.055  0.0000E+00  0.1170E+00
      2.126  0.0000E+00  0.1170E+00
      2.198  0.0000E+00  0.1170E+00
      2.269  0.0000E+00  0.1170E+00
