       N       E                     dE             d eps       ncg     rms          rms(c)
DAV:   1     0.765031559371E+04    0.76503E+04   -0.36408E+05  1209   0.112E+03
DAV:   2    -0.254420507230E+03   -0.79047E+04   -0.76642E+04  1586   0.268E+02
DAV:   3    -0.126218840049E+04   -0.10078E+04   -0.99351E+03  1365   0.102E+02
DAV:   4    -0.132093663706E+04   -0.58748E+02   -0.58407E+02  1768   0.299E+01
DAV:   5    -0.132306124797E+04   -0.21246E+01   -0.21121E+01  1742   0.491E+00    0.169E+02
DAV:   6    -0.127578938642E+04    0.47272E+02   -0.93557E+02  1612   0.274E+01    0.928E+01
DAV:   7    -0.129635229088E+04   -0.20563E+02   -0.11810E+03  1781   0.488E+01    0.550E+01
DAV:   8    -0.123304096441E+04    0.63311E+02   -0.67830E+01  1482   0.839E+00    0.334E+01
DAV:   9    -0.124477417588E+04   -0.11733E+02   -0.16181E+02  1833   0.109E+01    0.639E+01
DAV:  10    -0.121168178708E+04    0.33092E+02   -0.56727E+01  1781   0.167E+01    0.230E+01
DAV:  11    -0.122485835278E+04   -0.13177E+02   -0.19389E+02  1768   0.559E+00    0.201E+01
DAV:  12    -0.122426079968E+04    0.59755E+00   -0.94747E+00  1521   0.158E+00    0.168E+01
DAV:  13    -0.122384781564E+04    0.41298E+00   -0.59562E-01  1703   0.629E-01    0.164E+01
DAV:  14    -0.122308434942E+04    0.76347E+00   -0.38813E+00  1716   0.144E+00    0.159E+01
DAV:  15    -0.122344470593E+04   -0.36036E+00   -0.37514E+00  1729   0.153E+00    0.149E+01
DAV:  16    -0.122356115460E+04   -0.11645E+00   -0.32717E-01  1534   0.651E-01    0.140E+01
DAV:  17    -0.122435499367E+04   -0.79384E+00   -0.58375E+00  1612   0.567E-01    0.178E+01
DAV:  18    -0.122340789416E+04    0.94710E+00   -0.25047E+00  1664   0.108E+00    0.102E+01
DAV:  19    -0.122421590338E+04   -0.80801E+00   -0.59506E+00  1716   0.599E-01    0.150E+01
DAV:  20    -0.122357243206E+04    0.64347E+00   -0.44104E-01  1664   0.529E-01    0.112E+01
DAV:  21    -0.122321376084E+04    0.35867E+00   -0.14146E+00  1781   0.679E-01    0.564E+00
DAV:  22    -0.122322977222E+04   -0.16011E-01   -0.26405E-01  1664   0.211E-01    0.507E+00
DAV:  23    -0.122325156872E+04   -0.21796E-01   -0.20155E-02  1716   0.939E-02    0.477E+00
DAV:  24    -0.122331652175E+04   -0.64953E-01   -0.58092E-02  1729   0.151E-01    0.573E+00
DAV:  25    -0.122321854221E+04    0.97980E-01   -0.37224E-01  1768   0.316E-01    0.277E+00
DAV:  26    -0.122320927266E+04    0.92695E-02   -0.11215E-01  1638   0.971E-02    0.252E+00
DAV:  27    -0.122317734007E+04    0.31933E-01   -0.79129E-02  1781   0.919E-02    0.243E+00
DAV:  28    -0.122314591910E+04    0.31421E-01   -0.57901E-02  1625   0.822E-02    0.206E+00
DAV:  29    -0.122310584114E+04    0.40078E-01   -0.92084E-03  1625   0.905E-02    0.198E+00
DAV:  30    -0.122309279477E+04    0.13046E-01   -0.34006E-03  1482   0.476E-02    0.186E+00
DAV:  31    -0.122306670935E+04    0.26085E-01   -0.34334E-03  1430   0.594E-02    0.181E+00
DAV:  32    -0.122302865119E+04    0.38058E-01   -0.47742E-03  1547   0.754E-02    0.165E+00
DAV:  33    -0.122296964832E+04    0.59003E-01   -0.15225E-02  1716   0.158E-01    0.143E+00
DAV:  34    -0.122294675717E+04    0.22891E-01   -0.67703E-03  1638   0.816E-02    0.133E+00
DAV:  35    -0.122291795080E+04    0.28806E-01   -0.52031E-03  1508   0.100E-01    0.122E+00
DAV:  36    -0.122286301754E+04    0.54933E-01   -0.19331E-02  1690   0.227E-01    0.103E+00
DAV:  37    -0.122281651628E+04    0.46501E-01   -0.33041E-02  1664   0.256E-01    0.817E-01
DAV:  38    -0.122281806623E+04   -0.15499E-02   -0.10662E-02  1417   0.707E-02    0.674E-01
DAV:  39    -0.122281686161E+04    0.12046E-02   -0.83227E-04  1378   0.238E-02    0.767E-01
DAV:  40    -0.122281652577E+04    0.33584E-03   -0.13358E-04  1066   0.102E-02    0.714E-01
DAV:  41    -0.122281311450E+04    0.34113E-02   -0.27818E-04  1001   0.228E-02    0.759E-01
DAV:  42    -0.122281567890E+04   -0.25644E-02   -0.47950E-04  1027   0.337E-02    0.636E-01
DAV:  43    -0.122281158583E+04    0.40931E-02   -0.19839E-03  1274   0.394E-02    0.612E-01
DAV:  44    -0.122280247732E+04    0.91085E-02   -0.18019E-03  1417   0.623E-02    0.446E-01
DAV:  45    -0.122279507014E+04    0.74072E-02   -0.18898E-03  1456   0.632E-02    0.375E-01
DAV:  46    -0.122279313810E+04    0.19320E-02   -0.14518E-03  1352   0.256E-02    0.366E-01
DAV:  47    -0.122279326647E+04   -0.12837E-03   -0.32753E-04  1001   0.953E-03    0.379E-01
DAV:  48    -0.122279276225E+04    0.50422E-03   -0.27082E-05   793   0.637E-03    0.388E-01
DAV:  49    -0.122279521203E+04   -0.24498E-02   -0.10391E-03  1014   0.213E-02    0.468E-01
DAV:  50    -0.122279591636E+04   -0.70433E-03   -0.51499E-04  1079   0.166E-02    0.550E-01
DAV:  51    -0.122278716271E+04    0.87537E-02   -0.61568E-03  1573   0.116E-01    0.131E+00
DAV:  52    -0.122278504611E+04    0.21166E-02   -0.16336E-03  1313   0.349E-02    0.831E-01
DAV:  53    -0.122278575733E+04   -0.71121E-03   -0.63975E-04  1235   0.219E-02    0.113E+00
DAV:  54    -0.122278550212E+04    0.25520E-03   -0.16613E-04  1105   0.131E-02    0.103E+00
DAV:  55    -0.122278482009E+04    0.68203E-03   -0.99939E-05   884   0.138E-02    0.904E-01
DAV:  56    -0.122277981385E+04    0.50062E-02   -0.10657E-03  1404   0.642E-02    0.104E+00
DAV:  57    -0.122277851330E+04    0.13005E-02   -0.48011E-04  1274   0.171E-02    0.995E-01
DAV:  58    -0.122277855343E+04   -0.40131E-04   -0.63394E-05   923   0.860E-03
   1 F= -.12532920E+04 E0= -.12532141E+04  d E =-.125329E+04
       N       E                     dE             d eps       ncg     rms          rms(c)
DAV:   1    -0.122277811837E+04    0.39494E-03   -0.26602E-01  1222   0.345E-01    0.136E+00
DAV:   2    -0.122311749283E+04   -0.33937E+00   -0.21973E+00  1716   0.114E+00    0.436E+00
DAV:   3    -0.122282718755E+04    0.29031E+00   -0.14187E+00  1677   0.733E-01    0.193E+00
DAV:   4    -0.122280705967E+04    0.20128E-01   -0.30172E-01  1703   0.151E-01    0.163E+00
DAV:   5    -0.122277875168E+04    0.28308E-01   -0.18084E-01  1729   0.197E-01    0.982E-01
DAV:   6    -0.122277199153E+04    0.67602E-02   -0.98026E-02  1586   0.921E-02    0.675E-01
DAV:   7    -0.122276871311E+04    0.32784E-02   -0.43023E-02  1430   0.556E-02    0.447E-01
DAV:   8    -0.122276763138E+04    0.10817E-02   -0.24676E-02  1482   0.462E-02    0.278E-01
DAV:   9    -0.122276713150E+04    0.49987E-03   -0.97405E-03  1079   0.272E-02    0.195E-01
DAV:  10    -0.122276693550E+04    0.19601E-03   -0.47013E-03   936   0.192E-02    0.121E-01
DAV:  11    -0.122276695736E+04   -0.21860E-04   -0.20213E-03   884   0.152E-02    0.979E-02
DAV:  12    -0.122276699328E+04   -0.35922E-04   -0.74069E-04   780   0.108E-02
   2 F= -.12532802E+04 E0= -.12532157E+04  d E =0.118314E-01
       N       E                     dE             d eps       ncg     rms          rms(c)
DAV:   1    -0.122276864815E+04   -0.16908E-02   -0.11290E-01  1209   0.218E-01    0.125E-01
DAV:   2    -0.122277608989E+04   -0.74417E-02   -0.14130E-02  1430   0.849E-02    0.151E+00
DAV:   3    -0.122276983994E+04    0.62499E-02   -0.10041E-02  1326   0.627E-02    0.263E-01
DAV:   4    -0.122276916766E+04    0.67228E-03   -0.14902E-03  1027   0.204E-02    0.191E-01
DAV:   5    -0.122276900823E+04    0.15943E-03   -0.11013E-03   832   0.123E-02    0.108E-01
DAV:   6    -0.122276901554E+04   -0.73065E-05   -0.10334E-03   936   0.103E-02    0.112E-01
DAV:   7    -0.122276902974E+04   -0.14201E-04   -0.11371E-03   793   0.808E-03    0.787E-02
DAV:   8    -0.122276904211E+04   -0.12370E-04   -0.74625E-04   741   0.614E-03
   3 F= -.12532824E+04 E0= -.12532181E+04  d E =0.960675E-02
       N       E                     dE             d eps       ncg     rms          rms(c)
DAV:   1    -0.122276913325E+04   -0.10351E-03   -0.39286E-03  1079   0.384E-02    0.609E-02
DAV:   2    -0.122276947205E+04   -0.33880E-03   -0.30957E-03   975   0.149E-02    0.262E-01
DAV:   3    -0.122276941947E+04    0.52577E-04   -0.42026E-03  1014   0.233E-02    0.205E-01
DAV:   4    -0.122276921363E+04    0.20584E-03   -0.13509E-03   845   0.142E-02    0.946E-02
DAV:   5    -0.122276916695E+04    0.46684E-04   -0.49804E-04   754   0.478E-03
   4 F= -.12532826E+04 E0= -.12532187E+04  d E =0.945128E-02
       N       E                     dE             d eps       ncg     rms          rms(c)
DAV:   1    -0.122276918274E+04    0.30886E-04   -0.43293E-03  1118   0.431E-02    0.407E-02
DAV:   2    -0.122276928724E+04   -0.10450E-03   -0.42687E-04   949   0.116E-02    0.126E-01
DAV:   3    -0.122276927311E+04    0.14126E-04   -0.56858E-04   845   0.134E-02
   5 F= -.12532827E+04 E0= -.12532203E+04  d E =0.931015E-02
       N       E                     dE             d eps       ncg     rms          rms(c)
DAV:   1    -0.122276919551E+04    0.91727E-04   -0.44274E-04   949   0.141E-02    0.349E-02
DAV:   2    -0.122276942816E+04   -0.23264E-03   -0.75599E-04   819   0.139E-02    0.191E-01
DAV:   3    -0.122276925462E+04    0.17354E-03   -0.87226E-04   858   0.168E-02    0.916E-02
DAV:   4    -0.122276921685E+04    0.37765E-04   -0.10721E-04   676   0.499E-03
   6 F= -.12532827E+04 E0= -.12532191E+04  d E =0.935827E-02
       N       E                     dE             d eps       ncg     rms          rms(c)
DAV:   1    -0.122276921273E+04    0.41890E-04   -0.11773E-04   780   0.590E-03    0.195E-02
DAV:   2    -0.122276925798E+04   -0.45251E-04   -0.88808E-05   676   0.503E-03
   7 F= -.12532827E+04 E0= -.12532181E+04  d E =0.932130E-02
       N       E                     dE             d eps       ncg     rms          rms(c)
DAV:   1    -0.122276922854E+04   -0.15812E-04   -0.17137E-04   754   0.826E-03    0.510E-02
DAV:   2    -0.122277131727E+04   -0.20887E-02   -0.33461E-03  1066   0.377E-02    0.729E-01
DAV:   3    -0.122276936425E+04    0.19530E-02   -0.27637E-03  1027   0.346E-02    0.127E-01
DAV:   4    -0.122276926032E+04    0.10393E-03   -0.28521E-04   767   0.969E-03    0.515E-02
DAV:   5    -0.122276924772E+04    0.12602E-04   -0.13270E-04   676   0.492E-03
   8 F= -.12532827E+04 E0= -.12532190E+04  d E =0.933368E-02
       N       E                     dE             d eps       ncg     rms          rms(c)
DAV:   1    -0.122276927747E+04   -0.17151E-04   -0.22738E-02  1196   0.116E-01    0.617E-02
DAV:   2    -0.122276979352E+04   -0.51605E-03   -0.18272E-03  1261   0.319E-02    0.319E-01
DAV:   3    -0.122276947179E+04    0.32174E-03   -0.14215E-03   988   0.245E-02    0.145E-01
DAV:   4    -0.122276936219E+04    0.10960E-03   -0.10031E-04   715   0.810E-03    0.734E-02
DAV:   5    -0.122276933827E+04    0.23920E-04   -0.61884E-05   741   0.557E-03
   9 F= -.12532827E+04 E0= -.12532188E+04  d E =-.220929E-04
       N       E                     dE             d eps       ncg     rms          rms(c)
DAV:   1    -0.122276935581E+04    0.63753E-05   -0.44654E-03  1144   0.509E-02    0.527E-02
DAV:   2    -0.122276950854E+04   -0.15272E-03   -0.46119E-04   897   0.129E-02    0.169E-01
DAV:   3    -0.122276949203E+04    0.16501E-04   -0.55818E-04   793   0.120E-02
  10 F= -.12532829E+04 E0= -.12532166E+04  d E =-.205394E-03
       N       E                     dE             d eps       ncg     rms          rms(c)
DAV:   1    -0.122276941240E+04    0.96134E-04   -0.72204E-04  1040   0.196E-02    0.881E-02
DAV:   2    -0.122277159528E+04   -0.21829E-02   -0.28785E-03  1079   0.346E-02    0.754E-01
DAV:   3    -0.122277017342E+04    0.14219E-02   -0.43187E-03  1079   0.427E-02    0.262E-01
DAV:   4    -0.122276962067E+04    0.55275E-03   -0.48612E-04   845   0.130E-02    0.188E-01
DAV:   5    -0.122276939840E+04    0.22226E-03   -0.15577E-04   728   0.838E-03    0.607E-02
DAV:   6    -0.122276940270E+04   -0.42939E-05   -0.14779E-04   676   0.561E-03
  11 F= -.12532828E+04 E0= -.12532184E+04  d E =-.125410E-03
       N       E                     dE             d eps       ncg     rms          rms(c)
DAV:   1    -0.122276939300E+04    0.54049E-05   -0.10012E-02  1196   0.878E-02    0.436E-02
DAV:   2    -0.122276951089E+04   -0.11789E-03   -0.58833E-04  1209   0.219E-02    0.125E-01
DAV:   3    -0.122276945971E+04    0.51184E-04   -0.43725E-04   832   0.149E-02
  12 F= -.12532828E+04 E0= -.12532174E+04  d E =-.343986E-04
       N       E                     dE             d eps       ncg     rms          rms(c)
DAV:   1    -0.122276942737E+04    0.83526E-04   -0.66331E-04  1196   0.233E-02    0.496E-02
DAV:   2    -0.122277070598E+04   -0.12786E-02   -0.17354E-03  1027   0.291E-02    0.559E-01
DAV:   3    -0.122276958872E+04    0.11173E-02   -0.17955E-03   975   0.293E-02    0.118E-01
DAV:   4    -0.122276950324E+04    0.85477E-04   -0.14783E-04   741   0.898E-03
  13 F= -.12532829E+04 E0= -.12532189E+04  d E =-.832557E-04
       N       E                     dE             d eps       ncg     rms          rms(c)
DAV:   1    -0.122276950175E+04    0.86963E-04   -0.10658E-02  1183   0.848E-02    0.431E-02
DAV:   2    -0.122276967242E+04   -0.17067E-03   -0.54406E-04  1157   0.221E-02    0.153E-01
DAV:   3    -0.122276953563E+04    0.13679E-03   -0.49039E-04   858   0.164E-02    0.893E-02
DAV:   4    -0.122276953085E+04    0.47742E-05   -0.13979E-04   741   0.897E-03
  14 F= -.12532829E+04 E0= -.12532195E+04  d E =0.198419E-04
       N       E                     dE             d eps       ncg     rms          rms(c)
DAV:   1    -0.122276952154E+04    0.14088E-04   -0.10891E-04   702   0.599E-03    0.355E-02
DAV:   2    -0.122276956270E+04   -0.41159E-04   -0.39032E-04   650   0.445E-03
  15 F= -.12532829E+04 E0= -.12532193E+04  d E =-.141030E-04
       N       E                     dE             d eps       ncg     rms          rms(c)
DAV:   1    -0.122276960878E+04   -0.87239E-04   -0.60847E-03  1157   0.590E-02    0.757E-02
DAV:   2    -0.122277171118E+04   -0.21024E-02   -0.58943E-03  1196   0.451E-02    0.527E-01
DAV:   3    -0.122276973898E+04    0.19722E-02   -0.54542E-03  1183   0.442E-02    0.125E-01
DAV:   4    -0.122276970491E+04    0.34075E-04   -0.78906E-04   806   0.102E-02
  16 F= -.12532830E+04 E0= -.12532193E+04  d E =-.965712E-04
       N       E                     dE             d eps       ncg     rms          rms(c)
DAV:   1    -0.122276962658E+04    0.11240E-03   -0.10192E-03   962   0.199E-02    0.481E-02
DAV:   2    -0.122277027127E+04   -0.64469E-03   -0.16336E-03   962   0.240E-02    0.368E-01
DAV:   3    -0.122276972711E+04    0.54416E-03   -0.16431E-03   962   0.255E-02    0.132E-01
DAV:   4    -0.122276960766E+04    0.11945E-03   -0.17875E-04   715   0.667E-03    0.495E-02
DAV:   5    -0.122276959988E+04    0.77888E-05   -0.10866E-04   689   0.317E-03
  17 F= -.12532829E+04 E0= -.12532191E+04  d E =0.213722E-04
       N       E                     dE             d eps       ncg     rms          rms(c)
DAV:   1    -0.122276959231E+04    0.15350E-04   -0.16729E-04   832   0.105E-02    0.176E-02
DAV:   2    -0.122276961685E+04   -0.24536E-04   -0.50098E-05   650   0.396E-03
  18 F= -.12532829E+04 E0= -.12532193E+04  d E =-.304397E-05
       N       E                     dE             d eps       ncg     rms          rms(c)
DAV:   1    -0.122276965650E+04   -0.64187E-04   -0.45778E-03  1157   0.540E-02    0.430E-02
DAV:   2    -0.122277048301E+04   -0.82650E-03   -0.16116E-03  1066   0.291E-02    0.350E-01
DAV:   3    -0.122276971368E+04    0.76933E-03   -0.13549E-03   988   0.261E-02    0.628E-02
DAV:   4    -0.122276970602E+04    0.76588E-05   -0.74630E-05   715   0.693E-03
  19 F= -.12532830E+04 E0= -.12532193E+04  d E =-.542420E-04
