 vasp.5.4.4.18Apr17-6-g9f103f2a35 (build Oct 28 2020 13:00:36) gamma-only       
  
 executed on             LinuxIFC date 2020.12.03  21:33:07
 running on   52 total cores
 distrk:  each k-point on   52 cores,    1 groups
 distr:  one band on NCORES_PER_BAND=   4 cores,   13 groups


--------------------------------------------------------------------------------------------------------


 INCAR:
 POTCAR:    PAW_PBE C 08Apr2002                   
 POTCAR:    PAW_PBE Cr 06Sep2000                  
 POTCAR:    PAW_PBE H 15Jun2001                   
 POTCAR:    PAW_PBE Mo 08Apr2002                  
 POTCAR:    PAW_PBE S 06Sep2000                   
 POTCAR:    PAW_PBE C 08Apr2002                   
   VRHFIN =C: s2p2                                                              
   LEXCH  = PE                                                                  
   EATOM  =   147.1560 eV,   10.8157 Ry                                         
                                                                                
   TITEL  = PAW_PBE C 08Apr2002                                                 
   LULTRA =        F    use ultrasoft PP ?                                      
   IUNSCR =        1    unscreen: 0-lin 1-nonlin 2-no                           
   RPACOR =    1.200    partial core radius                                     
   POMASS =   12.011; ZVAL   =    4.000    mass and valenz                      
   RCORE  =    1.500    outmost cutoff radius                                   
   RWIGS  =    1.630; RWIGS  =    0.863    wigner-seitz radius (au A)           
   ENMAX  =  400.000; ENMIN  =  300.000 eV                                      
   ICORE  =        2    local potential                                         
   LCOR   =        T    correct aug charges                                     
   LPAW   =        T    paw PP                                                  
   EAUG   =  644.873                                                            
   DEXC   =    0.000                                                            
   RMAX   =    1.529    core radius for proj-oper                               
   RAUG   =    1.300    factor for augmentation sphere                          
   RDEP   =    1.501    radius for radial grids                                 
   RDEPT  =    1.300    core radius for aug-charge                              
                                                                                
   Atomic configuration                                                         
    4 entries                                                                   
     n  l   j            E        occ.                                          
     1  0  0.50      -273.3789   2.0000                                         
     2  0  0.50       -13.7508   2.0000                                         
     2  1  0.50        -5.2854   2.0000                                         
     3  2  1.50        -5.4423   0.0000                                         
   Description                                                                  
     l       E           TYP  RCUT    TYP  RCUT                                 
     0    -13.7508458     23  1.200                                             
     0     -8.2022199     23  1.200                                             
     1     -5.2854383     23  1.500                                             
     1     34.0145650     23  1.500                                             
     2     -5.4423304      7  1.500                                             
  local pseudopotential read in
  partial core-charges read in
  partial kinetic energy density read in
  atomic valenz-charges read in
  non local Contribution for L=           0  read in
    real space projection operators read in
  non local Contribution for L=           0  read in
    real space projection operators read in
  non local Contribution for L=           1  read in
    real space projection operators read in
  non local Contribution for L=           1  read in
    real space projection operators read in
    PAW grid and wavefunctions read in
 
   number of l-projection  operators is LMAX  =           4
   number of lm-projection operators is LMMAX =           8
 
 POTCAR:    PAW_PBE Cr 06Sep2000                  
   VRHFIN =Cr : d5 s1                                                           
   LEXCH  = PE                                                                  
   EATOM  =   276.8859 eV,   20.3505 Ry                                         
                                                                                
   TITEL  = PAW_PBE Cr 06Sep2000                                                
   LULTRA =        F    use ultrasoft PP ?                                      
   IUNSCR =        1    unscreen: 0-lin 1-nonlin 2-no                           
   RPACOR =    2.080    partial core radius                                     
   POMASS =   51.996; ZVAL   =    6.000    mass and valenz                      
   RCORE  =    2.500    outmost cutoff radius                                   
   RWIGS  =    2.500; RWIGS  =    1.323    wigner-seitz radius (au A)           
   ENMAX  =  227.080; ENMIN  =  170.310 eV                                      
   RCLOC  =    1.721    cutoff for local pot                                    
   LCOR   =        T    correct aug charges                                     
   LPAW   =        T    paw PP                                                  
   EAUG   =  402.108                                                            
   DEXC   =    0.000                                                            
   RMAX   =    2.552    core radius for proj-oper                               
   RAUG   =    1.300    factor for augmentation sphere                          
   RDEP   =    2.609    radius for radial grids                                 
   RDEPT  =    2.065    core radius for aug-charge                              
                                                                                
   Atomic configuration                                                         
    9 entries                                                                   
     n  l   j            E        occ.                                          
     1  0  0.50     -5880.4963   2.0000                                         
     2  0  0.50      -667.0865   2.0000                                         
     2  1  1.50      -560.6250   6.0000                                         
     3  0  0.50       -73.9860   2.0000                                         
     3  1  1.50       -45.4378   6.0000                                         
     3  2  2.50        -2.9137   5.0000                                         
     4  0  0.50        -4.0071   1.0000                                         
     4  1  0.50        -1.2789   0.0000                                         
     4  3  2.50        -1.3606   0.0000                                         
   Description                                                                  
     l       E           TYP  RCUT    TYP  RCUT                                 
     2     -2.9136677     23  2.500                                             
     2     -4.2742503     23  2.500                                             
     0     -4.0071322     23  2.500                                             
     0      9.4498801     23  2.500                                             
     1     -5.4423304     23  2.500                                             
     1     27.2116520     23  2.500                                             
  local pseudopotential read in
  partial core-charges read in
  partial kinetic energy density read in
  atomic valenz-charges read in
  non local Contribution for L=           2  read in
    real space projection operators read in
  non local Contribution for L=           2  read in
    real space projection operators read in
  non local Contribution for L=           0  read in
    real space projection operators read in
  non local Contribution for L=           0  read in
    real space projection operators read in
  non local Contribution for L=           1  read in
    real space projection operators read in
  non local Contribution for L=           1  read in
    real space projection operators read in
    PAW grid and wavefunctions read in
 
   number of l-projection  operators is LMAX  =           6
   number of lm-projection operators is LMMAX =          18
 
 POTCAR:    PAW_PBE H 15Jun2001                   
   VRHFIN =H: ultrasoft test                                                    
   LEXCH  = PE                                                                  
   EATOM  =    12.4884 eV,    0.9179 Ry                                         
                                                                                
   TITEL  = PAW_PBE H 15Jun2001                                                 
   LULTRA =        F    use ultrasoft PP ?                                      
   IUNSCR =        0    unscreen: 0-lin 1-nonlin 2-no                           
   RPACOR =    0.000    partial core radius                                     
   POMASS =    1.000; ZVAL   =    1.000    mass and valenz                      
   RCORE  =    1.100    outmost cutoff radius                                   
   RWIGS  =    0.700; RWIGS  =    0.370    wigner-seitz radius (au A)           
   ENMAX  =  250.000; ENMIN  =  200.000 eV                                      
   RCLOC  =    0.701    cutoff for local pot                                    
   LCOR   =        T    correct aug charges                                     
   LPAW   =        T    paw PP                                                  
   EAUG   =  400.000                                                            
   RMAX   =    1.123    core radius for proj-oper                               
   RAUG   =    1.200    factor for augmentation sphere                          
   RDEP   =    1.112    radius for radial grids                                 
   RDEPT  =    0.926    core radius for aug-charge                              
                                                                                
   Atomic configuration                                                         
    2 entries                                                                   
     n  l   j            E        occ.                                          
     1  0  0.50        -6.4927   1.0000                                         
     2  1  0.50        -3.4015   0.0000                                         
   Description                                                                  
     l       E           TYP  RCUT    TYP  RCUT                                 
     0     -6.4927494     23  1.100                                             
     0      6.8029130     23  1.100                                             
     1     -4.0817478     23  1.100                                             
  local pseudopotential read in
  atomic valenz-charges read in
  non local Contribution for L=           0  read in
    real space projection operators read in
  non local Contribution for L=           0  read in
    real space projection operators read in
  non local Contribution for L=           1  read in
    real space projection operators read in
    PAW grid and wavefunctions read in
 
   number of l-projection  operators is LMAX  =           3
   number of lm-projection operators is LMMAX =           5
 
 POTCAR:    PAW_PBE Mo 08Apr2002                  
   VRHFIN =Mo: 4p5s4d                                                           
   LEXCH  = PE                                                                  
   EATOM  =   217.5176 eV,   15.9871 Ry                                         
                                                                                
   TITEL  = PAW_PBE Mo 08Apr2002                                                
   LULTRA =        F    use ultrasoft PP ?                                      
   IUNSCR =        1    unscreen: 0-lin 1-nonlin 2-no                           
   RPACOR =    2.200    partial core radius                                     
   POMASS =   95.940; ZVAL   =    6.000    mass and valenz                      
   RCORE  =    2.750    outmost cutoff radius                                   
   RWIGS  =    2.750; RWIGS  =    1.455    wigner-seitz radius (au A)           
   ENMAX  =  224.584; ENMIN  =  168.438 eV                                      
   RCLOC  =    2.111    cutoff for local pot                                    
   LCOR   =        T    correct aug charges                                     
   LPAW   =        T    paw PP                                                  
   EAUG   =  345.278                                                            
   DEXC   =    0.000                                                            
   RMAX   =    2.821    core radius for proj-oper                               
   RAUG   =    1.300    factor for augmentation sphere                          
   RDEP   =    2.815    radius for radial grids                                 
   RDEPT  =    2.211    core radius for aug-charge                              
                                                                                
   Atomic configuration                                                         
   12 entries                                                                   
     n  l   j            E        occ.                                          
     1  0  0.50    -19819.0341   2.0000                                         
     2  0  0.50     -2799.0127   2.0000                                         
     2  1  1.50     -2502.0276   6.0000                                         
     3  0  0.50      -476.4448   2.0000                                         
     3  1  1.50      -379.1496   6.0000                                         
     3  2  2.50      -220.9367  10.0000                                         
     4  0  0.50       -64.3378   2.0000                                         
     4  1  1.50       -38.4773   6.0000                                         
     4  2  2.50        -3.7535   5.0000                                         
     5  0  0.50        -4.0862   1.0000                                         
     5  1  0.50        -2.7701   0.0000                                         
     4  3  2.50        -1.3606   0.0000                                         
   Description                                                                  
     l       E           TYP  RCUT    TYP  RCUT                                 
     2     -3.7534765     23  2.500                                             
     2     -5.1140591     23  2.500                                             
     0     -4.0861560     23  2.600                                             
     0     13.6058260     23  2.600                                             
     1      5.4423304     23  2.750                                             
     1     27.2116520     23  2.750                                             
  local pseudopotential read in
  partial core-charges read in
  partial kinetic energy density read in
  atomic valenz-charges read in
  non local Contribution for L=           2  read in
    real space projection operators read in
  non local Contribution for L=           2  read in
    real space projection operators read in
  non local Contribution for L=           0  read in
    real space projection operators read in
  non local Contribution for L=           0  read in
    real space projection operators read in
  non local Contribution for L=           1  read in
    real space projection operators read in
  non local Contribution for L=           1  read in
    real space projection operators read in
    PAW grid and wavefunctions read in
 
   number of l-projection  operators is LMAX  =           6
   number of lm-projection operators is LMMAX =          18
 
 POTCAR:    PAW_PBE S 06Sep2000                   
   VRHFIN =S : s2p4                                                             
   LEXCH  = PE                                                                  
   EATOM  =   276.8230 eV,   20.3459 Ry                                         
                                                                                
   TITEL  = PAW_PBE S 06Sep2000                                                 
   LULTRA =        F    use ultrasoft PP ?                                      
   IUNSCR =        1    unscreen: 0-lin 1-nonlin 2-no                           
   RPACOR =    1.500    partial core radius                                     
   POMASS =   32.066; ZVAL   =    6.000    mass and valenz                      
   RCORE  =    1.900    outmost cutoff radius                                   
   RWIGS  =    2.200; RWIGS  =    1.164    wigner-seitz radius (au A)           
   ENMAX  =  258.689; ENMIN  =  194.016 eV                                      
   ICORE  =        2    local potential                                         
   LCOR   =        T    correct aug charges                                     
   LPAW   =        T    paw PP                                                  
   EAUG   =  335.092                                                            
   DEXC   =    0.000                                                            
   RMAX   =    1.942    core radius for proj-oper                               
   RAUG   =    1.300    factor for augmentation sphere                          
   RDEP   =    1.954    radius for radial grids                                 
   RDEPT  =    1.744    core radius for aug-charge                              
                                                                                
   Atomic configuration                                                         
    6 entries                                                                   
     n  l   j            E        occ.                                          
     1  0  0.50     -2405.8406   2.0000                                         
     2  0  0.50      -211.7007   2.0000                                         
     2  1  1.50      -156.4958   6.0000                                         
     3  0  0.50       -17.2562   2.0000                                         
     3  1  0.50        -7.0085   4.0000                                         
     3  2  1.50        -6.8029   0.0000                                         
   Description                                                                  
     l       E           TYP  RCUT    TYP  RCUT                                 
     0    -17.2561641     23  1.900                                             
     0    -15.8743224     23  1.900                                             
     1     -7.0085400     23  1.900                                             
     1     -2.7779785     23  1.900                                             
     2     -6.8029130     23  1.900                                             
  local pseudopotential read in
  partial core-charges read in
  partial kinetic energy density read in
  atomic valenz-charges read in
  non local Contribution for L=           0  read in
    real space projection operators read in
  non local Contribution for L=           0  read in
    real space projection operators read in
  non local Contribution for L=           1  read in
    real space projection operators read in
  non local Contribution for L=           1  read in
    real space projection operators read in
    PAW grid and wavefunctions read in
 
   number of l-projection  operators is LMAX  =           4
   number of lm-projection operators is LMMAX =           8
 
 Optimization of the real space projectors (new method)

 maximal supplied QI-value         = 25.13
 optimisation between [QCUT,QGAM] = [ 10.05, 20.36] = [ 28.30,116.06] Ry 
 Optimized for a Real-space Cutoff    1.51 Angstroem

   l    n(q)    QCUT    max X(q) W(low)/X(q) W(high)/X(q)  e(spline) 
   0      9    10.053   115.676    0.19E-03    0.21E-03    0.38E-06
   0      9    10.053    87.132    0.19E-03    0.21E-03    0.38E-06
   1      9    10.053     4.429    0.87E-04    0.11E-03    0.39E-06
   1      9    10.053     2.733    0.59E-04    0.62E-04    0.43E-06
 Optimization of the real space projectors (new method)

 maximal supplied QI-value         = 15.12
 optimisation between [QCUT,QGAM] = [ 10.13, 20.41] = [ 28.73,116.64] Ry 
 Optimized for a Real-space Cutoff    1.55 Angstroem

   l    n(q)    QCUT    max X(q) W(low)/X(q) W(high)/X(q)  e(spline) 
   2      9    10.129    94.395    0.23E-03    0.29E-03    0.30E-06
   2      9    10.129    88.078    0.23E-03    0.29E-03    0.30E-06
   0      9    10.129    50.173    0.57E-04    0.58E-04    0.11E-06
   0      9    10.129    24.906    0.50E-04    0.51E-04    0.96E-07
   1      9    10.129    12.133    0.24E-03    0.21E-04    0.16E-06
   1      9    10.129     7.290    0.17E-03    0.12E-04    0.12E-06
 Optimization of the real space projectors (new method)

 maximal supplied QI-value         = 34.20
 optimisation between [QCUT,QGAM] = [  9.92, 20.18] = [ 27.55,114.04] Ry 
 Optimized for a Real-space Cutoff    1.34 Angstroem

   l    n(q)    QCUT    max X(q) W(low)/X(q) W(high)/X(q)  e(spline) 
   0      8     9.919    19.460    0.16E-03    0.20E-03    0.36E-06
   0      8     9.919    12.209    0.16E-03    0.20E-03    0.35E-06
   1      8     9.919     4.655    0.19E-03    0.46E-03    0.40E-06
 Optimization of the real space projectors (new method)

 maximal supplied QI-value         = 13.61
 optimisation between [QCUT,QGAM] = [ 10.20, 20.41] = [ 29.16,116.64] Ry 
 Optimized for a Real-space Cutoff    1.65 Angstroem

   l    n(q)    QCUT    max X(q) W(low)/X(q) W(high)/X(q)  e(spline) 
   2      9    10.205    80.908    0.21E-03    0.30E-03    0.60E-06
   2      9    10.205    79.000    0.21E-03    0.30E-03    0.60E-06
   0     10    10.205    52.066    0.39E-04    0.38E-04    0.19E-06
   0     10    10.205    24.514    0.33E-04    0.32E-04    0.16E-06
   1     10    10.205    16.033    0.64E-04    0.17E-03    0.19E-06
   1     10    10.205    11.179    0.49E-04    0.13E-03    0.15E-06
 Optimization of the real space projectors (new method)

 maximal supplied QI-value         = 19.84
 optimisation between [QCUT,QGAM] = [ 10.12, 20.44] = [ 28.68,116.96] Ry 
 Optimized for a Real-space Cutoff    1.42 Angstroem

   l    n(q)    QCUT    max X(q) W(low)/X(q) W(high)/X(q)  e(spline) 
   0      9    10.119   187.594    0.52E-04    0.93E-04    0.64E-07
   0      9    10.119   164.243    0.51E-04    0.92E-04    0.63E-07
   1      8    10.119    67.533    0.16E-03    0.17E-03    0.23E-06
   1      8    10.119    50.729    0.16E-03    0.16E-03    0.23E-06
  PAW_PBE C 08Apr2002                   :
 energy of atom  1       EATOM= -147.1560
 kinetic energy error for atom=    0.0288 (will be added to EATOM!!)
  PAW_PBE Cr 06Sep2000                  :
 energy of atom  2       EATOM= -276.8859
 kinetic energy error for atom=    0.0018 (will be added to EATOM!!)
  PAW_PBE H 15Jun2001                   :
 energy of atom  3       EATOM=  -12.4884
 kinetic energy error for atom=    0.0098 (will be added to EATOM!!)
  PAW_PBE Mo 08Apr2002                  :
 energy of atom  4       EATOM= -217.5176
 kinetic energy error for atom=    0.0025 (will be added to EATOM!!)
  PAW_PBE S 06Sep2000                   :
 energy of atom  5       EATOM= -276.8230
 kinetic energy error for atom=    0.0046 (will be added to EATOM!!)
 
 
 POSCAR:  C Cr  H Mo  S                          
  positions in cartesian coordinates
  No initial velocities read in
 exchange correlation table for  LEXCH =        8
   RHO(1)=    0.500       N(1)  =     2000
   RHO(2)=  100.500       N(2)  =     4000
 


--------------------------------------------------------------------------------------------------------


 ion  position               nearest neighbor table
   1  0.520  0.374  0.485-  18 1.09   2 1.42   3 1.43  11 2.20
   2  0.444  0.384  0.503-  17 1.09   1 1.42   5 1.43  11 2.18
   3  0.589  0.465  0.468-  19 1.09   1 1.43   4 1.44  11 2.15
   4  0.556  0.533  0.475-  20 1.09   3 1.44   5 1.44  11 2.09
   5  0.465  0.482  0.497-  12 1.09   2 1.43   4 1.44  11 2.11
   6  0.333  0.317  0.404-  14 1.09  10 1.44   8 1.44  11 2.11
   7  0.407  0.482  0.389-  15 1.09   9 1.43   8 1.44  11 2.15
   8  0.326  0.403  0.410-  13 1.09   7 1.44   6 1.44  11 2.10
   9  0.462  0.444  0.371-  16 1.09  10 1.42   7 1.43  11 2.20
  10  0.418  0.343  0.380-  21 1.09   9 1.42   6 1.44  11 2.18
  11  0.453  0.421  0.438-   4 2.09   8 2.10   5 2.11   6 2.11   3 2.15   7 2.15  10 2.18   2 2.18
                             1 2.20   9 2.20
  12  0.421  0.512  0.508-   5 1.09
  13  0.268  0.407  0.427-   8 1.09
  14  0.281  0.244  0.415-   6 1.09
  15  0.424  0.557  0.389-   7 1.09
  16  0.531  0.487  0.354-   9 1.09
  17  0.379  0.326  0.518-   2 1.09
  18  0.523  0.307  0.483-   1 1.09
  19  0.655  0.480  0.452-   3 1.09
  20  0.594  0.610  0.467-   4 1.09
  21  0.445  0.296  0.370-  10 1.09
  22  0.600  0.600  0.657-  97 2.43 148 2.43 144 2.43  98 2.43 149 2.43 145 2.43  56 3.18  27 3.18
                            61 3.18  44 3.18  38 3.18  47 3.18
  23  0.200  0.800  0.219- 126 2.43 162 2.43 121 2.43 139 2.43 163 2.43 122 2.43  26 3.18  49 3.18
                            51 3.18  64 3.18  54 3.18  70 3.18
  24  0.200  0.600  0.657- 164 2.43 127 2.43 123 2.43 128 2.43 165 2.43 124 2.43  46 3.18  33 3.18
                            47 3.18  63 3.18  34 3.18  66 3.18
  25  0.600  0.800  0.219-  92 2.43 146 2.43 112 2.43  94 2.43 147 2.43 143 2.43  35 3.18  58 3.18
                            29 3.18  36 3.18  50 3.18  49 3.18
  26  0.200  0.600  0.219- 166 2.43 129 2.43 126 2.43 130 2.43 167 2.43 139 2.43  49 3.18  36 3.18
                            23 3.18  62 3.18  28 3.18  64 3.18
  27  0.600  0.800  0.657-  96 2.43 144 2.43 110 2.43  93 2.43 145 2.43 170 2.43  22 3.18  56 3.18
                            31 3.18  47 3.18  48 3.18  46 3.18
  28  0.200  0.400  0.219- 133 2.43 142 2.43 129 2.43 141 2.43 134 2.43 130 2.43  32 3.18  42 3.18
                            36 3.18  59 3.18  26 3.18  62 3.18
  29  0.800  0.000  0.219-  72 2.43  84 2.43  92 2.43  94 2.43 108 2.43  86 2.43  50 3.18  25 3.18
                            59 3.18  58 3.18  52 3.18  55 3.18
  30  0.200  0.200  0.657- 140 2.43 135 2.43 131 2.43 136 2.43 125 2.43 132 2.43  44 3.18  41 3.18
                            34 3.18  57 3.18  53 3.18  60 3.18
  31  0.800  0.000  0.657-  80 2.43  85 2.43  96 2.43  93 2.43  82 2.43  81 2.43  48 3.18  27 3.18
                            60 3.18  56 3.18  71 3.18  57 3.18
  32  0.200  0.200  0.219- 113 2.43 137 2.43 133 2.43 114 2.43 138 2.43 134 2.43  42 3.18  39 3.18
                            28 3.18  55 3.18  54 3.18  59 3.18
  33  0.200  0.800  0.657- 123 2.43 160 2.43 119 2.43 124 2.43 161 2.43 120 2.43  24 3.18  46 3.18
                            37 3.18  66 3.18  53 3.18  69 3.18
  34  0.200  0.400  0.657- 131 2.43 168 2.43 127 2.43 132 2.43 169 2.43 128 2.43  30 3.18  44 3.18
                            47 3.18  60 3.18  24 3.18  63 3.18
  35  0.600  0.600  0.219- 100 2.43 150 2.43 146 2.43 102 2.43 151 2.43 147 2.43  58 3.18  25 3.18
                            67 3.18  42 3.18  40 3.18  36 3.18
  36  0.400  0.600  0.219- 166 2.43 146 2.43 142 2.43 167 2.43 141 2.43 147 2.43  26 3.18  49 3.18
                            28 3.18  25 3.18  42 3.18  35 3.18
  37  0.400  0.000  0.657- 115 2.43 156 2.43 160 2.43 111 2.43 161 2.43 116 2.43  53 3.18  33 3.18
                            43 3.18  46 3.18  41 3.18  48 3.18
  38  0.600  0.400  0.657- 105 2.43 152 2.43 148 2.43 106 2.43 153 2.43 149 2.43  43 3.18  65 3.18
                            61 3.18  41 3.18  22 3.18  44 3.18
  39  0.400  0.200  0.219- 113 2.43 154 2.43 117 2.43 114 2.43 118 2.43 155 2.43  32 3.18  42 3.18
                            54 3.18  40 3.18  51 3.18  45 3.18
  40  0.600  0.400  0.219-  91 2.43 154 2.43 150 2.43  90 2.43 155 2.43 151 2.43  45 3.18  68 3.18
                            67 3.18  39 3.18  35 3.18  42 3.18
  41  0.400  0.200  0.657- 140 2.43 152 2.43 115 2.43 125 2.43 116 2.43 153 2.43  30 3.18  44 3.18
                            53 3.18  38 3.18  37 3.18  43 3.18
  42  0.400  0.400  0.219- 113 2.43 142 2.43 150 2.43 114 2.43 151 2.43 141 2.43  32 3.18  28 3.18
                            39 3.18  35 3.18  36 3.18  40 3.18
  43  0.600  0.200  0.657-  73 2.43 156 2.43 152 2.43  74 2.43 111 2.43 153 2.43  65 3.18  38 3.18
                            71 3.18  37 3.18  48 3.18  41 3.18
  44  0.400  0.400  0.657- 140 2.43 148 2.43 168 2.43 149 2.43 125 2.43 169 2.43  30 3.18  34 3.18
                            41 3.18  22 3.18  47 3.18  38 3.18
  45  0.600  0.200  0.219-  77 2.43 158 2.43 154 2.43  78 2.43 159 2.43 155 2.43  68 3.18  52 3.18
                            40 3.18  51 3.18  50 3.18  39 3.18
  46  0.400  0.800  0.657- 110 2.43 160 2.43 164 2.43 165 2.43 170 2.43 161 2.43  24 3.18  33 3.18
                            47 3.18  48 3.18  37 3.18  27 3.18
  47  0.400  0.600  0.657- 164 2.43 144 2.43 168 2.43 165 2.43 145 2.43 169 2.43  24 3.18  46 3.18
                            34 3.18  27 3.18  44 3.18  22 3.18
  48  0.600  0.000  0.657-  80 2.43 110 2.43 156 2.43  81 2.43 170 2.43 111 2.43  31 3.18  71 3.18
                            46 3.18  27 3.18  43 3.18  37 3.18
  49  0.400  0.800  0.219- 112 2.43 162 2.43 166 2.43 143 2.43 167 2.43 163 2.43  26 3.18  23 3.18
                            36 3.18  50 3.18  51 3.18  25 3.18
  50  0.600  0.000  0.219-  84 2.43 112 2.43 158 2.43 143 2.43  86 2.43 159 2.43  29 3.18  52 3.18
                            49 3.18  25 3.18  45 3.18  51 3.18
  51  0.400  0.000  0.219- 117 2.43 158 2.43 162 2.43 159 2.43 163 2.43 118 2.43  54 3.18  23 3.18
                            45 3.18  49 3.18  39 3.18  50 3.18
  52  0.800  0.200  0.219-  77 2.43  87 2.43  84 2.43  78 2.43  86 2.43 104 2.43  45 3.18  68 3.18
                            50 3.18  62 3.18  29 3.18  59 3.18
  53  0.200  0.000  0.657- 115 2.43 119 2.43 135 2.43 120 2.43 116 2.43 136 2.43  37 3.18  41 3.18
                            69 3.18  33 3.18  30 3.18  57 3.18
  54  0.200  0.000  0.219- 117 2.43 121 2.43 137 2.43 122 2.43 118 2.43 138 2.43  51 3.18  39 3.18
                            70 3.18  32 3.18  23 3.18  55 3.18
  55  0.000  0.000  0.219-  83 2.43 137 2.43  72 2.43  89 2.43 138 2.43 108 2.43  32 3.18  58 3.18
                            59 3.18  70 3.18  54 3.18  29 3.18
  56  0.800  0.800  0.657-  96 2.43  97 2.43 171 2.43  98 2.43  93 2.43 157 2.43  22 3.18  27 3.18
                            61 3.18  57 3.18  31 3.18  69 3.18
  57  0.000  0.000  0.657- 135 2.43 171 2.43  85 2.43 157 2.43 136 2.43  82 2.43  30 3.18  56 3.18
                            60 3.18  69 3.18  53 3.18  31 3.18
  58  0.800  0.800  0.219-  92 2.43 100 2.43  83 2.43 102 2.43  94 2.43  89 2.43  35 3.18  25 3.18
                            67 3.18  55 3.18  29 3.18  70 3.18
  59  0.000  0.200  0.219- 133 2.43  72 2.43  87 2.43 108 2.43 134 2.43 104 2.43  62 3.18  28 3.18
                            29 3.18  55 3.18  32 3.18  52 3.18
  60  0.000  0.200  0.657- 131 2.43  85 2.43 103 2.43  82 2.43 132 2.43  88 2.43  63 3.18  34 3.18
                            31 3.18  57 3.18  30 3.18  71 3.18
  61  0.800  0.600  0.657-  97 2.43 105 2.43  76 2.43  98 2.43 106 2.43  75 2.43  22 3.18  56 3.18
                            38 3.18  69 3.18  65 3.18  66 3.18
  62  0.000  0.400  0.219-  87 2.43  95 2.43 129 2.43 104 2.43 130 2.43  79 2.43  59 3.18  52 3.18
                            26 3.18  64 3.18  28 3.18  68 3.18
  63  0.000  0.400  0.657- 101 2.43 103 2.43 127 2.43  88 2.43 128 2.43  99 2.43  60 3.18  71 3.18
                            24 3.18  66 3.18  34 3.18  65 3.18
  64  0.000  0.600  0.219- 109 2.43 126 2.43  95 2.43 107 2.43  79 2.43 139 2.43  70 3.18  23 3.18
                            68 3.18  62 3.18  26 3.18  67 3.18
  65  0.800  0.400  0.657-  73 2.43 105 2.43 101 2.43  74 2.43 106 2.43  99 2.43  43 3.18  38 3.18
                            71 3.18  66 3.18  61 3.18  63 3.18
  66  0.000  0.600  0.657-  76 2.43 123 2.43 101 2.43  75 2.43  99 2.43 124 2.43  69 3.18  33 3.18
                            65 3.18  63 3.18  61 3.18  24 3.18
  67  0.800  0.600  0.219- 100 2.43  91 2.43 109 2.43 102 2.43  90 2.43 107 2.43  35 3.18  58 3.18
                            40 3.18  70 3.18  68 3.18  64 3.18
  68  0.800  0.400  0.219-  77 2.43  91 2.43  95 2.43  78 2.43  90 2.43  79 2.43  45 3.18  40 3.18
                            52 3.18  64 3.18  67 3.18  62 3.18
  69  0.000  0.800  0.657-  76 2.43 119 2.43 171 2.43 120 2.43  75 2.43 157 2.43  66 3.18  61 3.18
                            53 3.18  57 3.18  56 3.18  33 3.18
  70  0.000  0.800  0.219-  83 2.43 109 2.43 121 2.43 107 2.43 122 2.43  89 2.43  64 3.18  67 3.18
                            54 3.18  55 3.18  23 3.18  58 3.18
  71  0.800  0.200  0.657-  73 2.43 103 2.43  80 2.43  74 2.43  88 2.43  81 2.43  43 3.18  65 3.18
                            48 3.18  63 3.18  31 3.18  60 3.18
  72  0.933  0.067  0.170-  29 2.43  59 2.43  55 2.43
  73  0.733  0.267  0.608-  71 2.43  43 2.43  65 2.43
  74  0.733  0.267  0.707-  71 2.43  65 2.43  43 2.43
  75  0.933  0.667  0.707-  66 2.43  69 2.43  61 2.43
  76  0.933  0.667  0.608-  66 2.43  69 2.43  61 2.43
  77  0.733  0.267  0.170-  52 2.43  45 2.43  68 2.43
  78  0.733  0.267  0.268-  52 2.43  45 2.43  68 2.43
  79  0.933  0.467  0.268-  64 2.43  62 2.43  68 2.43
  80  0.733  0.067  0.608-  31 2.43  48 2.43  71 2.43
  81  0.733  0.067  0.707-  48 2.43  71 2.43  31 2.43
  82  0.933  0.067  0.707-  31 2.43  60 2.43  57 2.43
  83  0.933  0.867  0.170-  55 2.43  70 2.43  58 2.43
  84  0.733  0.067  0.170-  29 2.43  50 2.43  52 2.43
  85  0.933  0.067  0.608-  31 2.43  60 2.43  57 2.43
  86  0.733  0.067  0.268-  50 2.43  52 2.43  29 2.43
  87  0.933  0.267  0.170-  52 2.43  62 2.43  59 2.43
  88  0.933  0.267  0.707-  63 2.43  71 2.43  60 2.43
  89  0.933  0.867  0.268-  55 2.43  70 2.43  58 2.43
  90  0.733  0.467  0.268-  40 2.43  67 2.43  68 2.43
  91  0.733  0.467  0.170-  40 2.43  67 2.43  68 2.43
  92  0.733  0.867  0.170-  25 2.43  29 2.43  58 2.43
  93  0.733  0.867  0.707-  27 2.43  31 2.43  56 2.43
  94  0.733  0.867  0.268-  25 2.43  29 2.43  58 2.43
  95  0.933  0.467  0.170-  62 2.43  64 2.43  68 2.43
  96  0.733  0.867  0.608-  27 2.43  31 2.43  56 2.43
  97  0.733  0.667  0.608-  61 2.43  22 2.43  56 2.43
  98  0.733  0.667  0.707-  61 2.43  56 2.43  22 2.43
  99  0.933  0.467  0.707-  66 2.43  63 2.43  65 2.43
 100  0.733  0.667  0.170-  67 2.43  35 2.43  58 2.43
 101  0.933  0.467  0.608-  63 2.43  66 2.43  65 2.43
 102  0.733  0.667  0.268-  67 2.43  58 2.43  35 2.43
 103  0.933  0.267  0.608-  71 2.43  63 2.43  60 2.43
 104  0.933  0.267  0.268-  52 2.43  62 2.43  59 2.43
 105  0.733  0.467  0.608-  38 2.43  61 2.43  65 2.43
 106  0.733  0.467  0.707-  38 2.43  61 2.43  65 2.43
 107  0.933  0.667  0.268-  64 2.43  70 2.43  67 2.43
 108  0.933  0.067  0.268-  29 2.43  59 2.43  55 2.43
 109  0.933  0.667  0.170-  64 2.43  70 2.43  67 2.43
 110  0.533  0.867  0.608-  46 2.43  48 2.43  27 2.43
 111  0.533  0.067  0.707-  37 2.43  43 2.43  48 2.43
 112  0.533  0.867  0.170-  49 2.43  50 2.43  25 2.43
 113  0.333  0.267  0.170-  39 2.43  32 2.43  42 2.43
 114  0.333  0.267  0.268-  39 2.43  32 2.43  42 2.43
 115  0.333  0.067  0.608-  37 2.43  41 2.43  53 2.43
 116  0.333  0.067  0.707-  41 2.43  53 2.43  37 2.43
 117  0.333  0.067  0.170-  39 2.43  51 2.43  54 2.43
 118  0.333  0.067  0.268-  39 2.43  54 2.43  51 2.43
 119  0.133  0.867  0.608-  53 2.43  69 2.43  33 2.43
 120  0.133  0.867  0.707-  53 2.43  69 2.43  33 2.43
 121  0.133  0.867  0.170-  54 2.43  70 2.43  23 2.43
 122  0.133  0.867  0.268-  54 2.43  70 2.43  23 2.43
 123  0.133  0.667  0.608-  66 2.43  33 2.43  24 2.43
 124  0.133  0.667  0.707-  33 2.43  66 2.43  24 2.43
 125  0.333  0.267  0.707-  41 2.43  30 2.43  44 2.43
 126  0.133  0.667  0.170-  64 2.43  23 2.43  26 2.43
 127  0.133  0.467  0.608-  24 2.43  63 2.43  34 2.43
 128  0.133  0.467  0.707-  24 2.43  63 2.43  34 2.43
 129  0.133  0.467  0.170-  26 2.43  62 2.43  28 2.43
 130  0.133  0.467  0.268-  26 2.43  62 2.43  28 2.43
 131  0.133  0.267  0.608-  60 2.43  34 2.43  30 2.43
 132  0.133  0.267  0.707-  34 2.43  60 2.43  30 2.43
 133  0.133  0.267  0.170-  59 2.43  28 2.43  32 2.43
 134  0.133  0.267  0.268-  28 2.43  59 2.43  32 2.43
 135  0.133  0.067  0.608-  30 2.43  57 2.43  53 2.43
 136  0.133  0.067  0.707-  30 2.43  57 2.43  53 2.43
 137  0.133  0.067  0.170-  32 2.43  55 2.43  54 2.43
 138  0.133  0.067  0.268-  32 2.43  55 2.43  54 2.43
 139  0.133  0.667  0.268-  23 2.43  64 2.43  26 2.43
 140  0.333  0.267  0.608-  41 2.43  30 2.43  44 2.43
 141  0.333  0.467  0.268-  28 2.43  36 2.43  42 2.43
 142  0.333  0.467  0.170-  28 2.43  36 2.43  42 2.43
 143  0.533  0.867  0.268-  49 2.43  50 2.43  25 2.43
 144  0.533  0.667  0.608-  47 2.43  27 2.43  22 2.43
 145  0.533  0.667  0.707-  27 2.43  47 2.43  22 2.43
 146  0.533  0.667  0.170-  36 2.43  25 2.43  35 2.43
 147  0.533  0.667  0.268-  25 2.43  36 2.43  35 2.43
 148  0.533  0.467  0.608-  22 2.43  44 2.43  38 2.43
 149  0.533  0.467  0.707-  22 2.43  44 2.43  38 2.43
 150  0.533  0.467  0.170-  35 2.43  42 2.43  40 2.43
 151  0.533  0.467  0.268-  35 2.43  42 2.43  40 2.43
 152  0.533  0.267  0.608-  41 2.43  38 2.43  43 2.43
 153  0.533  0.267  0.707-  38 2.43  41 2.43  43 2.43
 154  0.533  0.267  0.170-  39 2.43  40 2.43  45 2.43
 155  0.533  0.267  0.268-  39 2.43  40 2.43  45 2.43
 156  0.533  0.067  0.608-  37 2.43  43 2.43  48 2.43
 157  0.933  0.867  0.707-  57 2.43  69 2.43  56 2.43
 158  0.533  0.067  0.170-  45 2.43  51 2.43  50 2.43
 159  0.533  0.067  0.268-  45 2.43  51 2.43  50 2.43
 160  0.333  0.867  0.608-  33 2.43  37 2.43  46 2.43
 161  0.333  0.867  0.707-  33 2.43  37 2.43  46 2.43
 162  0.333  0.867  0.170-  23 2.43  49 2.43  51 2.43
 163  0.333  0.867  0.268-  23 2.43  51 2.43  49 2.43
 164  0.333  0.667  0.608-  47 2.43  24 2.43  46 2.43
 165  0.333  0.667  0.707-  47 2.43  46 2.43  24 2.43
 166  0.333  0.667  0.170-  36 2.43  26 2.43  49 2.43
 167  0.333  0.667  0.268-  36 2.43  26 2.43  49 2.43
 168  0.333  0.467  0.608-  34 2.43  44 2.43  47 2.43
 169  0.333  0.467  0.707-  34 2.43  47 2.43  44 2.43
 170  0.533  0.867  0.707-  46 2.43  48 2.43  27 2.43
 171  0.933  0.867  0.608-  57 2.43  69 2.43  56 2.43
 
  LATTYP: Found a hexagonal cell.
 ALAT       =    15.9000000000
 C/A-ratio  =     2.0364779874
  
  Lattice vectors:
  
 A1 = (  15.9000000000,   0.0000000000,   0.0000000000)
 A2 = (  -7.9500000000,  13.7698039202,   0.0000000000)
 A3 = (   0.0000000000,   0.0000000000,  32.3800000000)


Analysis of symmetry for initial positions (statically):
=====================================================================
 Subroutine PRICEL returns:
 Original cell was already a primitive cell.
 

 Routine SETGRP: Setting up the symmetry group for a 
 hexagonal supercell.


 Subroutine GETGRP returns: Found  1 space group operations
 (whereof  1 operations were pure point group operations)
 out of a pool of 24 trial point group operations.


The static configuration has the point symmetry C_1 .


Analysis of symmetry for dynamics (positions and initial velocities):
=====================================================================
 Subroutine PRICEL returns:
 Original cell was already a primitive cell.
 

 Routine SETGRP: Setting up the symmetry group for a 
 hexagonal supercell.


 Subroutine GETGRP returns: Found  1 space group operations
 (whereof  1 operations were pure point group operations)
 out of a pool of 24 trial point group operations.


The dynamic configuration has the point symmetry C_1 .


Analysis of constrained symmetry for selective dynamics:
=====================================================================
 Subroutine PRICEL returns:
 Original cell was already a primitive cell.
 

 Routine SETGRP: Setting up the symmetry group for a 
 hexagonal supercell.


 Subroutine GETGRP returns: Found  1 space group operations
 (whereof  1 operations were pure point group operations)
 out of a pool of 24 trial point group operations.


The constrained configuration has the point symmetry C_1 .


 Subroutine INISYM returns: Found  1 space group operations
 (whereof  1 operations are pure point group operations),
 and found     1 'primitive' translations

 
 
 KPOINTS: Gamma-point only                        
  k-points in reciprocal lattice
Space group operators:
 irot       det(A)        alpha          n_x          n_y          n_z        tau_x        tau_y        tau_z
    1     1.000000     0.000000     1.000000     0.000000     0.000000     0.000000     0.000000     0.000000


--------------------------------------------------------------------------------------------------------




 Dimension of arrays:
   k-points           NKPTS =      1   k-points in BZ     NKDIM =      1   number of bands    NBANDS=    585
   number of dos      NEDOS =    301   number of ions     NIONS =    171
   non local maximal  LDIM  =      6   non local SUM 2l+1 LMDIM =     18
   total plane-waves  NPLWV = ******
   max r-space proj   IRMAX =   6718   max aug-charges    IRDMAX=  23014
   dimension x,y,z NGX =   108 NGY =  108 NGZ =  216
   dimension x,y,z NGXF=   216 NGYF=  216 NGZF=  432
   support grid    NGXF=   216 NGYF=  216 NGZF=  432
   ions per type =              10   1  10  50 100
   NGX,Y,Z   is equivalent  to a cutoff of  11.29, 11.29, 11.09 a.u.
   NGXF,Y,Z  is equivalent  to a cutoff of  22.58, 22.58, 22.18 a.u.

 SYSTEM =  basalPlane                              
 POSCAR =   C Cr  H Mo  S                          

 Startparameter for this run:
   NWRITE =      2    write-flag & timer
   PREC   = accura    normal or accurate (medium, high low for compatibility)
   ISTART =      0    job   : 0-new  1-cont  2-samecut
   ICHARG =      2    charge: 1-file 2-atom 10-const
   ISPIN  =      1    spin polarized calculation?
   LNONCOLLINEAR =      F non collinear calculations
   LSORBIT =      F    spin-orbit coupling
   INIWAV =      1    electr: 0-lowe 1-rand  2-diag
   LASPH  =      F    aspherical Exc in radial PAW
   METAGGA=      F    non-selfconsistent MetaGGA calc.

 Electronic Relaxation 1
   ENCUT  =  400.0 eV  29.40 Ry    5.42 a.u.  25.93 25.93 52.80*2*pi/ulx,y,z
   ENINI  =  400.0     initial cutoff
   ENAUG  =  645.0 eV  augmentation charge cutoff
   NELM   =    200;   NELMIN=  2; NELMDL= -5     # of ELM steps 
   EDIFF  = 0.1E-03   stopping-criterion for ELM
   LREAL  =      T    real-space projection
   NLSPLINE    = F    spline interpolate recip. space projectors
   LCOMPAT=      F    compatible to vasp.4.4
   GGA_COMPAT  = T    GGA compatible to vasp.4.4-vasp.4.6
   LMAXPAW     = -100 max onsite density
   LMAXMIX     =    2 max onsite mixed and CHGCAR
   VOSKOWN=      0    Vosko Wilk Nusair interpolation
   ROPT   =   -0.00025  -0.00025  -0.00025  -0.00025
   ROPT   =   -0.00025
 Ionic relaxation
   EDIFFG = -.2E-01   stopping-criterion for IOM
   NSW    =  10000    number of steps for IOM
   NBLOCK =      1;   KBLOCK =  10000    inner block; outer block 
   IBRION =      2    ionic relax: 0-MD 1-quasi-New 2-CG
   NFREE  =      1    steps in history (QN), initial steepest desc. (CG)
   ISIF   =      2    stress and relaxation
   IWAVPR =     11    prediction:  0-non 1-charg 2-wave 3-comb
   ISYM   =      2    0-nonsym 1-usesym 2-fastsym
   LCORR  =      T    Harris-Foulkes like correction to forces

   POTIM  = 0.5000    time-step for ionic-motion
   TEIN   =    0.0    initial temperature
   TEBEG  =    0.0;   TEEND  =   0.0 temperature during run
   SMASS  =  -3.00    Nose mass-parameter (am)
   estimated Nose-frequenzy (Omega)   =  0.10E-29 period in steps =****** mass=  -0.578E-26a.u.
   SCALEE = 1.0000    scale energy and forces
   NPACO  =    256;   APACO  = 16.0  distance and # of slots for P.C.
   PSTRESS=    0.0 pullay stress

  Mass of Ions in am
   POMASS =  12.01 52.00  1.00 95.94 32.07
  Ionic Valenz
   ZVAL   =   4.00  6.00  1.00  6.00  6.00
  Atomic Wigner-Seitz radii
   RWIGS  =  -1.00 -1.00 -1.00 -1.00 -1.00
  virtual crystal weights 
   VCA    =   1.00  1.00  1.00  1.00  1.00
   NELECT =     956.0000    total number of electrons
   NUPDOWN=      -1.0000    fix difference up-down

 DOS related values:
   EMIN   =  10.00;   EMAX   =-10.00  energy-range for DOS
   EFERMI =   0.00
   ISMEAR =     0;   SIGMA  =   0.10  broadening in eV -4-tet -1-fermi 0-gaus

 Electronic relaxation 2 (details)
   IALGO  =     38    algorithm
   LDIAG  =      T    sub-space diagonalisation (order eigenvalues)
   LSUBROT=      F    optimize rotation matrix (better conditioning)
   TURBO    =      0    0=normal 1=particle mesh
   IRESTART =      0    0=no restart 2=restart with 2 vectors
   NREBOOT  =      0    no. of reboots
   NMIN     =      0    reboot dimension
   EREF     =   0.00    reference energy to select bands
   IMIX   =      4    mixing-type and parameters
     AMIX     =   0.40;   BMIX     =  1.00
     AMIX_MAG =   1.60;   BMIX_MAG =  1.00
     AMIN     =   0.10
     WC   =   100.;   INIMIX=   1;  MIXPRE=   1;  MAXMIX= -45

 Intra band minimization:
   WEIMIN = 0.0010     energy-eigenvalue tresh-hold
   EBREAK =  0.43E-07  absolut break condition
   DEPER  =   0.30     relativ break condition  

   TIME   =   0.40     timestep for ELM

  volume/ion in A,a.u.               =      41.46       279.77
  Fermi-wavevector in a.u.,A,eV,Ry     =   0.839512  1.586448  9.589119  0.704780
  Thomas-Fermi vector in A             =   1.953743
 
 Write flags
   LWAVE        =      F    write WAVECAR
   LDOWNSAMPLE  =      F    k-point downsampling of WAVECAR
   LCHARG       =      F    write CHGCAR
   LVTOT        =      F    write LOCPOT, total local potential
   LVHAR        =      F    write LOCPOT, Hartree potential only
   LELF         =      F    write electronic localiz. function (ELF)
   LORBIT       =      0    0 simple, 1 ext, 2 COOP (PROOUT), +10 PAW based schemes


 Dipole corrections
   LMONO  =      F    monopole corrections only (constant potential shift)
   LDIPOL =      F    correct potential (dipole corrections)
   IDIPOL =      0    1-x, 2-y, 3-z, 4-all directions 
   EPSILON=  1.0000000 bulk dielectric constant

 Exchange correlation treatment:
   GGA     =    --    GGA type
   LEXCH   =     8    internal setting for exchange type
   VOSKOWN=      0    Vosko Wilk Nusair interpolation
   LHFCALC =     F    Hartree Fock is set to
   LHFONE  =     F    Hartree Fock one center treatment
   AEXX    =    0.0000 exact exchange contribution

 Linear response parameters
   LEPSILON=     F    determine dielectric tensor
   LRPA    =     F    only Hartree local field effects (RPA)
   LNABLA  =     F    use nabla operator in PAW spheres
   LVEL    =     F    velocity operator in full k-point grid
   LINTERFAST=   F  fast interpolation
   KINTER  =     0    interpolate to denser k-point grid
   CSHIFT  =0.1000    complex shift for real part using Kramers Kronig
   OMEGAMAX=  -1.0    maximum frequency
   DEG_THRESHOLD= 0.2000000E-02 threshold for treating states as degnerate
   RTIME   =   -0.100 relaxation time in fs
  (WPLASMAI=    0.000 imaginary part of plasma frequency in eV, 0.658/RTIME)
   DFIELD  = 0.0000000 0.0000000 0.0000000 field for delta impulse in time
 
 Orbital magnetization related:
   ORBITALMAG=     F  switch on orbital magnetization
   LCHIMAG   =     F  perturbation theory with respect to B field
   DQ        =  0.001000  dq finite difference perturbation B field
   LLRAUG    =     F  two centre corrections for induced B field



--------------------------------------------------------------------------------------------------------


 conjugate gradient relaxation of ions
   using selective dynamics as specified on POSCAR
   WARNING: If single coordinates had been selected the selection of coordinates
            is made according to the corresponding   d i r e c t   coordinates!
            Don't support selection of single cartesian coordinates -- sorry ...
  !
 charge density and potential will be updated during run
 non-spin polarized calculation
 Variant of blocked Davidson
 Davidson routine will perform the subspace rotation
 perform sub-space diagonalisation
    after iterative eigenvector-optimisation
 modified Broyden-mixing scheme, WC =      100.0
 initial mixing is a Kerker type mixing with AMIX =  0.4000 and BMIX =      1.0000
 Hartree-type preconditioning will be used
 using additional bands          107
 real space projection scheme for non local part
 use partial core corrections
 calculate Harris-corrections to forces 
   (improved forces if not selfconsistent)
 use gradient corrections 
 use of overlap-Matrix (Vanderbilt PP)
 Gauss-broadening in eV      SIGMA  =   0.10


--------------------------------------------------------------------------------------------------------


  energy-cutoff  :      400.00
  volume of cell :     7089.27
      direct lattice vectors                 reciprocal lattice vectors
    15.900000000  0.000000000  0.000000000     0.062893082  0.036311338  0.000000000
    -7.950000000 13.769803920  0.000000000     0.000000000  0.072622675  0.000000000
     0.000000000  0.000000000 32.380000000     0.000000000  0.000000000  0.030883261

  length of vectors
    15.900000000 15.900000000 32.380000000     0.072622675  0.072622675  0.030883261


 
 k-points in units of 2pi/SCALE and weight: Gamma-point only                        
   0.00000000  0.00000000  0.00000000       1.000
 
 k-points in reciprocal lattice and weights: Gamma-point only                        
   0.00000000  0.00000000  0.00000000       1.000
 
 position of ions in fractional coordinates (direct lattice) 
   0.52003121  0.37396380  0.48532528
   0.44363843  0.38362772  0.50326952
   0.58932943  0.46527801  0.46802197
   0.55582458  0.53304381  0.47541048
   0.46473572  0.48164297  0.49735635
   0.33252696  0.31675404  0.40413038
   0.40684049  0.48182840  0.38947172
   0.32568770  0.40314725  0.41027673
   0.46248226  0.44443262  0.37068421
   0.41751787  0.34342146  0.37964208
   0.45287134  0.42148434  0.43806987
   0.42074045  0.51207423  0.50807236
   0.26823283  0.40747074  0.42661450
   0.28146930  0.24414001  0.41517184
   0.42380718  0.55708196  0.38870502
   0.53072656  0.48703169  0.35424384
   0.37864620  0.32558746  0.51766025
   0.52260724  0.30697148  0.48334929
   0.65542109  0.48048944  0.45184509
   0.59379136  0.60958548  0.46715954
   0.44465537  0.29552448  0.37041305
   0.60000000  0.60000000  0.65735022
   0.20000000  0.80000000  0.21911674
   0.20000000  0.60000000  0.65735022
   0.60000000  0.80000000  0.21911674
   0.20000000  0.60000000  0.21911674
   0.60000000  0.80000000  0.65735022
   0.20000000  0.40000000  0.21911674
   0.80000000  0.00000000  0.21911674
   0.20000000  0.20000000  0.65735022
   0.80000000  0.00000000  0.65735022
   0.20000000  0.20000000  0.21911674
   0.20000000  0.80000000  0.65735022
   0.20000000  0.40000000  0.65735022
   0.60000000  0.60000000  0.21911674
   0.40000000  0.60000000  0.21911674
   0.40000000  0.00000000  0.65735022
   0.60000000  0.40000000  0.65735022
   0.40000000  0.20000000  0.21911674
   0.60000000  0.40000000  0.21911674
   0.40000000  0.20000000  0.65735022
   0.40000000  0.40000000  0.21911674
   0.60000000  0.20000000  0.65735022
   0.40000000  0.40000000  0.65735022
   0.60000000  0.20000000  0.21911674
   0.40000000  0.80000000  0.65735022
   0.40000000  0.60000000  0.65735022
   0.60000000  0.00000000  0.65735022
   0.40000000  0.80000000  0.21911674
   0.60000000  0.00000000  0.21911674
   0.40000000  0.00000000  0.21911674
   0.80000000  0.20000000  0.21911674
   0.20000000  0.00000000  0.65735022
   0.20000000  0.00000000  0.21911674
   0.00000000  0.00000000  0.21911674
   0.80000000  0.80000000  0.65735022
   0.00000000  0.00000000  0.65735022
   0.80000000  0.80000000  0.21911674
   0.00000000  0.20000000  0.21911674
   0.00000000  0.20000000  0.65735022
   0.80000000  0.60000000  0.65735022
   0.00000000  0.40000000  0.21911674
   0.00000000  0.40000000  0.65735022
   0.00000000  0.60000000  0.21911674
   0.80000000  0.40000000  0.65735022
   0.00000000  0.60000000  0.65735022
   0.80000000  0.60000000  0.21911674
   0.80000000  0.40000000  0.21911674
   0.00000000  0.80000000  0.65735022
   0.00000000  0.80000000  0.21911674
   0.80000000  0.20000000  0.65735022
   0.93333333  0.06666667  0.16985794
   0.73333333  0.26666667  0.60809141
   0.73333333  0.26666667  0.70660902
   0.93333333  0.66666667  0.70660902
   0.93333333  0.66666667  0.60809141
   0.73333333  0.26666667  0.16985794
   0.73333333  0.26666667  0.26837554
   0.93333333  0.46666667  0.26837554
   0.73333333  0.06666667  0.60809141
   0.73333333  0.06666667  0.70660902
   0.93333333  0.06666667  0.70660902
   0.93333333  0.86666667  0.16985794
   0.73333333  0.06666667  0.16985794
   0.93333333  0.06666667  0.60809141
   0.73333333  0.06666667  0.26837554
   0.93333333  0.26666667  0.16985794
   0.93333333  0.26666667  0.70660902
   0.93333333  0.86666667  0.26837554
   0.73333333  0.46666667  0.26837554
   0.73333333  0.46666667  0.16985794
   0.73333333  0.86666667  0.16985794
   0.73333333  0.86666667  0.70660902
   0.73333333  0.86666667  0.26837554
   0.93333333  0.46666667  0.16985794
   0.73333333  0.86666667  0.60809141
   0.73333333  0.66666667  0.60809141
   0.73333333  0.66666667  0.70660902
   0.93333333  0.46666667  0.70660902
   0.73333333  0.66666667  0.16985794
   0.93333333  0.46666667  0.60809141
   0.73333333  0.66666667  0.26837554
   0.93333333  0.26666667  0.60809141
   0.93333333  0.26666667  0.26837554
   0.73333333  0.46666667  0.60809141
   0.73333333  0.46666667  0.70660902
   0.93333333  0.66666667  0.26837554
   0.93333333  0.06666667  0.26837554
   0.93333333  0.66666667  0.16985794
   0.53333333  0.86666667  0.60809141
   0.53333333  0.06666667  0.70660902
   0.53333333  0.86666667  0.16985794
   0.33333333  0.26666667  0.16985794
   0.33333333  0.26666667  0.26837554
   0.33333333  0.06666667  0.60809141
   0.33333333  0.06666667  0.70660902
   0.33333333  0.06666667  0.16985794
   0.33333333  0.06666667  0.26837554
   0.13333333  0.86666667  0.60809141
   0.13333333  0.86666667  0.70660902
   0.13333333  0.86666667  0.16985794
   0.13333333  0.86666667  0.26837554
   0.13333333  0.66666667  0.60809141
   0.13333333  0.66666667  0.70660902
   0.33333333  0.26666667  0.70660902
   0.13333333  0.66666667  0.16985794
   0.13333333  0.46666667  0.60809141
   0.13333333  0.46666667  0.70660902
   0.13333333  0.46666667  0.16985794
   0.13333333  0.46666667  0.26837554
   0.13333333  0.26666667  0.60809141
   0.13333333  0.26666667  0.70660902
   0.13333333  0.26666667  0.16985794
   0.13333333  0.26666667  0.26837554
   0.13333333  0.06666667  0.60809141
   0.13333333  0.06666667  0.70660902
   0.13333333  0.06666667  0.16985794
   0.13333333  0.06666667  0.26837554
   0.13333333  0.66666667  0.26837554
   0.33333333  0.26666667  0.60809141
   0.33333333  0.46666667  0.26837554
   0.33333333  0.46666667  0.16985794
   0.53333333  0.86666667  0.26837554
   0.53333333  0.66666667  0.60809141
   0.53333333  0.66666667  0.70660902
   0.53333333  0.66666667  0.16985794
   0.53333333  0.66666667  0.26837554
   0.53333333  0.46666667  0.60809141
   0.53333333  0.46666667  0.70660902
   0.53333333  0.46666667  0.16985794
   0.53333333  0.46666667  0.26837554
   0.53333333  0.26666667  0.60809141
   0.53333333  0.26666667  0.70660902
   0.53333333  0.26666667  0.16985794
   0.53333333  0.26666667  0.26837554
   0.53333333  0.06666667  0.60809141
   0.93333333  0.86666667  0.70660902
   0.53333333  0.06666667  0.16985794
   0.53333333  0.06666667  0.26837554
   0.33333333  0.86666667  0.60809141
   0.33333333  0.86666667  0.70660902
   0.33333333  0.86666667  0.16985794
   0.33333333  0.86666667  0.26837554
   0.33333333  0.66666667  0.60809141
   0.33333333  0.66666667  0.70660902
   0.33333333  0.66666667  0.16985794
   0.33333333  0.66666667  0.26837554
   0.33333333  0.46666667  0.60809141
   0.33333333  0.46666667  0.70660902
   0.53333333  0.86666667  0.70660902
   0.93333333  0.86666667  0.60809141
 
 position of ions in cartesian coordinates  (Angst):
   5.29548402  5.14940815 15.71483241
   4.00401066  5.28247843 16.29586708
   5.67137778  6.40678701 15.15455140
   4.59991245  7.33990880 15.39379142
   3.56023636  6.63212919 16.10439864
   2.76898400  4.36164105 13.08574175
   2.63822812  6.63468252 12.61109422
   1.97341373  5.55125865 13.28476050
   3.82022870  6.11974997 12.00275477
   3.90833346  4.72884617 12.29281059
   3.84985375  5.80375667 14.18470235
   2.61878311  7.05116170 16.45138297
   1.02550956  5.61079218 13.81377746
   2.53444873  3.36176008 13.44326411
   2.30973254  7.67090940 12.58626855
   4.56665041  6.70633084 11.47041543
   3.43205424  4.48327554 16.76183877
   5.86903184  4.22693710 15.65085007
   6.60130429  6.61624537 14.63074386
   4.59507811  8.39387253 15.12662595
   4.72060081  4.06931414 11.99397456
   4.77000000  8.26188235 21.28500000
  -3.18000000 11.01584314  7.09500000
  -1.59000000  8.26188235 21.28500000
   3.18000000 11.01584314  7.09500000
  -1.59000000  8.26188235  7.09500000
   3.18000000 11.01584314 21.28500000
   0.00000000  5.50792157  7.09500000
  12.72000000  0.00000000  7.09500000
   1.59000000  2.75396078 21.28500000
  12.72000000  0.00000000 21.28500000
   1.59000000  2.75396078  7.09500000
  -3.18000000 11.01584314 21.28500000
   0.00000000  5.50792157 21.28500000
   4.77000000  8.26188235  7.09500000
   1.59000000  8.26188235  7.09500000
   6.36000000  0.00000000 21.28500000
   6.36000000  5.50792157 21.28500000
   4.77000000  2.75396078  7.09500000
   6.36000000  5.50792157  7.09500000
   4.77000000  2.75396078 21.28500000
   3.18000000  5.50792157  7.09500000
   7.95000000  2.75396078 21.28500000
   3.18000000  5.50792157 21.28500000
   7.95000000  2.75396078  7.09500000
  -0.00000000 11.01584314 21.28500000
   1.59000000  8.26188235 21.28500000
   9.54000000  0.00000000 21.28500000
  -0.00000000 11.01584314  7.09500000
   9.54000000  0.00000000  7.09500000
   6.36000000  0.00000000  7.09500000
  11.13000000  2.75396078  7.09500000
   3.18000000  0.00000000 21.28500000
   3.18000000  0.00000000  7.09500000
   0.00000000  0.00000000  7.09500000
   6.36000000 11.01584314 21.28500000
   0.00000000  0.00000000 21.28500000
   6.36000000 11.01584314  7.09500000
  -1.59000000  2.75396078  7.09500000
  -1.59000000  2.75396078 21.28500000
   7.95000000  8.26188235 21.28500000
  -3.18000000  5.50792157  7.09500000
  -3.18000000  5.50792157 21.28500000
  -4.77000000  8.26188235  7.09500000
   9.54000000  5.50792157 21.28500000
  -4.77000000  8.26188235 21.28500000
   7.95000000  8.26188235  7.09500000
   9.54000000  5.50792157  7.09500000
  -6.36000000 11.01584314 21.28500000
  -6.36000000 11.01584314  7.09500000
  11.13000000  2.75396078 21.28500000
  14.31000000  0.91798693  5.50000000
   9.54000000  3.67194771 19.69000000
   9.54000000  3.67194771 22.88000000
   9.54000000  9.17986928 22.88000000
   9.54000000  9.17986928 19.69000000
   9.54000000  3.67194771  5.50000000
   9.54000000  3.67194771  8.69000000
  11.13000000  6.42590850  8.69000000
  11.13000000  0.91798693 19.69000000
  11.13000000  0.91798693 22.88000000
  14.31000000  0.91798693 22.88000000
   7.95000000 11.93383006  5.50000000
  11.13000000  0.91798693  5.50000000
  14.31000000  0.91798693 19.69000000
  11.13000000  0.91798693  8.69000000
  12.72000000  3.67194771  5.50000000
  12.72000000  3.67194771 22.88000000
   7.95000000 11.93383006  8.69000000
   7.95000000  6.42590850  8.69000000
   7.95000000  6.42590850  5.50000000
   4.77000000 11.93383006  5.50000000
   4.77000000 11.93383006 22.88000000
   4.77000000 11.93383006  8.69000000
  11.13000000  6.42590850  5.50000000
   4.77000000 11.93383006 19.69000000
   6.36000000  9.17986928 19.69000000
   6.36000000  9.17986928 22.88000000
  11.13000000  6.42590850 22.88000000
   6.36000000  9.17986928  5.50000000
  11.13000000  6.42590850 19.69000000
   6.36000000  9.17986928  8.69000000
  12.72000000  3.67194771 19.69000000
  12.72000000  3.67194771  8.69000000
   7.95000000  6.42590850 19.69000000
   7.95000000  6.42590850 22.88000000
   9.54000000  9.17986928  8.69000000
  14.31000000  0.91798693  8.69000000
   9.54000000  9.17986928  5.50000000
   1.59000000 11.93383006 19.69000000
   7.95000000  0.91798693 22.88000000
   1.59000000 11.93383006  5.50000000
   3.18000000  3.67194771  5.50000000
   3.18000000  3.67194771  8.69000000
   4.77000000  0.91798693 19.69000000
   4.77000000  0.91798693 22.88000000
   4.77000000  0.91798693  5.50000000
   4.77000000  0.91798693  8.69000000
  -4.77000000 11.93383006 19.69000000
  -4.77000000 11.93383006 22.88000000
  -4.77000000 11.93383006  5.50000000
  -4.77000000 11.93383006  8.69000000
  -3.18000000  9.17986928 19.69000000
  -3.18000000  9.17986928 22.88000000
   3.18000000  3.67194771 22.88000000
  -3.18000000  9.17986928  5.50000000
  -1.59000000  6.42590850 19.69000000
  -1.59000000  6.42590850 22.88000000
  -1.59000000  6.42590850  5.50000000
  -1.59000000  6.42590850  8.69000000
  -0.00000000  3.67194771 19.69000000
  -0.00000000  3.67194771 22.88000000
  -0.00000000  3.67194771  5.50000000
  -0.00000000  3.67194771  8.69000000
   1.59000000  0.91798693 19.69000000
   1.59000000  0.91798693 22.88000000
   1.59000000  0.91798693  5.50000000
   1.59000000  0.91798693  8.69000000
  -3.18000000  9.17986928  8.69000000
   3.18000000  3.67194771 19.69000000
   1.59000000  6.42590850  8.69000000
   1.59000000  6.42590850  5.50000000
   1.59000000 11.93383006  8.69000000
   3.18000000  9.17986928 19.69000000
   3.18000000  9.17986928 22.88000000
   3.18000000  9.17986928  5.50000000
   3.18000000  9.17986928  8.69000000
   4.77000000  6.42590850 19.69000000
   4.77000000  6.42590850 22.88000000
   4.77000000  6.42590850  5.50000000
   4.77000000  6.42590850  8.69000000
   6.36000000  3.67194771 19.69000000
   6.36000000  3.67194771 22.88000000
   6.36000000  3.67194771  5.50000000
   6.36000000  3.67194771  8.69000000
   7.95000000  0.91798693 19.69000000
   7.95000000 11.93383006 22.88000000
   7.95000000  0.91798693  5.50000000
   7.95000000  0.91798693  8.69000000
  -1.59000000 11.93383006 19.69000000
  -1.59000000 11.93383006 22.88000000
  -1.59000000 11.93383006  5.50000000
  -1.59000000 11.93383006  8.69000000
   0.00000000  9.17986928 19.69000000
   0.00000000  9.17986928 22.88000000
   0.00000000  9.17986928  5.50000000
   0.00000000  9.17986928  8.69000000
   1.59000000  6.42590850 19.69000000
   1.59000000  6.42590850 22.88000000
   1.59000000 11.93383006 22.88000000
   7.95000000 11.93383006 19.69000000
 


--------------------------------------------------------------------------------------------------------


 use parallel FFT for orbitals z direction half grid
 k-point  1 :   0.0000 0.0000 0.0000  plane waves:   64319

 maximum and minimum number of plane-waves per node :     16081    16079

 maximum number of plane-waves:     64319
 maximum index in each direction: 
   IXMAX=   25   IYMAX=   25   IZMAX=   52
   IXMIN=  -25   IYMIN=  -25   IZMIN=    0


 real space projection operators:
  total allocation   :      76640.26 KBytes
  max/ min on nodes  :      19176.73      19153.73


 parallel 3D FFT for wavefunctions:
    minimum data exchange during FFTs selected (reduces bandwidth)
 parallel 3D FFT for charge:
    minimum data exchange during FFTs selected (reduces bandwidth)


 total amount of memory used by VASP MPI-rank0   156589. kBytes
=======================================================================

   base      :      30000. kBytes
   nonlr-proj:      23536. kBytes
   fftplans  :      28265. kBytes
   grid      :      62703. kBytes
   one-center:        334. kBytes
   wavefun   :      11751. kBytes
 
     INWAV:  cpu time    0.0000: real time    0.0000
 Broyden mixing: mesh for mixing (old mesh)
   NGX = 51   NGY = 51   NGZ =105
  (NGX  =216   NGY  =216   NGZ  =432)
  gives a total of 273105 points

 initial charge density was supplied:
 charge density of overlapping atoms calculated
 number of electron     956.0000000 magnetization 
 keeping initial charge density in first step


--------------------------------------------------------------------------------------------------------


 Maximum index for non-local projection operator         1630
 Maximum index for augmentation-charges         1579 (set IRDMAX)


--------------------------------------------------------------------------------------------------------


 First call to EWALD:  gamma=   0.092
 Maximum number of real-space cells 4x 4x 2
 Maximum number of reciprocal cells 2x 2x 4

    FEWALD:  cpu time    0.0074: real time    0.0074


--------------------------------------- Iteration      1(   1)  ---------------------------------------


    POTLOK:  cpu time    0.3842: real time    0.6927
    SETDIJ:  cpu time    0.0175: real time    0.0176
     EDDAV:  cpu time   11.2576: real time   11.4025
       DOS:  cpu time    0.0005: real time    0.0006
    --------------------------------------------
      LOOP:  cpu time   11.6598: real time   12.1133

 eigenvalue-minimisations  :  1209
 total energy-change (2. order) : 0.7650316E+04  (-0.3640807E+05)
 number of electron     956.0000000 magnetization 
 augmentation part      956.0000000 magnetization 

 Free energy of the ion-electron system (eV)
  ---------------------------------------------------
  alpha Z        PSCENC =      1150.89500911
  Ewald energy   TEWEN  =     87713.57664741
  -Hartree energ DENC   =   -125686.87563816
  -exchange      EXHF   =         0.00000000
  -V(xc)+E(xc)   XCENC  =     -1684.36829652
  PAW double counting   =     36411.78182824   -32520.45026120
  entropy T*S    EENTRO =        -0.34606937
  eigenvalues    EBANDS =      1835.56241912
  atomic energy  EATOM  =     40430.53995508
  Solvation  Ediel_sol  =         0.00000000
  ---------------------------------------------------
  free energy    TOTEN  =      7650.31559371 eV

  energy without entropy =     7650.66166308  energy(sigma->0) =     7650.48862839


--------------------------------------------------------------------------------------------------------




--------------------------------------- Iteration      1(   2)  ---------------------------------------


     EDDAV:  cpu time   13.3917: real time   13.5898
       DOS:  cpu time    0.0006: real time    0.0006
    --------------------------------------------
      LOOP:  cpu time   13.3923: real time   13.5904

 eigenvalue-minimisations  :  1586
 total energy-change (2. order) :-0.7904736E+04  (-0.7664226E+04)
 number of electron     956.0000000 magnetization 
 augmentation part      956.0000000 magnetization 

 Free energy of the ion-electron system (eV)
  ---------------------------------------------------
  alpha Z        PSCENC =      1150.89500911
  Ewald energy   TEWEN  =     87713.57664741
  -Hartree energ DENC   =   -125686.87563816
  -exchange      EXHF   =         0.00000000
  -V(xc)+E(xc)   XCENC  =     -1684.36829652
  PAW double counting   =     36411.78182824   -32520.45026120
  entropy T*S    EENTRO =        -0.08857167
  eigenvalues    EBANDS =     -6069.43117952
  atomic energy  EATOM  =     40430.53995508
  Solvation  Ediel_sol  =         0.00000000
  ---------------------------------------------------
  free energy    TOTEN  =      -254.42050723 eV

  energy without entropy =     -254.33193556  energy(sigma->0) =     -254.37622140


--------------------------------------------------------------------------------------------------------




--------------------------------------- Iteration      1(   3)  ---------------------------------------


     EDDAV:  cpu time   12.3535: real time   13.3861
       DOS:  cpu time    0.0004: real time    0.0004
    --------------------------------------------
      LOOP:  cpu time   12.3540: real time   13.3865

 eigenvalue-minimisations  :  1365
 total energy-change (2. order) :-0.1007768E+04  (-0.9935150E+03)
 number of electron     956.0000000 magnetization 
 augmentation part      956.0000000 magnetization 

 Free energy of the ion-electron system (eV)
  ---------------------------------------------------
  alpha Z        PSCENC =      1150.89500911
  Ewald energy   TEWEN  =     87713.57664741
  -Hartree energ DENC   =   -125686.87563816
  -exchange      EXHF   =         0.00000000
  -V(xc)+E(xc)   XCENC  =     -1684.36829652
  PAW double counting   =     36411.78182824   -32520.45026120
  entropy T*S    EENTRO =        -0.00000013
  eigenvalues    EBANDS =     -7077.28764432
  atomic energy  EATOM  =     40430.53995508
  Solvation  Ediel_sol  =         0.00000000
  ---------------------------------------------------
  free energy    TOTEN  =     -1262.18840049 eV

  energy without entropy =    -1262.18840036  energy(sigma->0) =    -1262.18840042


--------------------------------------------------------------------------------------------------------




--------------------------------------- Iteration      1(   4)  ---------------------------------------


     EDDAV:  cpu time   15.9524: real time   17.0471
       DOS:  cpu time    0.0003: real time    0.0003
    --------------------------------------------
      LOOP:  cpu time   15.9528: real time   17.0475

 eigenvalue-minimisations  :  1768
 total energy-change (2. order) :-0.5874824E+02  (-0.5840670E+02)
 number of electron     956.0000000 magnetization 
 augmentation part      956.0000000 magnetization 

 Free energy of the ion-electron system (eV)
  ---------------------------------------------------
  alpha Z        PSCENC =      1150.89500911
  Ewald energy   TEWEN  =     87713.57664741
  -Hartree energ DENC   =   -125686.87563816
  -exchange      EXHF   =         0.00000000
  -V(xc)+E(xc)   XCENC  =     -1684.36829652
  PAW double counting   =     36411.78182824   -32520.45026120
  entropy T*S    EENTRO =        -0.00000000
  eigenvalues    EBANDS =     -7136.03588102
  atomic energy  EATOM  =     40430.53995508
  Solvation  Ediel_sol  =         0.00000000
  ---------------------------------------------------
  free energy    TOTEN  =     -1320.93663706 eV

  energy without entropy =    -1320.93663706  energy(sigma->0) =    -1320.93663706


--------------------------------------------------------------------------------------------------------




--------------------------------------- Iteration      1(   5)  ---------------------------------------


     EDDAV:  cpu time   14.3705: real time   14.9381
       DOS:  cpu time    0.0003: real time    0.0003
    CHARGE:  cpu time    1.0287: real time    1.0358
    MIXING:  cpu time    0.0096: real time    0.0195
    --------------------------------------------
      LOOP:  cpu time   15.4091: real time   15.9938

 eigenvalue-minimisations  :  1742
 total energy-change (2. order) :-0.2124611E+01  (-0.2112092E+01)
 number of electron     955.9999990 magnetization 
 augmentation part      -44.8754890 magnetization 

 Broyden mixing:
  rms(total) = 0.16947E+02    rms(broyden)= 0.16947E+02
  rms(prec ) = 0.17050E+02
  weight for this iteration     100.00

 Free energy of the ion-electron system (eV)
  ---------------------------------------------------
  alpha Z        PSCENC =      1150.89500911
  Ewald energy   TEWEN  =     87713.57664741
  -Hartree energ DENC   =   -125686.87563816
  -exchange      EXHF   =         0.00000000
  -V(xc)+E(xc)   XCENC  =     -1684.36829652
  PAW double counting   =     36411.78182824   -32520.45026120
  entropy T*S    EENTRO =        -0.00000000
  eigenvalues    EBANDS =     -7138.16049193
  atomic energy  EATOM  =     40430.53995508
  Solvation  Ediel_sol  =         0.00000000
  ---------------------------------------------------
  free energy    TOTEN  =     -1323.06124797 eV

  energy without entropy =    -1323.06124797  energy(sigma->0) =    -1323.06124797


--------------------------------------------------------------------------------------------------------




--------------------------------------- Iteration      1(   6)  ---------------------------------------


    POTLOK:  cpu time    0.3785: real time    0.4115
    SETDIJ:  cpu time    0.0217: real time    0.0218
     EDDAV:  cpu time   13.5972: real time   13.7041
       DOS:  cpu time    0.0006: real time    0.0006
    CHARGE:  cpu time    1.0317: real time    1.0389
    MIXING:  cpu time    0.0102: real time    0.0343
    --------------------------------------------
      LOOP:  cpu time   15.0399: real time   15.2113

 eigenvalue-minimisations  :  1612
 total energy-change (2. order) : 0.4727186E+02  (-0.9355663E+02)
 number of electron     955.9999988 magnetization 
 augmentation part      -10.4517332 magnetization 

 Broyden mixing:
  rms(total) = 0.92843E+01    rms(broyden)= 0.92840E+01
  rms(prec ) = 0.94606E+01
  weight for this iteration     100.00

 eigenvalues of (default mixing * dielectric matrix)
  average eigenvalue GAMMA=   0.9511
  0.9511

 Free energy of the ion-electron system (eV)
  ---------------------------------------------------
  alpha Z        PSCENC =      1150.89500911
  Ewald energy   TEWEN  =     87713.57664741
  -Hartree energ DENC   =   -125701.97906187
  -exchange      EXHF   =         0.00000000
  -V(xc)+E(xc)   XCENC  =     -1635.01385647
  PAW double counting   =     51798.14286517   -47946.61514477
  entropy T*S    EENTRO =        -0.14665313
  eigenvalues    EBANDS =     -7085.18914695
  atomic energy  EATOM  =     40430.53995508
  Solvation  Ediel_sol  =         0.00000000
  ---------------------------------------------------
  free energy    TOTEN  =     -1275.78938642 eV

  energy without entropy =    -1275.64273329  energy(sigma->0) =    -1275.71605985


--------------------------------------------------------------------------------------------------------




--------------------------------------- Iteration      1(   7)  ---------------------------------------


    POTLOK:  cpu time    0.4156: real time    1.4844
    SETDIJ:  cpu time    0.0209: real time    0.0209
     EDDAV:  cpu time   14.6167: real time   14.7408
       DOS:  cpu time    0.0006: real time    0.0006
    CHARGE:  cpu time    1.1216: real time    1.1300
    MIXING:  cpu time    0.0100: real time    0.0101
    --------------------------------------------
      LOOP:  cpu time   16.1853: real time   17.3868

 eigenvalue-minimisations  :  1781
 total energy-change (2. order) :-0.2056290E+02  (-0.1181039E+03)
 number of electron     955.9999992 magnetization 
 augmentation part      -29.9456556 magnetization 

 Broyden mixing:
  rms(total) = 0.55022E+01    rms(broyden)= 0.55021E+01
  rms(prec ) = 0.56930E+01
  weight for this iteration     100.00

 eigenvalues of (default mixing * dielectric matrix)
  average eigenvalue GAMMA=   1.1133
  1.6905  0.5360

 Free energy of the ion-electron system (eV)
  ---------------------------------------------------
  alpha Z        PSCENC =      1150.89500911
  Ewald energy   TEWEN  =     87713.57664741
  -Hartree energ DENC   =   -126093.65375274
  -exchange      EXHF   =         0.00000000
  -V(xc)+E(xc)   XCENC  =     -1644.37154238
  PAW double counting   =     64523.11413772   -60703.78923290
  entropy T*S    EENTRO =        -0.34722391
  eigenvalues    EBANDS =     -6672.31628828
  atomic energy  EATOM  =     40430.53995508
  Solvation  Ediel_sol  =         0.00000000
  ---------------------------------------------------
  free energy    TOTEN  =     -1296.35229088 eV

  energy without entropy =    -1296.00506698  energy(sigma->0) =    -1296.17867893


--------------------------------------------------------------------------------------------------------




--------------------------------------- Iteration      1(   8)  ---------------------------------------


    POTLOK:  cpu time    0.3720: real time    0.3748
    SETDIJ:  cpu time    0.0215: real time    0.0216
     EDDAV:  cpu time   12.6438: real time   12.7511
       DOS:  cpu time    0.0006: real time    0.0006
    CHARGE:  cpu time    1.0898: real time    1.0979
    MIXING:  cpu time    0.0102: real time    0.0103
    --------------------------------------------
      LOOP:  cpu time   14.1379: real time   14.2563

 eigenvalue-minimisations  :  1482
 total energy-change (2. order) : 0.6331133E+02  (-0.6782981E+01)
 number of electron     955.9999992 magnetization 
 augmentation part      -30.0752177 magnetization 

 Broyden mixing:
  rms(total) = 0.33437E+01    rms(broyden)= 0.33437E+01
  rms(prec ) = 0.35234E+01
  weight for this iteration     100.00

 eigenvalues of (default mixing * dielectric matrix)
  average eigenvalue GAMMA=   1.1457
  2.0699  0.6836  0.6836

 Free energy of the ion-electron system (eV)
  ---------------------------------------------------
  alpha Z        PSCENC =      1150.89500911
  Ewald energy   TEWEN  =     87713.57664741
  -Hartree energ DENC   =   -126134.64320316
  -exchange      EXHF   =         0.00000000
  -V(xc)+E(xc)   XCENC  =     -1633.97634347
  PAW double counting   =     76748.97118190   -72938.62171952
  entropy T*S    EENTRO =        -0.32876444
  eigenvalues    EBANDS =     -6569.45372732
  atomic energy  EATOM  =     40430.53995508
  Solvation  Ediel_sol  =         0.00000000
  ---------------------------------------------------
  free energy    TOTEN  =     -1233.04096441 eV

  energy without entropy =    -1232.71219997  energy(sigma->0) =    -1232.87658219


--------------------------------------------------------------------------------------------------------




--------------------------------------- Iteration      1(   9)  ---------------------------------------


    POTLOK:  cpu time    0.7682: real time    3.0187
    SETDIJ:  cpu time    0.0211: real time    0.0212
     EDDAV:  cpu time   15.0331: real time   15.2316
       DOS:  cpu time    0.0003: real time    0.0003
    CHARGE:  cpu time    1.0248: real time    1.0320
    MIXING:  cpu time    0.0103: real time    0.0103
    --------------------------------------------
      LOOP:  cpu time   16.8578: real time   19.3141

 eigenvalue-minimisations  :  1833
 total energy-change (2. order) :-0.1173321E+02  (-0.1618121E+02)
 number of electron     955.9999990 magnetization 
 augmentation part      -20.8897687 magnetization 

 Broyden mixing:
  rms(total) = 0.63892E+01    rms(broyden)= 0.63891E+01
  rms(prec ) = 0.66782E+01
  weight for this iteration     100.00

 eigenvalues of (default mixing * dielectric matrix)
  average eigenvalue GAMMA=   0.8779
  2.0826  0.5641  0.4325  0.4325

 Free energy of the ion-electron system (eV)
  ---------------------------------------------------
  alpha Z        PSCENC =      1150.89500911
  Ewald energy   TEWEN  =     87713.57664741
  -Hartree energ DENC   =   -126176.44267231
  -exchange      EXHF   =         0.00000000
  -V(xc)+E(xc)   XCENC  =     -1625.28302104
  PAW double counting   =     81544.19680330   -77734.90610640
  entropy T*S    EENTRO =        -0.00000000
  eigenvalues    EBANDS =     -6547.35079103
  atomic energy  EATOM  =     40430.53995508
  Solvation  Ediel_sol  =         0.00000000
  ---------------------------------------------------
  free energy    TOTEN  =     -1244.77417588 eV

[...]
   -.875E+01 0.637E+01 0.705E+03   0.875E+01 -.637E+01 -.710E+03   -.338E-02 0.371E-02 0.510E+01   0.408E-04 0.331E-04 -.260E-03
   -.419E+02 0.298E+02 -.237E+03   0.419E+02 -.298E+02 0.241E+03   -.107E-01 0.297E-02 -.501E+01   -.770E-04 0.164E-04 -.167E-02
   -.140E+02 0.168E+02 0.283E+03   0.140E+02 -.168E+02 -.288E+03   -.228E-03 -.414E-02 0.507E+01   0.818E-04 -.209E-03 0.166E-02
   -.182E+01 -.240E+01 -.692E+03   0.182E+01 0.240E+01 0.696E+03   -.420E-03 0.252E-03 -.510E+01   0.433E-04 0.406E-03 0.755E-03
   -.420E+01 0.382E+01 0.693E+03   0.420E+01 -.382E+01 -.697E+03   0.580E-03 0.969E-03 0.510E+01   -.377E-04 -.856E-05 -.306E-03
   -.145E+02 0.139E+02 -.285E+03   0.145E+02 -.139E+02 0.289E+03   0.302E-03 -.711E-03 -.507E+01   -.835E-04 0.724E-04 -.183E-02
   0.360E+01 0.326E+01 0.291E+03   -.360E+01 -.326E+01 -.295E+03   0.492E-03 -.158E-03 0.507E+01   -.929E-05 0.202E-03 0.191E-02
   0.119E+01 0.110E+01 -.690E+03   -.119E+01 -.110E+01 0.695E+03   0.985E-03 0.257E-04 -.510E+01   -.109E-03 0.402E-05 0.536E-03
   0.106E+01 0.685E+00 0.691E+03   -.106E+01 -.686E+00 -.695E+03   -.401E-03 0.377E-03 0.510E+01   -.439E-04 0.117E-03 -.340E-03
   0.327E+01 0.211E+01 -.290E+03   -.327E+01 -.211E+01 0.295E+03   -.110E-02 -.869E-04 -.507E+01   -.864E-04 0.250E-03 -.196E-02
   0.278E+02 -.220E+02 0.271E+03   -.278E+02 0.220E+02 -.276E+03   -.191E-02 0.197E-02 0.505E+01   -.101E-02 0.340E-03 0.231E-02
   0.725E+01 -.562E+01 -.697E+03   -.725E+01 0.562E+01 0.701E+03   -.705E-03 0.731E-03 -.510E+01   -.674E-03 -.116E-03 0.807E-03
   0.696E+01 -.660E+01 0.698E+03   -.696E+01 0.660E+01 -.702E+03   -.612E-03 -.104E-02 0.510E+01   -.768E-04 0.135E-03 -.542E-03
   0.278E+02 -.266E+02 -.268E+03   -.278E+02 0.266E+02 0.272E+03   -.112E-02 -.981E-03 -.506E+01   -.283E-03 0.445E-03 -.232E-02
   0.505E+02 -.969E+01 0.212E+03   -.505E+02 0.969E+01 -.217E+03   0.894E-02 -.587E-03 0.503E+01   -.360E-02 0.164E-03 0.334E-02
   0.955E+01 -.194E+01 -.709E+03   -.955E+01 0.194E+01 0.714E+03   0.577E-02 0.452E-04 -.510E+01   -.179E-02 0.241E-03 0.106E-02
   0.173E+01 -.506E+01 -.693E+03   -.172E+01 0.506E+01 0.697E+03   -.416E-03 -.903E-04 -.510E+01   -.208E-03 0.242E-03 0.825E-03
   -.629E+01 -.833E+01 0.288E+03   0.628E+01 0.833E+01 -.292E+03   0.223E-02 0.253E-02 0.508E+01   0.359E-03 0.816E-03 0.186E-02
 -----------------------------------------------------------------------------------------------
   -.247E+01 0.143E+01 0.969E+00   0.534E-12 -.117E-12 -.421E-11   0.242E+01 -.141E+01 -.978E+00   0.423E-01 -.141E-01 0.180E-02
 
 
 POSITION                                       TOTAL-FORCE (eV/Angst)
 -----------------------------------------------------------------------------------
      5.29680      5.15116     15.71483         0.016789     -0.004430      0.054269
      4.00544      5.28268     16.29587        -0.001602     -0.016678      0.007409
      5.67204      6.40785     15.15455         0.007361      0.001014      0.028021
      4.60012      7.33976     15.39379        -0.004914      0.008803      0.023344
      3.56117      6.63170     16.10440        -0.008285      0.000727      0.018706
      2.76764      4.36233     13.08574        -0.007640     -0.015483     -0.011981
      2.63720      6.63431     12.61109        -0.008709      0.015740     -0.034903
      1.97231      5.55197     13.28476        -0.012642      0.000307     -0.010504
      3.81764      6.11920     12.00275         0.017242      0.009761      0.017971
      3.90609      4.72910     12.29281        -0.005953     -0.002656     -0.050685
      3.84861      5.80272     14.18470        -0.012438      0.012613      0.008089
      2.61869      7.04879     16.45138        -0.001477     -0.004705      0.015262
      1.02453      5.61148     13.81378        -0.001422      0.003196      0.007854
      2.53344      3.36252     13.44326        -0.007049      0.004127      0.005254
      2.31085      7.67157     12.58627         0.001561     -0.002535     -0.005371
      4.56415      6.70396     11.47042        -0.007582     -0.002134      0.032656
      3.43337      4.48306     16.76184         0.010477      0.002315      0.014518
      5.86986      4.22835     15.65085         0.006220      0.003814      0.003387
      6.60179      6.61811     14.63074        -0.005631      0.003924     -0.000942
      4.59396      8.39379     15.12663        -0.003564     -0.004014      0.000427
      4.71885      4.07021     11.99397        -0.002734     -0.002495     -0.012128
      4.77014      8.26132     21.28500         0.000310      0.002886      0.008526
     -3.18000     11.01584      7.09500        -0.002142      0.000242      0.002777
     -1.58990      8.26188     21.28500         0.000384      0.000074     -0.003116
      3.18000     11.01584      7.09500         0.003842      0.006459     -0.000124
     -1.59000      8.26188      7.09500        -0.000260     -0.000500      0.003311
      3.18004     11.01559     21.28500         0.000577     -0.000316     -0.001119
      0.00000      5.50792      7.09500         0.003580     -0.001206      0.001114
     12.72000      0.00000      7.09500        -0.000535     -0.000818      0.002836
      1.59001      2.75389     21.28500         0.000093      0.000355      0.006394
     12.71998     -0.00005     21.28500         0.000179     -0.001403     -0.001097
      1.59000      2.75396      7.09500         0.002515      0.003001     -0.001028
     -3.18000     11.01591     21.28500        -0.000627     -0.000208     -0.002243
      0.00032      5.50793     21.28500         0.001766      0.000205     -0.001027
      4.77000      8.26188      7.09500         0.002018     -0.012774     -0.006519
      1.59000      8.26188      7.09500         0.001109     -0.010276      0.003722
      6.35981     -0.00008     21.28500         0.001154      0.001191     -0.003400
      6.35932      5.50827     21.28500         0.004253     -0.001522      0.007583
      4.77000      2.75396      7.09500        -0.011188      0.005751      0.003885
      6.36000      5.50792      7.09500        -0.006616      0.009691     -0.007869
      4.76998      2.75408     21.28500        -0.000472      0.000435     -0.009654
      3.18000      5.50792      7.09500         0.004444      0.003321      0.029631
      7.94976      2.75419     21.28500        -0.000479     -0.000284      0.000316
      3.18135      5.50815     21.28500        -0.002676     -0.001278     -0.027449
      7.95000      2.75396      7.09500         0.006958     -0.002744     -0.001077
      0.00005     11.01592     21.28500         0.000654     -0.000872     -0.003660
      1.59046      8.26190     21.28500         0.000373     -0.002167     -0.005950
      9.54037     -0.00002     21.28500        -0.001703      0.000236     -0.003438
     -0.00000     11.01584      7.09500        -0.000038     -0.000476      0.001905
      9.54000      0.00000      7.09500        -0.000815     -0.000089      0.000427
      6.36000      0.00000      7.09500         0.002620     -0.000244     -0.000507
     11.13000      2.75396      7.09500         0.001906     -0.000190      0.004166
      3.17999      0.00011     21.28500         0.000087     -0.000355     -0.001065
      3.18000      0.00000      7.09500        -0.001074     -0.000886      0.003404
      0.00000      0.00000      7.09500        -0.000260     -0.001808     -0.006355
      6.35992     11.01545     21.28500         0.000170     -0.000205      0.000286
     -0.00012     -0.00010     21.28500         0.000036     -0.000664     -0.007390
      6.36000     11.01584      7.09500        -0.002911      0.004214      0.003205
     -1.59000      2.75396      7.09500        -0.000476      0.001126      0.000315
     -1.59022      2.75379     21.28500         0.001397      0.000651     -0.001165
      7.94982      8.26194     21.28500        -0.000919     -0.001072     -0.002834
     -3.18000      5.50792      7.09500        -0.001507      0.001512     -0.000559
     -3.17986      5.50756     21.28500        -0.001317      0.001660     -0.003179
     -4.77000      8.26188      7.09500        -0.000320     -0.000171      0.000604
      9.53947      5.50796     21.28500         0.000608      0.000821     -0.001439
     -4.77023      8.26225     21.28500         0.000163     -0.002190     -0.001995
      7.95000      8.26188      7.09500        -0.000541      0.000285      0.004938
      9.54000      5.50792      7.09500         0.002649     -0.003534      0.002119
     -6.36004     11.01579     21.28500        -0.000380      0.000246     -0.000672
     -6.36000     11.01584      7.09500         0.000963     -0.001640      0.003075
     11.13006      2.75382     21.28500        -0.001557      0.000687     -0.002696
     14.31000      0.91799      5.50000         0.000041     -0.000214      0.586910
      9.53965      3.67218     19.69000        -0.000027     -0.000324      0.586038
      9.53993      3.67190     22.88000        -0.001035      0.000635     -0.588837
      9.53990      9.17997     22.88000        -0.000317     -0.000363     -0.585770
      9.53960      9.17979     19.69000         0.000366      0.000052      0.585259
      9.54000      3.67195      5.50000        -0.000456      0.000315      0.588136
      9.54000      3.67195      8.69000         0.001271     -0.000569     -0.587510
     11.13000      6.42591      8.69000         0.000218     -0.000276     -0.586596
     11.13012      0.91791     19.69000        -0.000299     -0.000004      0.585757
     11.13007      0.91790     22.88000        -0.000070      0.000144     -0.585529
     14.30994      0.91797     22.88000         0.000098     -0.000658     -0.587331
      7.95000     11.93383      5.50000        -0.000198      0.000130      0.586801
     11.13000      0.91799      5.50000         0.000180     -0.000119      0.586945
     14.30985      0.91786     19.69000         0.000573     -0.000317      0.587035
     11.13000      0.91799      8.69000         0.001157      0.000478     -0.586993
     12.72000      3.67195      5.50000         0.000100     -0.000055      0.586678
     12.72002      3.67178     22.88000        -0.000491      0.000235     -0.585887
      7.95000     11.93383      8.69000         0.000648      0.000460     -0.586734
      7.95000      6.42591      8.69000        -0.000002      0.002348     -0.580836
      7.95000      6.42591      5.50000        -0.001188     -0.001365      0.587314
      4.77000     11.93383      5.50000         0.000548     -0.000074      0.588094
      4.76994     11.93376     22.88000         0.000413     -0.001072     -0.588155
      4.77000     11.93383      8.69000         0.000384      0.001247     -0.587578
     11.13000      6.42591      5.50000        -0.000466     -0.000181      0.586587
      4.77005     11.93342     19.69000        -0.000093     -0.000097      0.586163
      6.35936      9.17873     19.69000         0.002751      0.004361      0.575672
      6.35993      9.17974     22.88000         0.000209     -0.000277     -0.585101
     11.12997      6.42593     22.88000        -0.001079     -0.000341     -0.590422
      6.36000      9.17987      5.50000        -0.001849     -0.000616      0.587042
     11.12960      6.42594     19.69000        -0.000105     -0.000229      0.589734
      6.36000      9.17987      8.69000         0.001684     -0.001460     -0.579521
     12.71989      3.67176     19.69000        -0.000041      0.000383      0.585593
     12.72000      3.67195      8.69000         0.002179     -0.000451     -0.585629
      7.94851      6.42591     19.69000         0.005357      0.000448      0.576503
      7.94970      6.42598     22.88000         0.000018      0.000234     -0.586715
      9.54000      9.17987      8.69000         0.000583      0.000178     -0.587824
     14.31000      0.91799      8.69000         0.000206      0.002117     -0.586012
      9.54000      9.17987      5.50000        -0.000017     -0.000180      0.587355
      1.59031     11.93375     19.69000        -0.000209     -0.000529      0.586528
      7.95002      0.91795     22.88000        -0.000105      0.000922     -0.589781
      1.59000     11.93383      5.50000         0.000294      0.000301      0.587079
      3.18000      3.67195      5.50000         0.000242      0.001031      0.583903
      3.18000      3.67195      8.69000        -0.002492      0.004367     -0.564547
      4.77004      0.91805     19.69000         0.000063      0.000181      0.583871
      4.76998      0.91821     22.88000         0.000056     -0.000743     -0.586433
      4.77000      0.91799      5.50000        -0.000045     -0.000150      0.587198
      4.77000      0.91799      8.69000        -0.002530      0.002602     -0.582416
     -4.77007     11.93381     19.69000        -0.000034      0.000231      0.587939
     -4.77001     11.93390     22.88000        -0.000192     -0.000022     -0.587338
     -4.77000     11.93383      5.50000        -0.000120      0.000628      0.586962
     -4.77000     11.93383      8.69000        -0.000769      0.000687     -0.587340
     -3.18017      9.17995     19.69000         0.000536     -0.000468      0.588238
     -3.18004      9.17994     22.88000         0.000140     -0.000343     -0.587595
      3.18019      3.67212     22.88000        -0.000335     -0.000632     -0.585536
     -3.18000      9.17987      5.50000         0.000101     -0.000398      0.586956
     -1.58992      6.42587     19.69000         0.001170     -0.000284      0.587284
     -1.58989      6.42580     22.88000         0.000851     -0.000177     -0.589006
     -1.59000      6.42591      5.50000         0.000071     -0.000391      0.586913
     -1.59000      6.42591      8.69000         0.004093     -0.001440     -0.583253
      0.00001      3.67201     19.69000         0.000305     -0.000012      0.583787
      0.00004      3.67190     22.88000         0.000148      0.000518     -0.589275
     -0.00000      3.67195      5.50000         0.000641     -0.000143      0.588257
     -0.00000      3.67195      8.69000         0.004490      0.002563     -0.577892
      1.59000      0.91778     19.69000        -0.000445      0.000684      0.585289
      1.58997      0.91800     22.88000        -0.000260     -0.000063     -0.587827
      1.59000      0.91799      5.50000        -0.000315      0.000491      0.587419
      1.59000      0.91799      8.69000         0.001282      0.004104     -0.582924
     -3.18000      9.17987      8.69000         0.000029     -0.000527     -0.587298
      3.17997      3.67188     19.69000         0.000909      0.000543      0.587575
      1.59000      6.42591      8.69000         0.002726     -0.003961     -0.559255
      1.59000      6.42591      5.50000         0.001553     -0.000643      0.584088
      1.59000     11.93383      8.69000         0.000099     -0.000102     -0.586007
      3.18093      9.17877     19.69000        -0.002718      0.003190      0.570376
      3.17996      9.17978     22.88000         0.001059     -0.000799     -0.586074
      3.18000      9.17987      5.50000         0.001420     -0.001619      0.587372
      3.18000      9.17987      8.69000        -0.004995     -0.006102     -0.569861
      4.77177      6.42666     19.69000        -0.006063     -0.003080      0.559322
      4.77002      6.42590     22.88000         0.001324      0.000501     -0.573420
      4.77000      6.42591      5.50000         0.000222      0.000054      0.580839
      4.77000      6.42591      8.69000         0.021732     -0.005511     -0.695942
      6.35953      3.67330     19.69000         0.000582     -0.004737      0.567898
      6.35967      3.67186     22.88000         0.000301      0.000916     -0.586540
      6.36000      3.67195      5.50000        -0.000584      0.001403      0.587962
      6.36000      3.67195      8.69000        -0.008898      0.000527     -0.568354
      7.95001      0.91824     19.69000        -0.000286      0.000057      0.588302
      7.95000     11.93376     22.88000        -0.000991     -0.000642     -0.587822
      7.95000      0.91799      5.50000         0.000054      0.000575      0.587250
      7.95000      0.91799      8.69000         0.000020      0.000550     -0.586300
     -1.59013     11.93382     19.69000         0.000776      0.000182      0.587743
     -1.59005     11.93388     22.88000         0.000341     -0.000027     -0.586679
     -1.59000     11.93383      5.50000        -0.000401      0.000254      0.586894
     -1.59000     11.93383      8.69000        -0.000491      0.000024     -0.587238
      0.00026      9.17982     19.69000         0.000085     -0.000269      0.584980
      0.00025      9.17984     22.88000        -0.000362     -0.000166     -0.586900
      0.00000      9.17987      5.50000         0.000022     -0.000234      0.588236
      0.00000      9.17987      8.69000         0.001870     -0.003951     -0.582866
      1.59166      6.42580     19.69000        -0.002805     -0.000143      0.567376
      1.59049      6.42579     22.88000         0.001701     -0.000166     -0.588710
      1.59011     11.93387     22.88000         0.000458     -0.000613     -0.587442
      7.94985     11.93346     19.69000        -0.000578      0.000109      0.586830
 -----------------------------------------------------------------------------------
    total drift:                               -0.001669      0.004120     -0.007672


--------------------------------------------------------------------------------------------------------



  FREE ENERGIE OF THE ION-ELECTRON SYSTEM (eV)
  ---------------------------------------------------
  free  energy   TOTEN  =     -1253.28295485 eV

  energy  without entropy=    -1253.15573186  energy(sigma->0) =    -1253.21934336
 
 d Force = 0.4272901E-04[ 0.208E-04, 0.647E-04]  d Energy = 0.5424200E-04-0.115E-04
 d Force =-0.1913831E+00[-0.191E+00,-0.191E+00]  d Ewald  =-0.1913832E+00 0.763E-07


--------------------------------------------------------------------------------------------------------


    POTLOK:  cpu time    0.4171: real time    0.4198


--------------------------------------------------------------------------------------------------------


 Conjugate gradient step on ions:
 trial-energy change:   -0.000054  1 .order   -0.000043   -0.000065   -0.000021
  (g-gl).g = 0.185E-03      g.g   = 0.220E-03  gl.gl    = 0.223E-03
 g(Force)  = 0.220E-03   g(Stress)= 0.000E+00 ortho     =-0.192E-04
 gamma     =   0.83121
 trial     =   0.31698
 opt step  =   0.46688  (harmonic =   0.46688) maximal distance =0.00063249
 next E    = -1253.282948   (d E  =  -0.00005)


--------------------------------------------------------------------------------------------------------


  
 reached required accuracy - stopping structural energy minimisation
     LOOP+:  cpu time   60.3518: real time   64.3398
    4ORBIT:  cpu time    0.0000: real time    0.0000

 total amount of memory used by VASP MPI-rank0   156589. kBytes
=======================================================================

   base      :      30000. kBytes
   nonlr-proj:      23536. kBytes
   fftplans  :      28265. kBytes
   grid      :      62703. kBytes
   one-center:        334. kBytes
   wavefun   :      11751. kBytes
 
  
  
 General timing and accounting informations for this job:
 ========================================================
  
                  Total CPU time used (sec):     2063.525
                            User time (sec):     2051.604
                          System time (sec):       11.921
                         Elapsed time (sec):     2200.366
  
                   Maximum memory used (kb):      314180.
                   Average memory used (kb):           0.
  
                          Minor page faults:      1609258
                          Major page faults:           69
                 Voluntary context switches:         1378
