<?xml version="1.0" encoding="ISO-8859-1"?>
<modeling>
 <generator>
  <i name="program" type="string">vasp </i>
  <i name="version" type="string">5.4.4.18Apr17-6-g9f103f2a35  </i>
  <i name="subversion" type="string">(build Oct 28 2020 13:00:36) gamma-only         parallel </i>
  <i name="platform" type="string">LinuxIFC </i>
  <i name="date" type="string">2020 12 03 </i>
  <i name="time" type="string">21:33:07 </i>
 </generator>
 <incar>
  <i type="string" name="SYSTEM"> basalPlane</i>
  <i type="int" name="ISTART">     0</i>
  <i type="string" name="PREC">accurate  !=accurate, max(enmax) no wra</i>
  <i type="string" name="ALGO"> Normal    !=Normal, blocked Davidson it</i>
  <i type="int" name="NSIM">     4</i>
  <i type="int" name="ISPIN">     1</i>
  <i type="int" name="ICHARG">     2</i>
  <i type="int" name="INIWAV">     1</i>
  <i type="int" name="NELM">   200</i>
  <i type="int" name="NELMDL">    -5</i>
  <i type="int" name="NELMIN">     2</i>
  <i type="int" name="IBRION">     2</i>
  <i name="EDIFF">      0.00010000</i>
  <i name="EDIFFG">     -0.02000000</i>
  <i type="int" name="NSW"> 10000</i>
  <i type="int" name="ISIF">     2</i>
  <i type="int" name="ISYM">     2</i>
  <i name="ENCUT">    400.00000000</i>
  <i name="ENAUG">    645.00000000</i>
  <i type="string" name="LREAL"> Auto     !=Auto projection operators ev</i>
  <i type="logical" name="LPLANE"> T  </i>
  <i type="int" name="ISMEAR">     0</i>
  <i name="SIGMA">      0.10000000</i>
  <i type="int" name="NWRITE">     2</i>
  <i type="logical" name="LWAVE"> F  </i>
  <i type="logical" name="LCHARG"> F  </i>
  <i type="int" name="LORBIT">     0</i>
  <i type="logical" name="LELF"> F  </i>
  <i type="logical" name="LSCALU"> F  </i>
  <v type="int" name="KPOINT_BSE">    -1     0     0     0</v>
  <i type="int" name="NELM">   200</i>
 </incar>
 <structure name="primitive_cell" >
  <crystal>
   <varray name="basis" >
    <v>      15.90000000       0.00000000       0.00000000 </v>
    <v>      -7.95000000      13.76980392       0.00000000 </v>
    <v>       0.00000000       0.00000000      32.38000000 </v>
   </varray>
   <i name="volume">   7089.27338987 </i>
   <varray name="rec_basis" >
    <v>       0.06289308       0.03631134       0.00000000 </v>
    <v>       0.00000000       0.07262268       0.00000000 </v>
    <v>       0.00000000       0.00000000       0.03088326 </v>
   </varray>
  </crystal>
  <varray name="positions" >
   <v>      -0.47996879       0.37396380       0.48532528 </v>
   <v>      -0.47739276       0.30697148       0.48334929 </v>
   <v>       0.44363843       0.38362772      -0.49673048 </v>
   <v>      -0.41067057       0.46527801       0.46802197 </v>
   <v>       0.45287134       0.42148434       0.43806987 </v>
   <v>       0.37864620       0.32558746      -0.48233975 </v>
   <v>      -0.34457891       0.48048944       0.45184509 </v>
   <v>       0.46473572       0.48164297       0.49735635 </v>
   <v>      -0.44417542      -0.46695619       0.47541048 </v>
   <v>       0.42074045      -0.48792577      -0.49192764 </v>
   <v>      -0.40620864      -0.39041452       0.46715954 </v>
   <v>       0.41751787       0.34342146       0.37964208 </v>
   <v>       0.33252696       0.31675404       0.40413038 </v>
   <v>       0.44465537       0.29552448       0.37041305 </v>
   <v>       0.28146930       0.24414001       0.41517184 </v>
   <v>       0.46248226       0.44443262       0.37068421 </v>
   <v>       0.32568770       0.40314725       0.41027673 </v>
   <v>      -0.46666667       0.46666667      -0.39190859 </v>
   <v>       0.40684049       0.48182840       0.38947172 </v>
   <v>      -0.46666667       0.26666667      -0.39190859 </v>
   <v>      -0.46927344       0.48703169       0.35424384 </v>
   <v>       0.26823283       0.40747074       0.42661450 </v>
   <v>       0.33333333       0.26666667      -0.39190859 </v>
   <v>      -0.26666667       0.46666667      -0.39190859 </v>
   <v>       0.42380718      -0.44291804       0.38870502 </v>
   <v>       0.33333333       0.46666667      -0.39190859 </v>
   <v>      -0.40000000       0.40000000      -0.34264978 </v>
   <v>      -0.26666667      -0.33333333      -0.39190859 </v>
   <v>       0.33333333       0.06666667      -0.39190859 </v>
   <v>       0.40000000       0.40000000      -0.34264978 </v>
   <v>      -0.26666667       0.26666667      -0.39190859 </v>
   <v>      -0.46666667      -0.33333333      -0.39190859 </v>
   <v>       0.40000000       0.20000000      -0.34264978 </v>
   <v>      -0.46666667       0.06666667      -0.39190859 </v>
   <v>      -0.40000000      -0.40000000      -0.34264978 </v>
   <v>      -0.40000000       0.20000000      -0.34264978 </v>
   <v>       0.13333333       0.26666667      -0.39190859 </v>
   <v>       0.13333333       0.06666667      -0.39190859 </v>
   <v>      -0.20000000      -0.40000000      -0.34264978 </v>
   <v>      -0.20000000       0.40000000      -0.34264978 </v>
   <v>      -0.06666667      -0.33333333      -0.39190859 </v>
   <v>       0.20000000       0.20000000      -0.34264978 </v>
   <v>      -0.46666667       0.46666667       0.26837554 </v>
   <v>      -0.06666667       0.46666667      -0.39190859 </v>
   <v>      -0.46666667       0.26666667       0.26837554 </v>
   <v>      -0.46666667       0.46666667      -0.29339098 </v>
   <v>       0.40000000      -0.40000000      -0.34264978 </v>
   <v>      -0.46666667       0.26666667      -0.29339098 </v>
   <v>       0.33333333       0.26666667       0.26837554 </v>
   <v>       0.33333333       0.26666667      -0.29339098 </v>
   <v>      -0.26666667       0.46666667       0.26837554 </v>
   <v>       0.40000000       0.00000000      -0.34264978 </v>
   <v>       0.20000000       0.40000000      -0.34264978 </v>
   <v>      -0.26666667       0.46666667      -0.29339098 </v>
   <v>       0.33333333      -0.33333333      -0.39190859 </v>
   <v>       0.20000000       0.00000000      -0.34264978 </v>
   <v>      -0.26666667      -0.13333333      -0.39190859 </v>
   <v>       0.33333333       0.46666667       0.26837554 </v>
   <v>       0.13333333       0.46666667      -0.39190859 </v>
   <v>       0.33333333      -0.13333333      -0.39190859 </v>
   <v>      -0.20000000      -0.20000000      -0.34264978 </v>
   <v>       0.33333333       0.46666667      -0.29339098 </v>
   <v>      -0.26666667      -0.33333333       0.26837554 </v>
   <v>       0.33333333       0.06666667       0.26837554 </v>
   <v>      -0.26666667       0.06666667      -0.39190859 </v>
   <v>      -0.26666667      -0.33333333      -0.29339098 </v>
   <v>      -0.06666667      -0.13333333      -0.39190859 </v>
   <v>       0.13333333      -0.13333333      -0.39190859 </v>
   <v>       0.33333333       0.06666667      -0.29339098 </v>
   <v>      -0.26666667       0.26666667       0.26837554 </v>
   <v>      -0.40000000      -0.20000000      -0.34264978 </v>
   <v>      -0.46666667      -0.33333333       0.26837554 </v>
   <v>      -0.20000000       0.20000000      -0.34264978 </v>
   <v>      -0.26666667       0.26666667      -0.29339098 </v>
   <v>      -0.46666667      -0.33333333      -0.29339098 </v>
   <v>      -0.06666667       0.26666667      -0.39190859 </v>
   <v>      -0.46666667       0.06666667       0.26837554 </v>
   <v>       0.00000000      -0.40000000      -0.34264978 </v>
   <v>      -0.40000000       0.00000000      -0.34264978 </v>
   <v>      -0.46666667      -0.13333333      -0.39190859 </v>
   <v>      -0.40000000       0.40000000       0.21911674 </v>
   <v>      -0.46666667       0.06666667      -0.29339098 </v>
   <v>       0.40000000       0.40000000       0.21911674 </v>
   <v>       0.13333333       0.26666667       0.26837554 </v>
   <v>       0.40000000       0.20000000       0.21911674 </v>
   <v>       0.13333333       0.06666667       0.26837554 </v>
   <v>      -0.06666667       0.06666667      -0.39190859 </v>
   <v>       0.13333333       0.26666667      -0.29339098 </v>
   <v>       0.13333333       0.06666667      -0.29339098 </v>
   <v>       0.00000000      -0.20000000      -0.34264978 </v>
   <v>      -0.06666667      -0.33333333       0.26837554 </v>
   <v>       0.00000000       0.20000000      -0.34264978 </v>
   <v>      -0.40000000      -0.40000000       0.21911674 </v>
   <v>      -0.06666667       0.46666667       0.26837554 </v>
   <v>       0.00000000       0.00000000      -0.34264978 </v>
   <v>      -0.06666667      -0.33333333      -0.29339098 </v>
   <v>       0.00000000       0.40000000      -0.34264978 </v>
   <v>      -0.06666667       0.46666667      -0.29339098 </v>
   <v>      -0.40000000       0.20000000       0.21911674 </v>
   <v>       0.13333333      -0.33333333      -0.39190859 </v>
   <v>       0.20000000      -0.40000000      -0.34264978 </v>
   <v>      -0.20000000      -0.40000000       0.21911674 </v>
   <v>      -0.20000000       0.40000000       0.21911674 </v>
   <v>       0.40000000      -0.20000000      -0.34264978 </v>
   <v>       0.33333333      -0.33333333       0.26837554 </v>
   <v>       0.20000000      -0.20000000      -0.34264978 </v>
   <v>       0.20000000       0.20000000       0.21911674 </v>
   <v>       0.33333333      -0.33333333      -0.29339098 </v>
   <v>      -0.26666667      -0.13333333       0.26837554 </v>
   <v>      -0.26666667      -0.13333333      -0.29339098 </v>
   <v>       0.40000000      -0.40000000       0.21911674 </v>
   <v>       0.13333333       0.46666667       0.26837554 </v>
   <v>       0.33333333      -0.13333333       0.26837554 </v>
   <v>       0.13333333       0.46666667      -0.29339098 </v>
   <v>       0.33333333      -0.13333333      -0.29339098 </v>
   <v>      -0.26666667       0.06666667       0.26837554 </v>
   <v>       0.40000000       0.00000000       0.21911674 </v>
   <v>      -0.06666667      -0.13333333       0.26837554 </v>
   <v>       0.20000000       0.40000000       0.21911674 </v>
   <v>       0.13333333      -0.13333333       0.26837554 </v>
   <v>      -0.26666667       0.06666667      -0.29339098 </v>
   <v>      -0.06666667      -0.13333333      -0.29339098 </v>
   <v>       0.13333333      -0.13333333      -0.29339098 </v>
   <v>       0.20000000       0.00000000       0.21911674 </v>
   <v>      -0.20000000       0.00000000      -0.34264978 </v>
   <v>      -0.46666667       0.46666667       0.16985794 </v>
   <v>      -0.06666667       0.26666667       0.26837554 </v>
   <v>      -0.46666667       0.26666667       0.16985794 </v>
   <v>      -0.06666667       0.26666667      -0.29339098 </v>
   <v>      -0.46666667      -0.13333333       0.26837554 </v>
   <v>      -0.20000000      -0.20000000       0.21911674 </v>
   <v>       0.33333333       0.26666667       0.16985794 </v>
   <v>      -0.46666667      -0.13333333      -0.29339098 </v>
   <v>      -0.26666667       0.46666667       0.16985794 </v>
   <v>      -0.40000000      -0.20000000       0.21911674 </v>
   <v>      -0.20000000       0.20000000       0.21911674 </v>
   <v>      -0.06666667       0.06666667       0.26837554 </v>
   <v>      -0.06666667       0.06666667      -0.29339098 </v>
   <v>       0.00000000      -0.40000000       0.21911674 </v>
   <v>      -0.40000000       0.00000000       0.21911674 </v>
   <v>       0.33333333       0.46666667       0.16985794 </v>
   <v>       0.13333333      -0.33333333       0.26837554 </v>
   <v>      -0.26666667      -0.33333333       0.16985794 </v>
   <v>       0.33333333       0.06666667       0.16985794 </v>
   <v>       0.13333333      -0.33333333      -0.29339098 </v>
   <v>      -0.26666667       0.26666667       0.16985794 </v>
   <v>      -0.46666667      -0.33333333       0.16985794 </v>
   <v>       0.00000000      -0.20000000       0.21911674 </v>
   <v>       0.00000000       0.20000000       0.21911674 </v>
   <v>       0.00000000       0.00000000       0.21911674 </v>
   <v>      -0.46666667       0.06666667       0.16985794 </v>
   <v>       0.00000000       0.40000000       0.21911674 </v>
   <v>       0.20000000      -0.40000000       0.21911674 </v>
   <v>       0.13333333       0.26666667       0.16985794 </v>
   <v>       0.13333333       0.06666667       0.16985794 </v>
   <v>       0.40000000      -0.20000000       0.21911674 </v>
   <v>       0.20000000      -0.20000000       0.21911674 </v>
   <v>      -0.06666667      -0.33333333       0.16985794 </v>
   <v>      -0.06666667       0.46666667       0.16985794 </v>
   <v>       0.33333333      -0.33333333       0.16985794 </v>
   <v>      -0.20000000       0.00000000       0.21911674 </v>
   <v>      -0.26666667      -0.13333333       0.16985794 </v>
   <v>       0.13333333       0.46666667       0.16985794 </v>
   <v>       0.33333333      -0.13333333       0.16985794 </v>
   <v>      -0.26666667       0.06666667       0.16985794 </v>
   <v>      -0.06666667      -0.13333333       0.16985794 </v>
   <v>       0.13333333      -0.13333333       0.16985794 </v>
   <v>      -0.06666667       0.26666667       0.16985794 </v>
   <v>      -0.46666667      -0.13333333       0.16985794 </v>
   <v>      -0.06666667       0.06666667       0.16985794 </v>
   <v>       0.13333333      -0.33333333       0.16985794 </v>
  </varray>
 </structure>
 <varray name="primitive_index" >
  <v type="int" >        1 </v>
  <v type="int" >       18 </v>
  <v type="int" >        2 </v>
  <v type="int" >        3 </v>
  <v type="int" >       11 </v>
  <v type="int" >       17 </v>
  <v type="int" >       19 </v>
  <v type="int" >        5 </v>
  <v type="int" >        4 </v>
  <v type="int" >       12 </v>
  <v type="int" >       20 </v>
  <v type="int" >       10 </v>
  <v type="int" >        6 </v>
  <v type="int" >       21 </v>
  <v type="int" >       14 </v>
  <v type="int" >        9 </v>
  <v type="int" >        8 </v>
  <v type="int" >      148 </v>
  <v type="int" >        7 </v>
  <v type="int" >      152 </v>
  <v type="int" >       16 </v>
  <v type="int" >       13 </v>
  <v type="int" >      140 </v>
  <v type="int" >      105 </v>
  <v type="int" >       15 </v>
  <v type="int" >      168 </v>
  <v type="int" >       38 </v>
  <v type="int" >       97 </v>
  <v type="int" >      115 </v>
  <v type="int" >       44 </v>
  <v type="int" >       73 </v>
  <v type="int" >      144 </v>
  <v type="int" >       41 </v>
  <v type="int" >      156 </v>
  <v type="int" >       22 </v>
  <v type="int" >       43 </v>
  <v type="int" >      131 </v>
  <v type="int" >      135 </v>
  <v type="int" >       61 </v>
  <v type="int" >       65 </v>
  <v type="int" >       76 </v>
  <v type="int" >       30 </v>
  <v type="int" >      151 </v>
  <v type="int" >      101 </v>
  <v type="int" >      155 </v>
  <v type="int" >      149 </v>
  <v type="int" >       47 </v>
  <v type="int" >      153 </v>
  <v type="int" >      114 </v>
  <v type="int" >      125 </v>
  <v type="int" >       90 </v>
  <v type="int" >       37 </v>
  <v type="int" >       34 </v>
  <v type="int" >      106 </v>
  <v type="int" >      164 </v>
  <v type="int" >       53 </v>
  <v type="int" >       96 </v>
  <v type="int" >      141 </v>
  <v type="int" >      127 </v>
  <v type="int" >      160 </v>
  <v type="int" >       56 </v>
  <v type="int" >      169 </v>
  <v type="int" >      102 </v>
  <v type="int" >      118 </v>
  <v type="int" >       80 </v>
  <v type="int" >       98 </v>
  <v type="int" >      171 </v>
  <v type="int" >      119 </v>
  <v type="int" >      116 </v>
  <v type="int" >       78 </v>
  <v type="int" >       27 </v>
  <v type="int" >      147 </v>
  <v type="int" >       71 </v>
  <v type="int" >       74 </v>
  <v type="int" >      145 </v>
  <v type="int" >      103 </v>
  <v type="int" >      159 </v>
  <v type="int" >       66 </v>
  <v type="int" >       48 </v>
  <v type="int" >      110 </v>
  <v type="int" >       40 </v>
  <v type="int" >      111 </v>
  <v type="int" >       42 </v>
  <v type="int" >      134 </v>
  <v type="int" >       39 </v>
  <v type="int" >      138 </v>
  <v type="int" >       85 </v>
  <v type="int" >      132 </v>
  <v type="int" >      136 </v>
  <v type="int" >       69 </v>
  <v type="int" >      107 </v>
  <v type="int" >       60 </v>
  <v type="int" >       35 </v>
  <v type="int" >       79 </v>
  <v type="int" >       57 </v>
  <v type="int" >       75 </v>
  <v type="int" >       63 </v>
  <v type="int" >       99 </v>
  <v type="int" >       45 </v>
  <v type="int" >      123 </v>
  <v type="int" >       24 </v>
  <v type="int" >       67 </v>
  <v type="int" >       68 </v>
  <v type="int" >       46 </v>
  <v type="int" >      167 </v>
  <v type="int" >       33 </v>
  <v type="int" >       32 </v>
  <v type="int" >      165 </v>
  <v type="int" >       94 </v>
  <v type="int" >       93 </v>
  <v type="int" >       36 </v>
  <v type="int" >      130 </v>
  <v type="int" >      163 </v>
  <v type="int" >      128 </v>
  <v type="int" >      161 </v>
  <v type="int" >       86 </v>
  <v type="int" >       51 </v>
  <v type="int" >       89 </v>
  <v type="int" >       28 </v>
  <v type="int" >      122 </v>
  <v type="int" >       81 </v>
  <v type="int" >      157 </v>
  <v type="int" >      120 </v>
  <v type="int" >       54 </v>
  <v type="int" >       31 </v>
  <v type="int" >      150 </v>
  <v type="int" >      104 </v>
  <v type="int" >      154 </v>
  <v type="int" >       88 </v>
  <v type="int" >      143 </v>
  <v type="int" >       58 </v>
  <v type="int" >      113 </v>
  <v type="int" >      170 </v>
  <v type="int" >       91 </v>
  <v type="int" >       25 </v>
  <v type="int" >       52 </v>
  <v type="int" >      108 </v>
  <v type="int" >       82 </v>
  <v type="int" >       64 </v>
  <v type="int" >       50 </v>
  <v type="int" >      142 </v>
  <v type="int" >      139 </v>
  <v type="int" >      100 </v>
  <v type="int" >      117 </v>
  <v type="int" >      124 </v>
  <v type="int" >       77 </v>
  <v type="int" >      146 </v>
  <v type="int" >       70 </v>
  <v type="int" >       59 </v>
  <v type="int" >       55 </v>
  <v type="int" >      158 </v>
  <v type="int" >       62 </v>
  <v type="int" >       26 </v>
  <v type="int" >      133 </v>
  <v type="int" >      137 </v>
  <v type="int" >       49 </v>
  <v type="int" >       23 </v>
  <v type="int" >      109 </v>
  <v type="int" >       95 </v>
  <v type="int" >      166 </v>
  <v type="int" >       29 </v>
  <v type="int" >       92 </v>
  <v type="int" >      129 </v>
  <v type="int" >      162 </v>
  <v type="int" >       84 </v>
  <v type="int" >       83 </v>
  <v type="int" >      121 </v>
  <v type="int" >       87 </v>
  <v type="int" >      112 </v>
  <v type="int" >       72 </v>
  <v type="int" >      126 </v>
 </varray>
 <kpoints>
  <varray name="kpointlist" >
   <v>       0.00000000       0.00000000       0.00000000 </v>
  </varray>
  <varray name="weights" >
   <v>       1.00000000 </v>
  </varray>
 </kpoints>
 <parameters>
  <separator name="general" >
   <i type="string" name="SYSTEM">basalPlane</i>
   <i type="logical" name="LCOMPAT"> F  </i>
  </separator>
  <separator name="electronic" >
   <i type="string" name="PREC">accura</i>
   <i name="ENMAX">    400.00000000</i>
   <i name="ENAUG">    645.00000000</i>
   <i name="EDIFF">      0.00010000</i>
   <i type="int" name="IALGO">    38</i>
   <i type="int" name="IWAVPR">    11</i>
   <i type="int" name="NBANDS">   585</i>
   <i name="NELECT">    956.00000000</i>
   <i type="int" name="TURBO">     0</i>
   <i type="int" name="IRESTART">     0</i>
   <i type="int" name="NREBOOT">     0</i>
   <i type="int" name="NMIN">     0</i>
   <i name="EREF">      0.00000000</i>
   <separator name="electronic smearing" >
    <i type="int" name="ISMEAR">     0</i>
    <i name="SIGMA">      0.10000000</i>
    <i name="KSPACING">      0.50000000</i>
    <i type="logical" name="KGAMMA"> T  </i>
   </separator>
   <separator name="electronic projectors" >
    <i type="logical" name="LREAL"> T  </i>
    <v name="ROPT">     -0.00025000     -0.00025000     -0.00025000     -0.00025000     -0.00025000</v>
    <i type="int" name="LMAXPAW">  -100</i>
    <i type="int" name="LMAXMIX">     2</i>
    <i type="logical" name="NLSPLINE"> F  </i>
   </separator>
   <separator name="electronic startup" >
    <i type="int" name="ISTART">     0</i>
    <i type="int" name="ICHARG">     2</i>
    <i type="int" name="INIWAV">     1</i>
   </separator>
   <separator name="electronic spin" >
    <i type="int" name="ISPIN">     1</i>
    <i type="logical" name="LNONCOLLINEAR"> F  </i>
    <v name="MAGMOM">      1.00000000      1.00000000      1.00000000      1.00000000      1.00000000      1.00000000      1.00000000      1.00000000      1.00000000      1.00000000      1.00000000      1.00000000      1.00000000      1.00000000      1.00000000      1.00000000      1.00000000      1.00000000      1.00000000      1.00000000
      1.00000000      1.00000000      1.00000000      1.00000000      1.00000000      1.00000000      1.00000000      1.00000000      1.00000000      1.00000000      1.00000000      1.00000000      1.00000000      1.00000000      1.00000000      1.00000000      1.00000000      1.00000000      1.00000000      1.00000000
      1.00000000      1.00000000      1.00000000      1.00000000      1.00000000      1.00000000      1.00000000      1.00000000      1.00000000      1.00000000      1.00000000      1.00000000      1.00000000      1.00000000      1.00000000      1.00000000      1.00000000      1.00000000      1.00000000      1.00000000
      1.00000000      1.00000000      1.00000000      1.00000000      1.00000000      1.00000000      1.00000000      1.00000000      1.00000000      1.00000000      1.00000000      1.00000000      1.00000000      1.00000000      1.00000000      1.00000000      1.00000000      1.00000000      1.00000000      1.00000000
      1.00000000      1.00000000      1.00000000      1.00000000      1.00000000      1.00000000      1.00000000      1.00000000      1.00000000      1.00000000      1.00000000      1.00000000      1.00000000      1.00000000      1.00000000      1.00000000      1.00000000      1.00000000      1.00000000      1.00000000
      1.00000000      1.00000000      1.00000000      1.00000000      1.00000000      1.00000000      1.00000000      1.00000000      1.00000000      1.00000000      1.00000000      1.00000000      1.00000000      1.00000000      1.00000000      1.00000000      1.00000000      1.00000000      1.00000000      1.00000000
      1.00000000      1.00000000      1.00000000      1.00000000      1.00000000      1.00000000      1.00000000      1.00000000      1.00000000      1.00000000      1.00000000      1.00000000      1.00000000      1.00000000      1.00000000      1.00000000      1.00000000      1.00000000      1.00000000      1.00000000
      1.00000000      1.00000000      1.00000000      1.00000000      1.00000000      1.00000000      1.00000000      1.00000000      1.00000000      1.00000000      1.00000000      1.00000000      1.00000000      1.00000000      1.00000000      1.00000000      1.00000000      1.00000000      1.00000000      1.00000000
      1.00000000      1.00000000      1.00000000      1.00000000      1.00000000      1.00000000      1.00000000      1.00000000      1.00000000      1.00000000      1.00000000</v>
    <i name="NUPDOWN">     -1.00000000</i>
    <i type="logical" name="LSORBIT"> F  </i>
    <v name="SAXIS">      0.00000000      0.00000000      1.00000000</v>
    <i type="logical" name="LSPIRAL"> F  </i>
    <v name="QSPIRAL">      0.00000000      0.00000000      0.00000000</v>
    <i type="logical" name="LZEROZ"> F  </i>
   </separator>
   <separator name="electronic exchange-correlation" >
    <i type="logical" name="LASPH"> F  </i>
    <i type="logical" name="LMETAGGA"> F  </i>
   </separator>
   <separator name="electronic convergence" >
    <i type="int" name="NELM">   200</i>
    <i type="int" name="NELMDL">    -5</i>
    <i type="int" name="NELMIN">     2</i>
    <i name="ENINI">    400.00000000</i>
    <separator name="electronic convergence detail" >
     <i type="logical" name="LDIAG"> T  </i>
     <i type="logical" name="LSUBROT"> F  </i>
     <i name="WEIMIN">      0.00100000</i>
     <i name="EBREAK">      0.00000004</i>
     <i name="DEPER">      0.30000000</i>
     <i type="int" name="NRMM">     4</i>
     <i name="TIME">      0.40000000</i>
    </separator>
   </separator>
   <separator name="electronic mixer" >
    <i name="AMIX">      0.40000000</i>
    <i name="BMIX">      1.00000000</i>
    <i name="AMIN">      0.10000000</i>
    <i name="AMIX_MAG">      1.60000000</i>
    <i name="BMIX_MAG">      1.00000000</i>
    <separator name="electronic mixer details" >
     <i type="int" name="IMIX">     4</i>
     <i type="logical" name="MIXFIRST"> F  </i>
     <i type="int" name="MAXMIX">   -45</i>
     <i name="WC">    100.00000000</i>
     <i type="int" name="INIMIX">     1</i>
     <i type="int" name="MIXPRE">     1</i>
     <i type="int" name="MREMOVE">     5</i>
    </separator>
   </separator>
   <separator name="electronic dipolcorrection" >
    <i type="logical" name="LDIPOL"> F  </i>
    <i type="logical" name="LMONO"> F  </i>
    <i type="int" name="IDIPOL">     0</i>
    <i name="EPSILON">      1.00000000</i>
    <v name="DIPOL">   -100.00000000   -100.00000000   -100.00000000</v>
    <i name="EFIELD">      0.00000000</i>
   </separator>
  </separator>
  <separator name="grids" >
   <i type="int" name="NGX">   108</i>
   <i type="int" name="NGY">   108</i>
   <i type="int" name="NGZ">   216</i>
   <i type="int" name="NGXF">   216</i>
   <i type="int" name="NGYF">   216</i>
   <i type="int" name="NGZF">   432</i>
   <i type="logical" name="ADDGRID"> F  </i>
  </separator>
  <separator name="ionic" >
   <i type="int" name="NSW"> 10000</i>
   <i type="int" name="IBRION">     2</i>
   <i type="int" name="MDALGO">     0</i>
   <i type="int" name="ISIF">     2</i>
   <i name="PSTRESS">      0.00000000</i>
   <i name="EDIFFG">     -0.02000000</i>
   <i type="int" name="NFREE">     1</i>
   <i name="POTIM">      0.50000000</i>
   <i name="SMASS">     -3.00000000</i>
   <i name="SCALEE">      1.00000000</i>
  </separator>
  <separator name="ionic md" >
   <i name="TEBEG">      0.00010000</i>
   <i name="TEEND">      0.00010000</i>
   <i type="int" name="NBLOCK">     1</i>
   <i type="int" name="KBLOCK"> 10000</i>
   <i type="int" name="NPACO">   256</i>
   <i name="APACO">     16.00000000</i>
  </separator>
  <separator name="symmetry" >
   <i type="int" name="ISYM">     2</i>
   <i name="SYMPREC">      0.00001000</i>
  </separator>
  <separator name="dos" >
   <i type="int" name="LORBIT">     0</i>
   <v name="RWIGS">     -1.00000000     -1.00000000     -1.00000000     -1.00000000     -1.00000000</v>
   <i type="int" name="NEDOS">   301</i>
   <i name="EMIN">     10.00000000</i>
   <i name="EMAX">    -10.00000000</i>
   <i name="EFERMI">      0.00000000</i>
  </separator>
  <separator name="writing" >
   <i type="int" name="NWRITE">     2</i>
   <i type="logical" name="LWAVE"> F  </i>
   <i type="logical" name="LDOWNSAMPLE"> F  </i>
   <i type="logical" name="LCHARG"> F  </i>
   <i type="logical" name="LPARD"> F  </i>
   <i type="logical" name="LVTOT"> F  </i>
   <i type="logical" name="LVHAR"> F  </i>
   <i type="logical" name="LELF"> F  </i>
   <i type="logical" name="LOPTICS"> F  </i>
   <v name="STM">      0.00000000      0.00000000      0.00000000      0.00000000      0.00000000      0.00000000      0.00000000</v>
  </separator>
  <separator name="performance" >
   <i type="int" name="NPAR">    13</i>
   <i type="int" name="NSIM">     4</i>
   <i type="int" name="NBLK">    -1</i>
   <i type="logical" name="LPLANE"> T  </i>
   <i type="logical" name="LSCALAPACK"> T  </i>
   <i type="logical" name="LSCAAWARE"> F  </i>
   <i type="logical" name="LSCALU"> F  </i>
   <i type="logical" name="LASYNC"> F  </i>
   <i type="logical" name="LORBITALREAL"> F  </i>
  </separator>
  <separator name="miscellaneous" >
   <i type="int" name="IDIOT">     3</i>
   <i type="int" name="ISPECIAL">     0</i>
   <i type="logical" name="LMUSIC"> F  </i>
   <v name="POMASS">     12.01100000     51.99600000      1.00000000     95.94000000     32.06600000</v>
   <v name="DARWINR">      0.00000000      0.00000000      0.00000000      0.00000000      0.00000000</v>
   <v name="DARWINV">      1.00000000      1.00000000      1.00000000      1.00000000      1.00000000</v>
   <i type="logical" name="LCORR"> T  </i>
  </separator>
  <i type="logical" name="GGA_COMPAT"> T  </i>
  <i type="logical" name="LBERRY"> F  </i>
  <i type="int" name="ICORELEVEL">     0</i>
  <i type="logical" name="LDAU"> F  </i>
  <i type="int" name="I_CONSTRAINED_M">     0</i>
  <separator name="electronic exchange-correlation" >
   <i type="string" name="GGA">--</i>
   <i type="int" name="VOSKOWN">     0</i>
   <i type="logical" name="LHFCALC"> F  </i>
   <i type="string" name="PRECFOCK"></i>
   <i type="logical" name="LSYMGRAD"> F  </i>
   <i type="logical" name="LHFONE"> F  </i>
   <i type="logical" name="LRHFCALC"> F  </i>
   <i type="logical" name="LTHOMAS"> F  </i>
   <i type="logical" name="LMODELHF"> F  </i>
   <i name="ENCUT4O">     -1.00000000</i>
   <i type="int" name="EXXOEP">     0</i>
   <i type="int" name="FOURORBIT">     0</i>
   <i name="AEXX">      0.00000000</i>
   <i name="HFALPHA">      0.00000000</i>
   <i name="MCALPHA">      0.00000000</i>
   <i name="ALDAX">      1.00000000</i>
   <i name="AGGAX">      1.00000000</i>
   <i name="ALDAC">      1.00000000</i>
   <i name="AGGAC">      1.00000000</i>
   <i type="int" name="NKREDX">     1</i>
   <i type="int" name="NKREDY">     1</i>
   <i type="int" name="NKREDZ">     1</i>
   <i type="logical" name="SHIFTRED"> F  </i>
   <i type="logical" name="ODDONLY"> F  </i>
   <i type="logical" name="EVENONLY"> F  </i>
   <i type="int" name="LMAXFOCK">     0</i>
   <i type="int" name="NMAXFOCKAE">     0</i>
   <i type="logical" name="LFOCKAEDFT"> F  </i>
   <i name="HFSCREEN">      0.00000000</i>
   <i name="HFSCREENC">      0.00000000</i>
   <i type="int" name="NBANDSGWLOW">     0</i>
  </separator>
  <separator name="vdW DFT" >
   <i type="logical" name="LUSE_VDW"> F  </i>
   <i name="Zab_VDW">     -0.84910000</i>
   <i name="PARAM1">      0.12340000</i>
   <i name="PARAM2">      1.00000000</i>
   <i name="PARAM3">      0.00000000</i>
  </separator>
  <separator name="model GW" >
   <i type="int" name="MODEL_GW">     0</i>
   <i name="MODEL_EPS0">     24.87464347</i>
   <i name="MODEL_ALPHA">      1.00000000</i>
  </separator>
  <separator name="linear response parameters" >
   <i type="logical" name="LEPSILON"> F  </i>
   <i type="logical" name="LRPA"> F  </i>
   <i type="logical" name="LNABLA"> F  </i>
   <i type="logical" name="LVEL"> F  </i>
   <i type="int" name="KINTER">     0</i>
   <i name="CSHIFT">      0.10000000</i>
   <i name="OMEGAMAX">     -1.00000000</i>
   <i name="DEG_THRESHOLD">      0.00200000</i>
   <i name="RTIME">     -0.10000000</i>
   <i name="WPLASMAI">      0.00000000</i>
   <v name="DFIELD">      0.00000000      0.00000000      0.00000000</v>
   <v name="WPLASMA">      0.00000000      0.00000000      0.00000000      0.00000000      0.00000000      0.00000000      0.00000000      0.00000000      0.00000000</v>
  </separator>
  <separator name="orbital magnetization" >
   <i type="logical" name="NUCIND"> F  </i>
   <v name="MAGPOS">      0.00000000      0.00000000      0.00000000</v>
   <i type="logical" name="LNICSALL"> T  </i>
   <i type="logical" name="ORBITALMAG"> F  </i>
   <i type="logical" name="LMAGBLOCH"> F  </i>
   <i type="logical" name="LCHIMAG"> F  </i>
   <i type="logical" name="LGAUGE"> T  </i>
   <i type="int" name="MAGATOM">     0</i>
   <v name="MAGDIPOL">      0.00000000      0.00000000      0.00000000</v>
   <v name="AVECCONST">      0.00000000      0.00000000      0.00000000</v>
  </separator>
  <separator name="response functions" >
   <i type="logical" name="LADDER"> F  </i>
   <i type="logical" name="LRPAFORCE"> F  </i>
   <i type="logical" name="LFXC"> F  </i>
   <i type="logical" name="LHARTREE"> T  </i>
   <i type="int" name="IBSE">     0</i>
   <v type="int" name="KPOINT">    -1     0     0     0</v>
   <i type="logical" name="LTCTE"> F  </i>
   <i type="logical" name="LTETE"> F  </i>
   <i type="logical" name="LTRIPLET"> F  </i>
   <i type="logical" name="LFXCEPS"> F  </i>
   <i type="logical" name="LFXHEG"> F  </i>
   <i type="int" name="NATURALO">     2</i>
   <i type="logical" name="L2ORDER"> F  </i>
   <i type="logical" name="LMP2LT"> F  </i>
   <i type="logical" name="LUSEW"> F  </i>
   <i name="ENCUTGW">     -2.00000000</i>
   <i name="ENCUTGWSOFT">     -2.00000000</i>
   <i name="ENCUTLF">     -1.00000000</i>
   <i type="int" name="LMAXMP2">    -1</i>
   <i name="SCISSOR">      0.00000000</i>
   <i type="int" name="NOMEGA">     0</i>
   <i type="int" name="NOMEGAR">     0</i>
   <i type="int" name="NBANDSGW">    -1</i>
   <i type="int" name="NBANDSO">    -1</i>
   <i type="int" name="NBANDSV">    -1</i>
   <i type="int" name="NELM">   200</i>
   <i type="int" name="NELMHF">     1</i>
   <i type="int" name="DIM">     3</i>
   <i type="int" name="ANTIRES">     0</i>
   <i name="OMEGAMAX">    -30.00000000</i>
   <i name="OMEGAMIN">    -30.00000000</i>
   <i name="OMEGATL">   -200.00000000</i>
   <i type="int" name="OMEGAGRID">   140</i>
   <i name="CSHIFT">     -0.10000000</i>
   <i type="logical" name="SELFENERGY"> F  </i>
   <i type="logical" name="LSPECTRAL"> F  </i>
   <i type="logical" name="LSPECTRALGW"> F  </i>
   <i type="logical" name="LSINGLES"> F  </i>
   <i type="logical" name="LFERMIGW"> F  </i>
   <i type="logical" name="ODDONLYGW"> F  </i>
   <i type="logical" name="EVENONLYGW"> F  </i>
   <i type="int" name="NKREDLFX">     1</i>
   <i type="int" name="NKREDLFY">     1</i>
   <i type="int" name="NKREDLFZ">     1</i>
   <i type="int" name="MAXMEM">  2800</i>
   <i type="int" name="TELESCOPE">     0</i>
   <i type="int" name="TAUPAR">     1</i>
   <i type="int" name="OMEGAPAR">    -1</i>
   <i name="LAMBDA">      1.00000000</i>
  </separator>
  <separator name="External order field" >
   <i name="OFIELD_KAPPA">      0.00000000</i>
   <v name="OFIELD_K">      0.00000000      0.00000000      0.00000000</v>
   <i name="OFIELD_Q6_NEAR">      0.00000000</i>
   <i name="OFIELD_Q6_FAR">      0.00000000</i>
   <i name="OFIELD_A">      0.00000000</i>
  </separator>
 </parameters>
 <atominfo>
  <atoms>     171 </atoms>
  <types>       5 </types>
  <array name="atoms" >
   <dimension dim="1">ion</dimension>
   <field type="string">element</field>
   <field type="int">atomtype</field>
   <set>
    <rc><c>C </c><c>   1</c></rc>
    <rc><c>C </c><c>   1</c></rc>
    <rc><c>C </c><c>   1</c></rc>
    <rc><c>C </c><c>   1</c></rc>
    <rc><c>C </c><c>   1</c></rc>
    <rc><c>C </c><c>   1</c></rc>
    <rc><c>C </c><c>   1</c></rc>
    <rc><c>C </c><c>   1</c></rc>
    <rc><c>C </c><c>   1</c></rc>
    <rc><c>C </c><c>   1</c></rc>
    <rc><c>Cr</c><c>   2</c></rc>
    <rc><c>H </c><c>   3</c></rc>
    <rc><c>H </c><c>   3</c></rc>
    <rc><c>H </c><c>   3</c></rc>
    <rc><c>H </c><c>   3</c></rc>
    <rc><c>H </c><c>   3</c></rc>
    <rc><c>H </c><c>   3</c></rc>
    <rc><c>H </c><c>   3</c></rc>
    <rc><c>H </c><c>   3</c></rc>
    <rc><c>H </c><c>   3</c></rc>
    <rc><c>H </c><c>   3</c></rc>
    <rc><c>Mo</c><c>   4</c></rc>
    <rc><c>Mo</c><c>   4</c></rc>
    <rc><c>Mo</c><c>   4</c></rc>
    <rc><c>Mo</c><c>   4</c></rc>
    <rc><c>Mo</c><c>   4</c></rc>
    <rc><c>Mo</c><c>   4</c></rc>
    <rc><c>Mo</c><c>   4</c></rc>
    <rc><c>Mo</c><c>   4</c></rc>
    <rc><c>Mo</c><c>   4</c></rc>
    <rc><c>Mo</c><c>   4</c></rc>
    <rc><c>Mo</c><c>   4</c></rc>
    <rc><c>Mo</c><c>   4</c></rc>
    <rc><c>Mo</c><c>   4</c></rc>
    <rc><c>Mo</c><c>   4</c></rc>
    <rc><c>Mo</c><c>   4</c></rc>
    <rc><c>Mo</c><c>   4</c></rc>
    <rc><c>Mo</c><c>   4</c></rc>
    <rc><c>Mo</c><c>   4</c></rc>
    <rc><c>Mo</c><c>   4</c></rc>
    <rc><c>Mo</c><c>   4</c></rc>
    <rc><c>Mo</c><c>   4</c></rc>
    <rc><c>Mo</c><c>   4</c></rc>
    <rc><c>Mo</c><c>   4</c></rc>
    <rc><c>Mo</c><c>   4</c></rc>
    <rc><c>Mo</c><c>   4</c></rc>
    <rc><c>Mo</c><c>   4</c></rc>
    <rc><c>Mo</c><c>   4</c></rc>
    <rc><c>Mo</c><c>   4</c></rc>
    <rc><c>Mo</c><c>   4</c></rc>
    <rc><c>Mo</c><c>   4</c></rc>
    <rc><c>Mo</c><c>   4</c></rc>
    <rc><c>Mo</c><c>   4</c></rc>
    <rc><c>Mo</c><c>   4</c></rc>
    <rc><c>Mo</c><c>   4</c></rc>
    <rc><c>Mo</c><c>   4</c></rc>
    <rc><c>Mo</c><c>   4</c></rc>
    <rc><c>Mo</c><c>   4</c></rc>
    <rc><c>Mo</c><c>   4</c></rc>
    <rc><c>Mo</c><c>   4</c></rc>
    <rc><c>Mo</c><c>   4</c></rc>
    <rc><c>Mo</c><c>   4</c></rc>
    <rc><c>Mo</c><c>   4</c></rc>
    <rc><c>Mo</c><c>   4</c></rc>
    <rc><c>Mo</c><c>   4</c></rc>
    <rc><c>Mo</c><c>   4</c></rc>
    <rc><c>Mo</c><c>   4</c></rc>
    <rc><c>Mo</c><c>   4</c></rc>
    <rc><c>Mo</c><c>   4</c></rc>
    <rc><c>Mo</c><c>   4</c></rc>
    <rc><c>Mo</c><c>   4</c></rc>
    <rc><c>S </c><c>   5</c></rc>
    <rc><c>S </c><c>   5</c></rc>
    <rc><c>S </c><c>   5</c></rc>
    <rc><c>S </c><c>   5</c></rc>
    <rc><c>S </c><c>   5</c></rc>
    <rc><c>S </c><c>   5</c></rc>
    <rc><c>S </c><c>   5</c></rc>
    <rc><c>S </c><c>   5</c></rc>
    <rc><c>S </c><c>   5</c></rc>
    <rc><c>S </c><c>   5</c></rc>
    <rc><c>S </c><c>   5</c></rc>
    <rc><c>S </c><c>   5</c></rc>
    <rc><c>S </c><c>   5</c></rc>
    <rc><c>S </c><c>   5</c></rc>
    <rc><c>S </c><c>   5</c></rc>
    <rc><c>S </c><c>   5</c></rc>
    <rc><c>S </c><c>   5</c></rc>
    <rc><c>S </c><c>   5</c></rc>
    <rc><c>S </c><c>   5</c></rc>
    <rc><c>S </c><c>   5</c></rc>
    <rc><c>S </c><c>   5</c></rc>
    <rc><c>S </c><c>   5</c></rc>
    <rc><c>S </c><c>   5</c></rc>
    <rc><c>S </c><c>   5</c></rc>
    <rc><c>S </c><c>   5</c></rc>
    <rc><c>S </c><c>   5</c></rc>
    <rc><c>S </c><c>   5</c></rc>
    <rc><c>S </c><c>   5</c></rc>
    <rc><c>S </c><c>   5</c></rc>
    <rc><c>S </c><c>   5</c></rc>
    <rc><c>S </c><c>   5</c></rc>
    <rc><c>S </c><c>   5</c></rc>
    <rc><c>S </c><c>   5</c></rc>
    <rc><c>S </c><c>   5</c></rc>
    <rc><c>S </c><c>   5</c></rc>
    <rc><c>S </c><c>   5</c></rc>
    <rc><c>S </c><c>   5</c></rc>
    <rc><c>S </c><c>   5</c></rc>
    <rc><c>S </c><c>   5</c></rc>
    <rc><c>S </c><c>   5</c></rc>
    <rc><c>S </c><c>   5</c></rc>
    <rc><c>S </c><c>   5</c></rc>
    <rc><c>S </c><c>   5</c></rc>
    <rc><c>S </c><c>   5</c></rc>
    <rc><c>S </c><c>   5</c></rc>
    <rc><c>S </c><c>   5</c></rc>
    <rc><c>S </c><c>   5</c></rc>
    <rc><c>S </c><c>   5</c></rc>
    <rc><c>S </c><c>   5</c></rc>
    <rc><c>S </c><c>   5</c></rc>
    <rc><c>S </c><c>   5</c></rc>
    <rc><c>S </c><c>   5</c></rc>
    <rc><c>S </c><c>   5</c></rc>
    <rc><c>S </c><c>   5</c></rc>
    <rc><c>S </c><c>   5</c></rc>
    <rc><c>S </c><c>   5</c></rc>
    <rc><c>S </c><c>   5</c></rc>
    <rc><c>S </c><c>   5</c></rc>
    <rc><c>S </c><c>   5</c></rc>
    <rc><c>S </c><c>   5</c></rc>
    <rc><c>S </c><c>   5</c></rc>
    <rc><c>S </c><c>   5</c></rc>
    <rc><c>S </c><c>   5</c></rc>
    <rc><c>S </c><c>   5</c></rc>
    <rc><c>S </c><c>   5</c></rc>
    <rc><c>S </c><c>   5</c></rc>
    <rc><c>S </c><c>   5</c></rc>
    <rc><c>S </c><c>   5</c></rc>
    <rc><c>S </c><c>   5</c></rc>
    <rc><c>S </c><c>   5</c></rc>
    <rc><c>S </c><c>   5</c></rc>
    <rc><c>S </c><c>   5</c></rc>
    <rc><c>S </c><c>   5</c></rc>
    <rc><c>S </c><c>   5</c></rc>
    <rc><c>S </c><c>   5</c></rc>
    <rc><c>S </c><c>   5</c></rc>
    <rc><c>S </c><c>   5</c></rc>
    <rc><c>S </c><c>   5</c></rc>
    <rc><c>S </c><c>   5</c></rc>
    <rc><c>S </c><c>   5</c></rc>
    <rc><c>S </c><c>   5</c></rc>
    <rc><c>S </c><c>   5</c></rc>
    <rc><c>S </c><c>   5</c></rc>
    <rc><c>S </c><c>   5</c></rc>
    <rc><c>S </c><c>   5</c></rc>
    <rc><c>S </c><c>   5</c></rc>
    <rc><c>S </c><c>   5</c></rc>
    <rc><c>S </c><c>   5</c></rc>
    <rc><c>S </c><c>   5</c></rc>
    <rc><c>S </c><c>   5</c></rc>
    <rc><c>S </c><c>   5</c></rc>
    <rc><c>S </c><c>   5</c></rc>
    <rc><c>S </c><c>   5</c></rc>
    <rc><c>S </c><c>   5</c></rc>
    <rc><c>S </c><c>   5</c></rc>
    <rc><c>S </c><c>   5</c></rc>
    <rc><c>S </c><c>   5</c></rc>
    <rc><c>S </c><c>   5</c></rc>
    <rc><c>S </c><c>   5</c></rc>
    <rc><c>S </c><c>   5</c></rc>
   </set>
  </array>
  <array name="atomtypes" >
   <dimension dim="1">type</dimension>
   <field type="int">atomspertype</field>
   <field type="string">element</field>
   <field>mass</field>
   <field>valence</field>
   <field type="string">pseudopotential</field>
   <set>
    <rc><c>  10</c><c>C </c><c>     12.01100000</c><c>      4.00000000</c><c>  PAW_PBE C 08Apr2002                   </c></rc>
    <rc><c>   1</c><c>Cr</c><c>     51.99600000</c><c>      6.00000000</c><c>  PAW_PBE Cr 06Sep2000                  </c></rc>
    <rc><c>  10</c><c>H </c><c>      1.00000000</c><c>      1.00000000</c><c>  PAW_PBE H 15Jun2001                   </c></rc>
    <rc><c>  50</c><c>Mo</c><c>     95.94000000</c><c>      6.00000000</c><c>  PAW_PBE Mo 08Apr2002                  </c></rc>
    <rc><c> 100</c><c>S </c><c>     32.06600000</c><c>      6.00000000</c><c>  PAW_PBE S 06Sep2000                   </c></rc>
   </set>
  </array>
 </atominfo>
 <structure name="initialpos" >
  <crystal>
   <varray name="basis" >
    <v>      15.90000000       0.00000000       0.00000000 </v>
    <v>      -7.95000000      13.76980392       0.00000000 </v>
    <v>       0.00000000       0.00000000      32.38000000 </v>
   </varray>
   <i name="volume">   7089.27338987 </i>
   <varray name="rec_basis" >
    <v>       0.06289308       0.03631134       0.00000000 </v>
    <v>       0.00000000       0.07262268       0.00000000 </v>
    <v>       0.00000000       0.00000000       0.03088326 </v>
   </varray>
  </crystal>
  <varray name="positions" >
   <v>       0.52003121       0.37396380       0.48532528 </v>
   <v>       0.44363843       0.38362772       0.50326952 </v>
   <v>       0.58932943       0.46527801       0.46802197 </v>
   <v>       0.55582458       0.53304381       0.47541048 </v>
   <v>       0.46473572       0.48164297       0.49735635 </v>
   <v>       0.33252696       0.31675404       0.40413038 </v>
   <v>       0.40684049       0.48182840       0.38947172 </v>
   <v>       0.32568770       0.40314725       0.41027673 </v>
   <v>       0.46248226       0.44443262       0.37068421 </v>
   <v>       0.41751787       0.34342146       0.37964208 </v>
   <v>       0.45287134       0.42148434       0.43806987 </v>
   <v>       0.42074045       0.51207423       0.50807236 </v>
   <v>       0.26823283       0.40747074       0.42661450 </v>
   <v>       0.28146930       0.24414001       0.41517184 </v>
   <v>       0.42380718       0.55708196       0.38870502 </v>
   <v>       0.53072656       0.48703169       0.35424384 </v>
   <v>       0.37864620       0.32558746       0.51766025 </v>
   <v>       0.52260724       0.30697148       0.48334929 </v>
   <v>       0.65542109       0.48048944       0.45184509 </v>
   <v>       0.59379136       0.60958548       0.46715954 </v>
   <v>       0.44465537       0.29552448       0.37041305 </v>
   <v>       0.60000000       0.60000000       0.65735022 </v>
   <v>       0.20000000       0.80000000       0.21911674 </v>
   <v>       0.20000000       0.60000000       0.65735022 </v>
   <v>       0.60000000       0.80000000       0.21911674 </v>
   <v>       0.20000000       0.60000000       0.21911674 </v>
   <v>       0.60000000       0.80000000       0.65735022 </v>
   <v>       0.20000000       0.40000000       0.21911674 </v>
   <v>       0.80000000       0.00000000       0.21911674 </v>
   <v>       0.20000000       0.20000000       0.65735022 </v>
   <v>       0.80000000       0.00000000       0.65735022 </v>
   <v>       0.20000000       0.20000000       0.21911674 </v>
   <v>       0.20000000       0.80000000       0.65735022 </v>
   <v>       0.20000000       0.40000000       0.65735022 </v>
   <v>       0.60000000       0.60000000       0.21911674 </v>
   <v>       0.40000000       0.60000000       0.21911674 </v>
   <v>       0.40000000       0.00000000       0.65735022 </v>
   <v>       0.60000000       0.40000000       0.65735022 </v>
   <v>       0.40000000       0.20000000       0.21911674 </v>
   <v>       0.60000000       0.40000000       0.21911674 </v>
   <v>       0.40000000       0.20000000       0.65735022 </v>
   <v>       0.40000000       0.40000000       0.21911674 </v>
   <v>       0.60000000       0.20000000       0.65735022 </v>
   <v>       0.40000000       0.40000000       0.65735022 </v>
   <v>       0.60000000       0.20000000       0.21911674 </v>
   <v>       0.40000000       0.80000000       0.65735022 </v>
   <v>       0.40000000       0.60000000       0.65735022 </v>
   <v>       0.60000000       0.00000000       0.65735022 </v>
   <v>       0.40000000       0.80000000       0.21911674 </v>
   <v>       0.60000000       0.00000000       0.21911674 </v>
   <v>       0.40000000       0.00000000       0.21911674 </v>
   <v>       0.80000000       0.20000000       0.21911674 </v>
   <v>       0.20000000       0.00000000       0.65735022 </v>
   <v>       0.20000000       0.00000000       0.21911674 </v>
   <v>       0.00000000       0.00000000       0.21911674 </v>
   <v>       0.80000000       0.80000000       0.65735022 </v>
   <v>       0.00000000       0.00000000       0.65735022 </v>
   <v>       0.80000000       0.80000000       0.21911674 </v>
   <v>       0.00000000       0.20000000       0.21911674 </v>
   <v>       0.00000000       0.20000000       0.65735022 </v>
   <v>       0.80000000       0.60000000       0.65735022 </v>
   <v>       0.00000000       0.40000000       0.21911674 </v>
   <v>       0.00000000       0.40000000       0.65735022 </v>
   <v>       0.00000000       0.60000000       0.21911674 </v>
   <v>       0.80000000       0.40000000       0.65735022 </v>
   <v>       0.00000000       0.60000000       0.65735022 </v>
   <v>       0.80000000       0.60000000       0.21911674 </v>
   <v>       0.80000000       0.40000000       0.21911674 </v>
   <v>       0.00000000       0.80000000       0.65735022 </v>
   <v>       0.00000000       0.80000000       0.21911674 </v>
   <v>       0.80000000       0.20000000       0.65735022 </v>
   <v>       0.93333333       0.06666667       0.16985794 </v>
   <v>       0.73333333       0.26666667       0.60809141 </v>
   <v>       0.73333333       0.26666667       0.70660902 </v>
   <v>       0.93333333       0.66666667       0.70660902 </v>
   <v>       0.93333333       0.66666667       0.60809141 </v>
   <v>       0.73333333       0.26666667       0.16985794 </v>
   <v>       0.73333333       0.26666667       0.26837554 </v>
   <v>       0.93333333       0.46666667       0.26837554 </v>
   <v>       0.73333333       0.06666667       0.60809141 </v>
   <v>       0.73333333       0.06666667       0.70660902 </v>
   <v>       0.93333333       0.06666667       0.70660902 </v>
   <v>       0.93333333       0.86666667       0.16985794 </v>
   <v>       0.73333333       0.06666667       0.16985794 </v>
   <v>       0.93333333       0.06666667       0.60809141 </v>
   <v>       0.73333333       0.06666667       0.26837554 </v>
   <v>       0.93333333       0.26666667       0.16985794 </v>
   <v>       0.93333333       0.26666667       0.70660902 </v>
   <v>       0.93333333       0.86666667       0.26837554 </v>
   <v>       0.73333333       0.46666667       0.26837554 </v>
   <v>       0.73333333       0.46666667       0.16985794 </v>
   <v>       0.73333333       0.86666667       0.16985794 </v>
   <v>       0.73333333       0.86666667       0.70660902 </v>
   <v>       0.73333333       0.86666667       0.26837554 </v>
   <v>       0.93333333       0.46666667       0.16985794 </v>
   <v>       0.73333333       0.86666667       0.60809141 </v>
   <v>       0.73333333       0.66666667       0.60809141 </v>
   <v>       0.73333333       0.66666667       0.70660902 </v>
   <v>       0.93333333       0.46666667       0.70660902 </v>
   <v>       0.73333333       0.66666667       0.16985794 </v>
   <v>       0.93333333       0.46666667       0.60809141 </v>
   <v>       0.73333333       0.66666667       0.26837554 </v>
   <v>       0.93333333       0.26666667       0.60809141 </v>
   <v>       0.93333333       0.26666667       0.26837554 </v>
   <v>       0.73333333       0.46666667       0.60809141 </v>
   <v>       0.73333333       0.46666667       0.70660902 </v>
   <v>       0.93333333       0.66666667       0.26837554 </v>
   <v>       0.93333333       0.06666667       0.26837554 </v>
   <v>       0.93333333       0.66666667       0.16985794 </v>
   <v>       0.53333333       0.86666667       0.60809141 </v>
   <v>       0.53333333       0.06666667       0.70660902 </v>
   <v>       0.53333333       0.86666667       0.16985794 </v>
   <v>       0.33333333       0.26666667       0.16985794 </v>
   <v>       0.33333333       0.26666667       0.26837554 </v>
   <v>       0.33333333       0.06666667       0.60809141 </v>
   <v>       0.33333333       0.06666667       0.70660902 </v>
   <v>       0.33333333       0.06666667       0.16985794 </v>
   <v>       0.33333333       0.06666667       0.26837554 </v>
   <v>       0.13333333       0.86666667       0.60809141 </v>
   <v>       0.13333333       0.86666667       0.70660902 </v>
   <v>       0.13333333       0.86666667       0.16985794 </v>
   <v>       0.13333333       0.86666667       0.26837554 </v>
   <v>       0.13333333       0.66666667       0.60809141 </v>
   <v>       0.13333333       0.66666667       0.70660902 </v>
   <v>       0.33333333       0.26666667       0.70660902 </v>
   <v>       0.13333333       0.66666667       0.16985794 </v>
   <v>       0.13333333       0.46666667       0.60809141 </v>
   <v>       0.13333333       0.46666667       0.70660902 </v>
   <v>       0.13333333       0.46666667       0.16985794 </v>
   <v>       0.13333333       0.46666667       0.26837554 </v>
   <v>       0.13333333       0.26666667       0.60809141 </v>
   <v>       0.13333333       0.26666667       0.70660902 </v>
   <v>       0.13333333       0.26666667       0.16985794 </v>
   <v>       0.13333333       0.26666667       0.26837554 </v>
   <v>       0.13333333       0.06666667       0.60809141 </v>
   <v>       0.13333333       0.06666667       0.70660902 </v>
   <v>       0.13333333       0.06666667       0.16985794 </v>
   <v>       0.13333333       0.06666667       0.26837554 </v>
   <v>       0.13333333       0.66666667       0.26837554 </v>
   <v>       0.33333333       0.26666667       0.60809141 </v>
   <v>       0.33333333       0.46666667       0.26837554 </v>
   <v>       0.33333333       0.46666667       0.16985794 </v>
   <v>       0.53333333       0.86666667       0.26837554 </v>
   <v>       0.53333333       0.66666667       0.60809141 </v>
   <v>       0.53333333       0.66666667       0.70660902 </v>
   <v>       0.53333333       0.66666667       0.16985794 </v>
   <v>       0.53333333       0.66666667       0.26837554 </v>
   <v>       0.53333333       0.46666667       0.60809141 </v>
   <v>       0.53333333       0.46666667       0.70660902 </v>
   <v>       0.53333333       0.46666667       0.16985794 </v>
   <v>       0.53333333       0.46666667       0.26837554 </v>
   <v>       0.53333333       0.26666667       0.60809141 </v>
   <v>       0.53333333       0.26666667       0.70660902 </v>
   <v>       0.53333333       0.26666667       0.16985794 </v>
   <v>       0.53333333       0.26666667       0.26837554 </v>
   <v>       0.53333333       0.06666667       0.60809141 </v>
   <v>       0.93333333       0.86666667       0.70660902 </v>
   <v>       0.53333333       0.06666667       0.16985794 </v>
   <v>       0.53333333       0.06666667       0.26837554 </v>
   <v>       0.33333333       0.86666667       0.60809141 </v>
   <v>       0.33333333       0.86666667       0.70660902 </v>
   <v>       0.33333333       0.86666667       0.16985794 </v>
   <v>       0.33333333       0.86666667       0.26837554 </v>
   <v>       0.33333333       0.66666667       0.60809141 </v>
   <v>       0.33333333       0.66666667       0.70660902 </v>
   <v>       0.33333333       0.66666667       0.16985794 </v>
   <v>       0.33333333       0.66666667       0.26837554 </v>
   <v>       0.33333333       0.46666667       0.60809141 </v>
   <v>       0.33333333       0.46666667       0.70660902 </v>
   <v>       0.53333333       0.86666667       0.70660902 </v>
   <v>       0.93333333       0.86666667       0.60809141 </v>
  </varray>
  <varray name="selective"  type="logical" >
   <v type="logical" >  T  T  F </v>
   <v type="logical" >  T  T  F </v>
   <v type="logical" >  T  T  F </v>
   <v type="logical" >  T  T  F </v>
   <v type="logical" >  T  T  F </v>
   <v type="logical" >  T  T  F </v>
   <v type="logical" >  T  T  F </v>
   <v type="logical" >  T  T  F </v>
   <v type="logical" >  T  T  F </v>
   <v type="logical" >  T  T  F </v>
   <v type="logical" >  T  T  F </v>
   <v type="logical" >  T  T  F </v>
   <v type="logical" >  T  T  F </v>
   <v type="logical" >  T  T  F </v>
   <v type="logical" >  T  T  F </v>
   <v type="logical" >  T  T  F </v>
   <v type="logical" >  T  T  F </v>
   <v type="logical" >  T  T  F </v>
   <v type="logical" >  T  T  F </v>
   <v type="logical" >  T  T  F </v>
   <v type="logical" >  T  T  F </v>
   <v type="logical" >  T  T  F </v>
   <v type="logical" >  F  F  F </v>
   <v type="logical" >  T  T  F </v>
   <v type="logical" >  F  F  F </v>
   <v type="logical" >  F  F  F </v>
   <v type="logical" >  T  T  F </v>
   <v type="logical" >  F  F  F </v>
   <v type="logical" >  F  F  F </v>
   <v type="logical" >  T  T  F </v>
   <v type="logical" >  T  T  F </v>
   <v type="logical" >  F  F  F </v>
   <v type="logical" >  T  T  F </v>
   <v type="logical" >  T  T  F </v>
   <v type="logical" >  F  F  F </v>
   <v type="logical" >  F  F  F </v>
   <v type="logical" >  T  T  F </v>
   <v type="logical" >  T  T  F </v>
   <v type="logical" >  F  F  F </v>
   <v type="logical" >  F  F  F </v>
   <v type="logical" >  T  T  F </v>
   <v type="logical" >  F  F  F </v>
   <v type="logical" >  T  T  F </v>
   <v type="logical" >  T  T  F </v>
   <v type="logical" >  F  F  F </v>
   <v type="logical" >  T  T  F </v>
   <v type="logical" >  T  T  F </v>
   <v type="logical" >  T  T  F </v>
   <v type="logical" >  F  F  F </v>
   <v type="logical" >  F  F  F </v>
   <v type="logical" >  F  F  F </v>
   <v type="logical" >  F  F  F </v>
   <v type="logical" >  T  T  F </v>
   <v type="logical" >  F  F  F </v>
   <v type="logical" >  F  F  F </v>
   <v type="logical" >  T  T  F </v>
   <v type="logical" >  T  T  F </v>
   <v type="logical" >  F  F  F </v>
   <v type="logical" >  F  F  F </v>
   <v type="logical" >  T  T  F </v>
   <v type="logical" >  T  T  F </v>
   <v type="logical" >  F  F  F </v>
   <v type="logical" >  T  T  F </v>
   <v type="logical" >  F  F  F </v>
   <v type="logical" >  T  T  F </v>
   <v type="logical" >  T  T  F </v>
   <v type="logical" >  F  F  F </v>
   <v type="logical" >  F  F  F </v>
   <v type="logical" >  T  T  F </v>
   <v type="logical" >  F  F  F </v>
   <v type="logical" >  T  T  F </v>
   <v type="logical" >  F  F  F </v>
   <v type="logical" >  T  T  F </v>
   <v type="logical" >  T  T  F </v>
   <v type="logical" >  T  T  F </v>
   <v type="logical" >  T  T  F </v>
   <v type="logical" >  F  F  F </v>
   <v type="logical" >  F  F  F </v>
   <v type="logical" >  F  F  F </v>
   <v type="logical" >  T  T  F </v>
   <v type="logical" >  T  T  F </v>
   <v type="logical" >  T  T  F </v>
   <v type="logical" >  F  F  F </v>
   <v type="logical" >  F  F  F </v>
   <v type="logical" >  T  T  F </v>
   <v type="logical" >  F  F  F </v>
   <v type="logical" >  F  F  F </v>
   <v type="logical" >  T  T  F </v>
   <v type="logical" >  F  F  F </v>
   <v type="logical" >  F  F  F </v>
   <v type="logical" >  F  F  F </v>
   <v type="logical" >  F  F  F </v>
   <v type="logical" >  T  T  F </v>
   <v type="logical" >  F  F  F </v>
   <v type="logical" >  F  F  F </v>
   <v type="logical" >  T  T  F </v>
   <v type="logical" >  T  T  F </v>
   <v type="logical" >  T  T  F </v>
   <v type="logical" >  T  T  F </v>
   <v type="logical" >  F  F  F </v>
   <v type="logical" >  T  T  F </v>
   <v type="logical" >  F  F  F </v>
   <v type="logical" >  T  T  F </v>
   <v type="logical" >  F  F  F </v>
   <v type="logical" >  T  T  F </v>
   <v type="logical" >  T  T  F </v>
   <v type="logical" >  F  F  F </v>
   <v type="logical" >  F  F  F </v>
   <v type="logical" >  F  F  F </v>
   <v type="logical" >  T  T  F </v>
   <v type="logical" >  T  T  F </v>
   <v type="logical" >  F  F  F </v>
   <v type="logical" >  F  F  F </v>
   <v type="logical" >  F  F  F </v>
   <v type="logical" >  T  T  F </v>
   <v type="logical" >  T  T  F </v>
   <v type="logical" >  F  F  F </v>
   <v type="logical" >  F  F  F </v>
   <v type="logical" >  T  T  F </v>
   <v type="logical" >  T  T  F </v>
   <v type="logical" >  F  F  F </v>
   <v type="logical" >  F  F  F </v>
   <v type="logical" >  T  T  F </v>
   <v type="logical" >  T  T  F </v>
   <v type="logical" >  T  T  F </v>
   <v type="logical" >  F  F  F </v>
   <v type="logical" >  T  T  F </v>
   <v type="logical" >  T  T  F </v>
   <v type="logical" >  F  F  F </v>
   <v type="logical" >  F  F  F </v>
   <v type="logical" >  T  T  F </v>
   <v type="logical" >  T  T  F </v>
   <v type="logical" >  F  F  F </v>
   <v type="logical" >  F  F  F </v>
   <v type="logical" >  T  T  F </v>
   <v type="logical" >  T  T  F </v>
   <v type="logical" >  F  F  F </v>
   <v type="logical" >  F  F  F </v>
   <v type="logical" >  F  F  F </v>
   <v type="logical" >  T  T  F </v>
   <v type="logical" >  F  F  F </v>
   <v type="logical" >  F  F  F </v>
   <v type="logical" >  F  F  F </v>
   <v type="logical" >  T  T  F </v>
   <v type="logical" >  T  T  F </v>
   <v type="logical" >  F  F  F </v>
   <v type="logical" >  F  F  F </v>
   <v type="logical" >  T  T  F </v>
   <v type="logical" >  T  T  F </v>
   <v type="logical" >  F  F  F </v>
   <v type="logical" >  F  F  F </v>
   <v type="logical" >  T  T  F </v>
   <v type="logical" >  T  T  F </v>
   <v type="logical" >  F  F  F </v>
   <v type="logical" >  F  F  F </v>
   <v type="logical" >  T  T  F </v>
   <v type="logical" >  T  T  F </v>
   <v type="logical" >  F  F  F </v>
   <v type="logical" >  F  F  F </v>
   <v type="logical" >  T  T  F </v>
   <v type="logical" >  T  T  F </v>
   <v type="logical" >  F  F  F </v>
   <v type="logical" >  F  F  F </v>
   <v type="logical" >  T  T  F </v>
   <v type="logical" >  T  T  F </v>
   <v type="logical" >  F  F  F </v>
   <v type="logical" >  F  F  F </v>
   <v type="logical" >  T  T  F </v>
   <v type="logical" >  T  T  F </v>
   <v type="logical" >  T  T  F </v>
   <v type="logical" >  T  T  F </v>
  </varray>
  <nose>
   <v>      -3.00000000       0.00000000       0.00010000       0.00010000 </v>
  </nose>
 </structure>
 <calculation>
  <scstep>
   <time name="dav">   11.26   11.40</time>
   <time name="total">   11.66   12.11</time>
   <energy>
    <i name="alphaZ">   1150.89500911 </i>
    <i name="ewald">  87713.57664741 </i>
    <i name="hartreedc">-125686.87563816 </i>
    <i name="XCdc">  -1684.36829652 </i>
    <i name="pawpsdc">  36411.78182824 </i>
    <i name="pawaedc"> -32520.45026120 </i>
    <i name="eentropy">     -0.34606937 </i>
    <i name="bandstr">   1835.56241912 </i>
    <i name="atom">  40430.53995508 </i>
    <i name="e_fr_energy">   7650.31559371 </i>
    <i name="e_wo_entrp">   7650.66166308 </i>
    <i name="e_0_energy">   7650.48862839 </i>
   </energy>
  </scstep>
  <scstep>
   <time name="dav">   13.39   13.59</time>
   <time name="total">   13.39   13.59</time>
   <energy>
    <i name="e_fr_energy">   -254.42050723 </i>
    <i name="e_wo_entrp">   -254.33193556 </i>
    <i name="e_0_energy">   -254.37622140 </i>
   </energy>
  </scstep>
  <scstep>
   <time name="dav">   12.35   13.39</time>
   <time name="total">   12.35   13.39</time>
   <energy>
    <i name="e_fr_energy">  -1262.18840049 </i>
    <i name="e_wo_entrp">  -1262.18840036 </i>
    <i name="e_0_energy">  -1262.18840042 </i>
   </energy>
  </scstep>
  <scstep>
   <time name="dav">   15.95   17.05</time>
   <time name="total">   15.95   17.05</time>
   <energy>
    <i name="e_fr_energy">  -1320.93663706 </i>
    <i name="e_wo_entrp">  -1320.93663706 </i>
    <i name="e_0_energy">  -1320.93663706 </i>
   </energy>
  </scstep>
  <scstep>
   <time name="dav">   14.37   14.94</time>
   <time name="total">   15.41   15.99</time>
   <energy>
    <i name="e_fr_energy">  -1323.06124797 </i>
    <i name="e_wo_entrp">  -1323.06124797 </i>
    <i name="e_0_energy">  -1323.06124797 </i>
   </energy>
  </scstep>
  <scstep>
   <time name="dav">   13.60   13.70</time>
   <time name="total">   15.04   15.21</time>
   <energy>
    <i name="e_fr_energy">  -1275.78938642 </i>
    <i name="e_wo_entrp">  -1275.64273329 </i>
    <i name="e_0_energy">  -1275.71605985 </i>
   </energy>
  </scstep>
  <scstep>
   <time name="dav">   14.62   14.74</time>
   <time name="total">   16.19   17.39</time>
   <energy>
    <i name="e_fr_energy">  -1296.35229088 </i>
    <i name="e_wo_entrp">  -1296.00506698 </i>
    <i name="e_0_energy">  -1296.17867893 </i>
   </energy>
  </scstep>
  <scstep>
   <time name="dav">   12.64   12.75</time>
   <time name="total">   14.14   14.26</time>
   <energy>
    <i name="e_fr_energy">  -1233.04096441 </i>
    <i name="e_wo_entrp">  -1232.71219997 </i>
    <i name="e_0_energy">  -1232.87658219 </i>
   </energy>
  </scstep>
  <scstep>
   <time name="dav">   15.03   15.23</time>
   <time name="total">   16.86   19.31</time>
   <energy>
    <i name="e_fr_energy">  -1244.77417588 </i>
    <i name="e_wo_entrp">  -1244.77417588 </i>
    <i name="e_0_energy">  -1244.77417588 </i>
   </energy>
  </scstep>
  <scstep>
   <time name="dav">   14.65   14.77</time>
   <time name="total">   16.09   16.70</time>
   <energy>
    <i name="e_fr_energy">  -1211.68178708 </i>
    <i name="e_wo_entrp">  -1211.68178708 </i>
    <i name="e_0_energy">  -1211.68178708 </i>
   </energy>
  </scstep>
  <scstep>
   <time name="dav">   14.54   14.66</time>
   <time name="total">   16.07   16.34</time>
   <energy>
    <i name="e_fr_energy">  -1224.85835278 </i>
    <i name="e_wo_entrp">  -1224.64523641 </i>
    <i name="e_0_energy">  -1224.75179459 </i>
   </energy>
  </scstep>
  <scstep>
   <time name="dav">   13.00   13.11</time>
   <time name="total">   14.46   14.58</time>
   <energy>
    <i name="e_fr_energy">  -1224.26079968 </i>
    <i name="e_wo_entrp">  -1224.23623399 </i>
    <i name="e_0_energy">  -1224.24851683 </i>
   </energy>
  </scstep>
  <scstep>
   <time name="dav">   14.19   14.30</time>
   <time name="total">   15.82   16.61</time>
   <energy>
    <i name="e_fr_energy">  -1223.84781564 </i>
    <i name="e_wo_entrp">  -1223.74677272 </i>
    <i name="e_0_energy">  -1223.79729418 </i>
   </energy>
  </scstep>
  <scstep>
   <time name="dav">   14.20   14.32</time>
   <time name="total">   15.77   16.43</time>
   <energy>
    <i name="e_fr_energy">  -1223.08434942 </i>
    <i name="e_wo_entrp">  -1222.97924278 </i>
    <i name="e_0_energy">  -1223.03179610 </i>
   </energy>
  </scstep>
  <scstep>
   <time name="dav">   14.32   14.43</time>
   <time name="total">   15.77   15.99</time>
   <energy>
    <i name="e_fr_energy">  -1223.44470593 </i>
    <i name="e_wo_entrp">  -1223.33596238 </i>
    <i name="e_0_energy">  -1223.39033416 </i>
   </energy>
  </scstep>
  <scstep>
   <time name="dav">   12.97   13.07</time>
   <time name="total">   14.41   14.52</time>
   <energy>
    <i name="e_fr_energy">  -1223.56115460 </i>
    <i name="e_wo_entrp">  -1223.44879984 </i>
    <i name="e_0_energy">  -1223.50497722 </i>
   </energy>
  </scstep>
  <scstep>
   <time name="dav">   13.57   13.72</time>
   <time name="total">   15.10   16.18</time>
   <energy>
    <i name="e_fr_energy">  -1224.35499367 </i>
    <i name="e_wo_entrp">  -1224.14165896 </i>
    <i name="e_0_energy">  -1224.24832632 </i>
   </energy>
  </scstep>
  <scstep>
   <time name="dav">   13.88   14.00</time>
   <time name="total">   15.56   16.06</time>
   <energy>
    <i name="e_fr_energy">  -1223.40789416 </i>
    <i name="e_wo_entrp">  -1223.33002374 </i>
    <i name="e_0_energy">  -1223.36895895 </i>
   </energy>
  </scstep>
  <scstep>
   <time name="dav">   14.27   14.38</time>
   <time name="total">   15.72   16.26</time>
   <energy>
    <i name="e_fr_energy">  -1224.21590338 </i>
    <i name="e_wo_entrp">  -1223.99999038 </i>
    <i name="e_0_energy">  -1224.10794688 </i>
   </energy>
  </scstep>
  <scstep>
   <time name="dav">   14.03   14.14</time>
   <time name="total">   15.48   15.60</time>
   <energy>
    <i name="e_fr_energy">  -1223.57243206 </i>
    <i name="e_wo_entrp">  -1223.35550772 </i>
    <i name="e_0_energy">  -1223.46396989 </i>
   </energy>
  </scstep>
  <scstep>
   <time name="dav">   14.66   14.81</time>
   <time name="total">   16.35   18.39</time>
   <energy>
    <i name="e_fr_energy">  -1223.21376084 </i>
    <i name="e_wo_entrp">  -1223.10179333 </i>
    <i name="e_0_energy">  -1223.15777708 </i>
   </energy>
  </scstep>
  <scstep>
   <time name="dav">   13.87   13.98</time>
   <time name="total">   15.34   16.22</time>
   <energy>
    <i name="e_fr_energy">  -1223.22977222 </i>
    <i name="e_wo_entrp">  -1223.12682357 </i>
    <i name="e_0_energy">  -1223.17829790 </i>
   </energy>
  </scstep>
  <scstep>
   <time name="dav">   14.19   14.33</time>
   <time name="total">   15.89   18.29</time>
   <energy>
    <i name="e_fr_energy">  -1223.25156872 </i>
    <i name="e_wo_entrp">  -1223.13267846 </i>
    <i name="e_0_energy">  -1223.19212359 </i>
   </energy>
  </scstep>
  <scstep>
   <time name="dav">   14.37   14.50</time>
   <time name="total">   15.82   15.96</time>
   <energy>
    <i name="e_fr_energy">  -1223.31652175 </i>
    <i name="e_wo_entrp">  -1223.16824812 </i>
    <i name="e_0_energy">  -1223.24238494 </i>
   </energy>
  </scstep>
  <scstep>
   <time name="dav">   14.57   14.69</time>
   <time name="total">   16.02   16.23</time>
   <energy>
    <i name="e_fr_energy">  -1223.21854221 </i>
    <i name="e_wo_entrp">  -1223.10606596 </i>
    <i name="e_0_energy">  -1223.16230408 </i>
   </energy>
  </scstep>
  <scstep>
   <time name="dav">   13.71   13.82</time>
   <time name="total">   15.16   15.52</time>
   <energy>
    <i name="e_fr_energy">  -1223.20927266 </i>
    <i name="e_wo_entrp">  -1223.10671558 </i>
    <i name="e_0_energy">  -1223.15799412 </i>
   </energy>
  </scstep>
  <scstep>
   <time name="dav">   14.77   14.90</time>
   <time name="total">   16.30   17.72</time>
   <energy>
    <i name="e_fr_energy">  -1223.17734007 </i>
    <i name="e_wo_entrp">  -1223.06447931 </i>
    <i name="e_0_energy">  -1223.12090969 </i>
   </energy>
  </scstep>
  <scstep>
   <time name="dav">   13.70   13.89</time>
   <time name="total">   15.18   15.38</time>
   <energy>
    <i name="e_fr_energy">  -1223.14591910 </i>
    <i name="e_wo_entrp">  -1223.03948624 </i>
    <i name="e_0_energy">  -1223.09270267 </i>
   </energy>
  </scstep>
  <scstep>
   <time name="dav">   13.67   13.78</time>
   <time name="total">   15.67   17.39</time>
   <energy>
    <i name="e_fr_energy">  -1223.10584114 </i>
    <i name="e_wo_entrp">  -1222.99277571 </i>
    <i name="e_0_energy">  -1223.04930843 </i>
   </energy>
  </scstep>
  <scstep>
   <time name="dav">   12.60   12.71</time>
   <time name="total">   14.16   14.53</time>
   <energy>
    <i name="e_fr_energy">  -1223.09279477 </i>
    <i name="e_wo_entrp">  -1222.98448342 </i>
    <i name="e_0_energy">  -1223.03863910 </i>
   </energy>
  </scstep>
  <scstep>
   <time name="dav">   12.36   12.47</time>
   <time name="total">   13.83   14.73</time>
   <energy>
    <i name="e_fr_energy">  -1223.06670935 </i>
    <i name="e_wo_entrp">  -1222.95434947 </i>
    <i name="e_0_energy">  -1223.01052941 </i>
   </energy>
  </scstep>
  <scstep>
   <time name="dav">   13.25   13.38</time>
   <time name="total">   14.73   14.88</time>
   <energy>
    <i name="e_fr_energy">  -1223.02865119 </i>
    <i name="e_wo_entrp">  -1222.91972287 </i>
    <i name="e_0_energy">  -1222.97418703 </i>
   </energy>
  </scstep>
  <scstep>
   <time name="dav">   14.21   14.32</time>
   <time name="total">   15.70   16.63</time>
   <energy>
    <i name="e_fr_energy">  -1222.96964832 </i>
    <i name="e_wo_entrp">  -1222.85830150 </i>
    <i name="e_0_energy">  -1222.91397491 </i>
   </energy>
  </scstep>
  <scstep>
   <time name="dav">   14.06   14.17</time>
   <time name="total">   15.79   16.42</time>
   <energy>
    <i name="e_fr_energy">  -1222.94675717 </i>
    <i name="e_wo_entrp">  -1222.83628036 </i>
    <i name="e_0_energy">  -1222.89151876 </i>
   </energy>
  </scstep>
  <scstep>
   <time name="dav">   12.98   13.08</time>
   <time name="total">   14.50   15.98</time>
   <energy>
    <i name="e_fr_energy">  -1222.91795080 </i>
    <i name="e_wo_entrp">  -1222.80644505 </i>
    <i name="e_0_energy">  -1222.86219792 </i>
   </energy>
  </scstep>
  <scstep>
   <time name="dav">   14.14   14.25</time>
   <time name="total">   15.86   17.00</time>
   <energy>
    <i name="e_fr_energy">  -1222.86301754 </i>
    <i name="e_wo_entrp">  -1222.75046933 </i>
    <i name="e_0_energy">  -1222.80674343 </i>
   </energy>
  </scstep>
  <scstep>
   <time name="dav">   13.93   14.05</time>
   <time name="total">   15.46   16.27</time>
   <energy>
    <i name="e_fr_energy">  -1222.81651628 </i>
    <i name="e_wo_entrp">  -1222.68628596 </i>
    <i name="e_0_energy">  -1222.75140112 </i>
   </energy>
  </scstep>
  <scstep>
   <time name="dav">   12.12   12.24</time>
   <time name="total">   13.66   14.30</time>
   <energy>
    <i name="e_fr_energy">  -1222.81806623 </i>
    <i name="e_wo_entrp">  -1222.68961100 </i>
    <i name="e_0_energy">  -1222.75383861 </i>
   </energy>
  </scstep>
  <scstep>
   <time name="dav">   12.01   12.12</time>
   <time name="total">   13.53   15.42</time>
   <energy>
    <i name="e_fr_energy">  -1222.81686161 </i>
    <i name="e_wo_entrp">  -1222.68516879 </i>
    <i name="e_0_energy">  -1222.75101520 </i>
   </energy>
  </scstep>
  <scstep>
   <time name="dav">    9.85    9.93</time>
   <time name="total">   11.40   11.49</time>
   <energy>
    <i name="e_fr_energy">  -1222.81652577 </i>
    <i name="e_wo_entrp">  -1222.68381860 </i>
    <i name="e_0_energy">  -1222.75017218 </i>
   </energy>
  </scstep>
  <scstep>
   <time name="dav">    9.40    9.48</time>
   <time name="total">   10.93   11.02</time>
   <energy>
    <i name="e_fr_energy">  -1222.81311450 </i>
    <i name="e_wo_entrp">  -1222.67717124 </i>
    <i name="e_0_energy">  -1222.74514287 </i>
   </energy>
  </scstep>
  <scstep>
   <time name="dav">    9.54    9.62</time>
   <time name="total">   11.08   12.13</time>
   <energy>
    <i name="e_fr_energy">  -1222.81567890 </i>
    <i name="e_wo_entrp">  -1222.68850850 </i>
    <i name="e_0_energy">  -1222.75209370 </i>
   </energy>
  </scstep>
  <scstep>
   <time name="dav">   11.24   11.33</time>
   <time name="total">   12.77   13.47</time>
   <energy>
    <i name="e_fr_energy">  -1222.81158583 </i>
    <i name="e_wo_entrp">  -1222.69062235 </i>
    <i name="e_0_energy">  -1222.75110409 </i>
   </energy>
  </scstep>
  <scstep>
   <time name="dav">   12.27   12.41</time>
   <time name="total">   14.03   14.84</time>
   <energy>
    <i name="e_fr_energy">  -1222.80247732 </i>
    <i name="e_wo_entrp">  -1222.67236206 </i>
    <i name="e_0_energy">  -1222.73741969 </i>
   </energy>
  </scstep>
  <scstep>
   <time name="dav">   12.46   12.57</time>
   <time name="total">   13.99   15.92</time>
   <energy>
    <i name="e_fr_energy">  -1222.79507014 </i>
    <i name="e_wo_entrp">  -1222.66225309 </i>
    <i name="e_0_energy">  -1222.72866162 </i>
   </energy>
  </scstep>
  <scstep>
   <time name="dav">   11.69   11.80</time>
   <time name="total">   13.22   13.34</time>
   <energy>
    <i name="e_fr_energy">  -1222.79313810 </i>
    <i name="e_wo_entrp">  -1222.65678897 </i>
    <i name="e_0_energy">  -1222.72496354 </i>
   </energy>
  </scstep>
  <scstep>
   <time name="dav">    9.40    9.48</time>
   <time name="total">   10.94   11.09</time>
   <energy>
    <i name="e_fr_energy">  -1222.79326647 </i>
    <i name="e_wo_entrp">  -1222.65788993 </i>
    <i name="e_0_energy">  -1222.72557820 </i>
   </energy>
  </scstep>
  <scstep>
   <time name="dav">    8.03    8.10</time>
   <time name="total">    9.58    9.77</time>
   <energy>
    <i name="e_fr_energy">  -1222.79276225 </i>
    <i name="e_wo_entrp">  -1222.65688951 </i>
    <i name="e_0_energy">  -1222.72482588 </i>
   </energy>
  </scstep>
  <scstep>
   <time name="dav">    9.56    9.64</time>
   <time name="total">   11.21   11.99</time>
   <energy>
    <i name="e_fr_energy">  -1222.79521203 </i>
    <i name="e_wo_entrp">  -1222.66363384 </i>
    <i name="e_0_energy">  -1222.72942294 </i>
   </energy>
  </scstep>
  <scstep>
   <time name="dav">    9.92   10.00</time>
   <time name="total">   11.82   12.43</time>
   <energy>
    <i name="e_fr_energy">  -1222.79591636 </i>
    <i name="e_wo_entrp">  -1222.66171720 </i>
    <i name="e_0_energy">  -1222.72881678 </i>
   </energy>
  </scstep>
  <scstep>
   <time name="dav">   13.26   13.36</time>
   <time name="total">   14.82   14.94</time>
   <energy>
    <i name="e_fr_energy">  -1222.78716271 </i>
    <i name="e_wo_entrp">  -1222.62452084 </i>
    <i name="e_0_energy">  -1222.70584177 </i>
   </energy>
  </scstep>
  <scstep>
   <time name="dav">   11.59   11.69</time>
   <time name="total">   13.15   13.77</time>
   <energy>
    <i name="e_fr_energy">  -1222.78504611 </i>
    <i name="e_wo_entrp">  -1222.63576500 </i>
    <i name="e_0_energy">  -1222.71040555 </i>
   </energy>
  </scstep>
  <scstep>
   <time name="dav">   10.99   11.10</time>
   <time name="total">   12.57   12.83</time>
   <energy>
    <i name="e_fr_energy">  -1222.78575733 </i>
    <i name="e_wo_entrp">  -1222.62695131 </i>
    <i name="e_0_energy">  -1222.70635432 </i>
   </energy>
  </scstep>
  <scstep>
   <time name="dav">   10.16   10.24</time>
   <time name="total">   11.74   11.85</time>
   <energy>
    <i name="e_fr_energy">  -1222.78550212 </i>
    <i name="e_wo_entrp">  -1222.62984907 </i>
    <i name="e_0_energy">  -1222.70767560 </i>
   </energy>
  </scstep>
  <scstep>
   <time name="dav">    8.62    8.69</time>
   <time name="total">   10.18   10.26</time>
   <energy>
    <i name="e_fr_energy">  -1222.78482009 </i>
    <i name="e_wo_entrp">  -1222.63220475 </i>
    <i name="e_0_energy">  -1222.70851242 </i>
   </energy>
  </scstep>
  <scstep>
   <time name="dav">   12.12   12.22</time>
   <time name="total">   13.69   15.03</time>
   <energy>
    <i name="e_fr_energy">  -1222.77981385 </i>
    <i name="e_wo_entrp">  -1222.62400996 </i>
    <i name="e_0_energy">  -1222.70191191 </i>
   </energy>
  </scstep>
  <scstep>
   <time name="dav">   11.29   11.38</time>
   <time name="total">   12.86   13.36</time>
   <energy>
    <i name="e_fr_energy">  -1222.77851330 </i>
    <i name="e_wo_entrp">  -1222.62320407 </i>
    <i name="e_0_energy">  -1222.70085869 </i>
   </energy>
  </scstep>
  <scstep>
   <time name="dav">    8.96    9.04</time>
   <time name="total">    9.40    9.60</time>
   <energy>
    <i name="alphaZ">   1150.89500911 </i>
    <i name="ewald">  87713.57664741 </i>
    <i name="hartreedc">-126439.21538203 </i>
    <i name="XCdc">  -1619.30364581 </i>
    <i name="pawpsdc">  82451.11583320 </i>
    <i name="pawaedc"> -78645.30914008 </i>
    <i name="eentropy">     -0.15573974 </i>
    <i name="bandstr">  -6264.92209057 </i>
    <i name="atom">  40430.53995508 </i>
    <i name="e_fr_energy">  -1222.77855343 </i>
    <i name="e_wo_entrp">  -1222.62281369 </i>
    <i name="e_0_energy">  -1222.70068356 </i>
   </energy>
  </scstep>
  <structure>
   <crystal>
    <varray name="basis" >
     <v>      15.90000000       0.00000000       0.00000000 </v>
     <v>      -7.95000000      13.76980392       0.00000000 </v>
     <v>       0.00000000       0.00000000      32.38000000 </v>
    </varray>
    <i name="volume">   7089.27338987 </i>
    <varray name="rec_basis" >
     <v>       0.06289308       0.03631134       0.00000000 </v>
     <v>       0.00000000       0.07262268       0.00000000 </v>
     <v>       0.00000000       0.00000000       0.03088326 </v>
    </varray>
   </crystal>
   <varray name="positions" >
    <v>       0.52003121       0.37396380       0.48532528 </v>
    <v>       0.44363843       0.38362772       0.50326952 </v>
    <v>       0.58932943       0.46527801       0.46802197 </v>
    <v>       0.55582458       0.53304381       0.47541048 </v>
    <v>       0.46473572       0.48164297       0.49735635 </v>
    <v>       0.33252696       0.31675404       0.40413038 </v>
    <v>       0.40684049       0.48182840       0.38947172 </v>
    <v>       0.32568770       0.40314725       0.41027673 </v>
    <v>       0.46248226       0.44443262       0.37068421 </v>
    <v>       0.41751787       0.34342146       0.37964208 </v>
    <v>       0.45287134       0.42148434       0.43806987 </v>
    <v>       0.42074045       0.51207423       0.50807236 </v>
    <v>       0.26823283       0.40747074       0.42661450 </v>
    <v>       0.28146930       0.24414001       0.41517184 </v>
    <v>       0.42380718       0.55708196       0.38870502 </v>
    <v>       0.53072656       0.48703169       0.35424384 </v>
    <v>       0.37864620       0.32558746       0.51766025 </v>
    <v>       0.52260724       0.30697148       0.48334929 </v>
    <v>       0.65542109       0.48048944       0.45184509 </v>
    <v>       0.59379136       0.60958548       0.46715954 </v>
    <v>       0.44465537       0.29552448       0.37041305 </v>
    <v>       0.60000000       0.60000000       0.65735022 </v>
    <v>       0.20000000       0.80000000       0.21911674 </v>
    <v>       0.20000000       0.60000000       0.65735022 </v>
    <v>       0.60000000       0.80000000       0.21911674 </v>
    <v>       0.20000000       0.60000000       0.21911674 </v>
    <v>       0.60000000       0.80000000       0.65735022 </v>
    <v>       0.20000000       0.40000000       0.21911674 </v>
    <v>       0.80000000       0.00000000       0.21911674 </v>
    <v>       0.20000000       0.20000000       0.65735022 </v>
    <v>       0.80000000       0.00000000       0.65735022 </v>
    <v>       0.20000000       0.20000000       0.21911674 </v>
    <v>       0.20000000       0.80000000       0.65735022 </v>
    <v>       0.20000000       0.40000000       0.65735022 </v>
    <v>       0.60000000       0.60000000       0.21911674 </v>
    <v>       0.40000000       0.60000000       0.21911674 </v>
    <v>       0.40000000       0.00000000       0.65735022 </v>
    <v>       0.60000000       0.40000000       0.65735022 </v>
    <v>       0.40000000       0.20000000       0.21911674 </v>
    <v>       0.60000000       0.40000000       0.21911674 </v>
    <v>       0.40000000       0.20000000       0.65735022 </v>
    <v>       0.40000000       0.40000000       0.21911674 </v>
    <v>       0.60000000       0.20000000       0.65735022 </v>
    <v>       0.40000000       0.40000000       0.65735022 </v>
    <v>       0.60000000       0.20000000       0.21911674 </v>
    <v>       0.40000000       0.80000000       0.65735022 </v>
[...]
       <r>    -0.5820     0.0000   952.0000 </r>
       <r>    -0.5107     0.0000   952.0000 </r>
       <r>    -0.4394     0.0000   952.0000 </r>
       <r>    -0.3681     0.0000   952.0000 </r>
       <r>    -0.2969     0.0020   952.0001 </r>
       <r>    -0.2256     0.0712   952.0052 </r>
       <r>    -0.1543     0.9682   952.0742 </r>
       <r>    -0.0830     5.0991   952.4377 </r>
       <r>    -0.0118    10.7078   953.2009 </r>
       <r>     0.0595    11.0943   953.9916 </r>
       <r>     0.1308    14.2773   955.0092 </r>
       <r>     0.2021    24.2452   956.7373 </r>
       <r>     0.2733    44.3007   959.8948 </r>
       <r>     0.3446   105.5274   967.4162 </r>
       <r>     0.4159   169.5049   979.4977 </r>
       <r>     0.4872   229.6843   995.8684 </r>
       <r>     0.5584   304.1813  1017.5488 </r>
       <r>     0.6297   278.4291  1037.3938 </r>
       <r>     0.7010   167.7260  1049.3484 </r>
       <r>     0.7723    73.4433  1054.5831 </r>
       <r>     0.8435   116.0590  1062.8551 </r>
       <r>     0.9148   297.9852  1084.0940 </r>
       <r>     0.9861   383.3571  1111.4177 </r>
       <r>     1.0574   287.8836  1131.9365 </r>
       <r>     1.1286   183.3355  1145.0037 </r>
       <r>     1.1999   124.7761  1153.8971 </r>
       <r>     1.2712   117.3552  1162.2615 </r>
       <r>     1.3425    80.7193  1168.0148 </r>
       <r>     1.4137    24.6692  1169.7731 </r>
       <r>     1.4850     3.0347  1169.9894 </r>
       <r>     1.5563     0.1464  1169.9998 </r>
       <r>     1.6276     0.0027  1170.0000 </r>
       <r>     1.6988     0.0000  1170.0000 </r>
       <r>     1.7701     0.0000  1170.0000 </r>
       <r>     1.8414     0.0000  1170.0000 </r>
       <r>     1.9127     0.0000  1170.0000 </r>
       <r>     1.9839     0.0000  1170.0000 </r>
       <r>     2.0552     0.0000  1170.0000 </r>
       <r>     2.1265     0.0000  1170.0000 </r>
       <r>     2.1978     0.0000  1170.0000 </r>
       <r>     2.2690     0.0000  1170.0000 </r>
      </set>
     </set>
    </array>
   </total>
  </dos>
 </calculation>
 <structure name="finalpos" >
  <crystal>
   <varray name="basis" >
    <v>      15.90000000       0.00000000       0.00000000 </v>
    <v>      -7.95000000      13.76980392       0.00000000 </v>
    <v>       0.00000000       0.00000000      32.38000000 </v>
   </varray>
   <i name="volume">   7089.27338987 </i>
   <varray name="rec_basis" >
    <v>       0.06289308       0.03631134       0.00000000 </v>
    <v>       0.00000000       0.07262268       0.00000000 </v>
    <v>       0.00000000       0.00000000       0.03088326 </v>
   </varray>
  </crystal>
  <varray name="positions" >
   <v>       0.52017770       0.37409136       0.48532528 </v>
   <v>       0.44373563       0.38364217       0.50326952 </v>
   <v>       0.58940964       0.46535546       0.46802197 </v>
   <v>       0.55583240       0.53303337       0.47541048 </v>
   <v>       0.46477901       0.48161172       0.49735635 </v>
   <v>       0.33246715       0.31680390       0.40413038 </v>
   <v>       0.40676244       0.48180119       0.38947172 </v>
   <v>       0.32564398       0.40319906       0.41027673 </v>
   <v>       0.46229937       0.44439261       0.37068421 </v>
   <v>       0.41738562       0.34343960       0.37964208 </v>
   <v>       0.45275553       0.42140905       0.43806987 </v>
   <v>       0.42064863       0.51190175       0.50807236 </v>
   <v>       0.26819652       0.40752087       0.42661450 </v>
   <v>       0.28143322       0.24419508       0.41517184 </v>
   <v>       0.42390157       0.55713024       0.38870502 </v>
   <v>       0.53048326       0.48685925       0.35424384 </v>
   <v>       0.37872121       0.32557168       0.51766025 </v>
   <v>       0.52271057       0.30707436       0.48334929 </v>
   <v>       0.65551956       0.48062486       0.45184509 </v>
   <v>       0.59371791       0.60957933       0.46715954 </v>
   <v>       0.44457785       0.29558959       0.37041305 </v>
   <v>       0.59998830       0.59995923       0.65735022 </v>
   <v>       0.20000000       0.80000000       0.21911674 </v>
   <v>       0.20000640       0.59999990       0.65735022 </v>
   <v>       0.60000000       0.80000000       0.21911674 </v>
   <v>       0.20000000       0.60000000       0.21911674 </v>
   <v>       0.59999336       0.79998126       0.65735022 </v>
   <v>       0.20000000       0.40000000       0.21911674 </v>
   <v>       0.80000000       0.00000000       0.21911674 </v>
   <v>       0.19999836       0.19999485       0.65735022 </v>
   <v>       0.79999672      -0.00000384       0.65735022 </v>
   <v>       0.20000000       0.20000000       0.21911674 </v>
   <v>       0.20000268       0.80000473       0.65735022 </v>
   <v>       0.20002035       0.40000034       0.65735022 </v>
   <v>       0.60000000       0.60000000       0.21911674 </v>
   <v>       0.40000000       0.60000000       0.21911674 </v>
   <v>       0.39998541      -0.00000553       0.65735022 </v>
   <v>       0.59997000       0.40002503       0.65735022 </v>
   <v>       0.40000000       0.20000000       0.21911674 </v>
   <v>       0.60000000       0.40000000       0.21911674 </v>
   <v>       0.40000282       0.20000857       0.65735022 </v>
   <v>       0.40000000       0.40000000       0.21911674 </v>
   <v>       0.59999342       0.20001655       0.65735022 </v>
   <v>       0.40009338       0.40001677       0.65735022 </v>
   <v>       0.60000000       0.20000000       0.21911674 </v>
   <v>       0.40000560       0.80000552       0.65735022 </v>
   <v>       0.40002950       0.60000142       0.65735022 </v>
   <v>       0.60002245      -0.00000158       0.65735022 </v>
   <v>       0.40000000       0.80000000       0.21911674 </v>
   <v>       0.60000000       0.00000000       0.21911674 </v>
   <v>       0.40000000       0.00000000       0.21911674 </v>
   <v>       0.80000000       0.20000000       0.21911674 </v>
   <v>       0.20000343       0.00000774       0.65735022 </v>
   <v>       0.20000000       0.00000000       0.21911674 </v>
   <v>       0.00000000       0.00000000       0.21911674 </v>
   <v>       0.79998102       0.79997166       0.65735022 </v>
   <v>      -0.00001161      -0.00000755       0.65735022 </v>
   <v>       0.80000000       0.80000000       0.21911674 </v>
   <v>       0.00000000       0.20000000       0.21911674 </v>
   <v>      -0.00002019       0.19998766       0.65735022 </v>
   <v>       0.79999093       0.60000443       0.65735022 </v>
   <v>       0.00000000       0.40000000       0.21911674 </v>
   <v>      -0.00000444       0.39997405       0.65735022 </v>
   <v>       0.00000000       0.60000000       0.21911674 </v>
   <v>       0.79996826       0.40000281       0.65735022 </v>
   <v>      -0.00000137       0.60002645       0.65735022 </v>
   <v>       0.80000000       0.60000000       0.21911674 </v>
   <v>       0.80000000       0.40000000       0.21911674 </v>
   <v>      -0.00000461       0.79999585       0.65735022 </v>
   <v>       0.00000000       0.80000000       0.21911674 </v>
   <v>       0.79999872       0.19998982       0.65735022 </v>
   <v>       0.93333333       0.06666667       0.16985794 </v>
   <v>       0.73331982       0.26668344       0.60809141 </v>
   <v>       0.73332756       0.26666331       0.70660902 </v>
   <v>       0.93333077       0.66667420       0.70660902 </v>
   <v>       0.93330551       0.66666113       0.60809141 </v>
   <v>       0.73333333       0.26666667       0.16985794 </v>
   <v>       0.73333333       0.26666667       0.26837554 </v>
   <v>       0.93333333       0.46666667       0.26837554 </v>
   <v>       0.73333792       0.06666126       0.60809141 </v>
   <v>       0.73333478       0.06666019       0.70660902 </v>
   <v>       0.93332916       0.06666538       0.70660902 </v>
   <v>       0.93333333       0.86666667       0.16985794 </v>
   <v>       0.73333333       0.06666667       0.16985794 </v>
   <v>       0.93331952       0.06665757       0.60809141 </v>
   <v>       0.73333333       0.06666667       0.26837554 </v>
   <v>       0.93333333       0.26666667       0.16985794 </v>
   <v>       0.93332893       0.26665472       0.70660902 </v>
   <v>       0.93333333       0.86666667       0.26837554 </v>
   <v>       0.73333333       0.46666667       0.26837554 </v>
   <v>       0.73333333       0.46666667       0.16985794 </v>
   <v>       0.73333333       0.86666667       0.16985794 </v>
   <v>       0.73332707       0.86666175       0.70660902 </v>
   <v>       0.73333333       0.86666667       0.26837554 </v>
   <v>       0.93333333       0.46666667       0.16985794 </v>
   <v>       0.73332126       0.86663654       0.60809141 </v>
   <v>       0.73325196       0.66658415       0.60809141 </v>
   <v>       0.73332439       0.66665727       0.70660902 </v>
   <v>       0.93333254       0.46666826       0.70660902 </v>
   <v>       0.73333333       0.66666667       0.16985794 </v>
   <v>       0.93330941       0.46666863       0.60809141 </v>
   <v>       0.73333333       0.66666667       0.26837554 </v>
   <v>       0.93331942       0.26665330       0.60809141 </v>
   <v>       0.93333333       0.26666667       0.26837554 </v>
   <v>       0.73323988       0.46666689       0.60809141 </v>
   <v>       0.73331721       0.46667167       0.70660902 </v>
   <v>       0.93333333       0.66666667       0.26837554 </v>
   <v>       0.93333333       0.06666667       0.26837554 </v>
   <v>       0.93333333       0.66666667       0.16985794 </v>
   <v>       0.53334991       0.86666103       0.60809141 </v>
   <v>       0.53333329       0.06666392       0.70660902 </v>
   <v>       0.53333333       0.86666667       0.16985794 </v>
   <v>       0.33333333       0.26666667       0.16985794 </v>
   <v>       0.33333333       0.26666667       0.26837554 </v>
   <v>       0.33333795       0.06667137       0.60809141 </v>
   <v>       0.33334054       0.06668322       0.70660902 </v>
   <v>       0.33333333       0.06666667       0.16985794 </v>
   <v>       0.33333333       0.06666667       0.26837554 </v>
   <v>       0.13332813       0.86666504       0.60809141 </v>
   <v>       0.13333553       0.86667176       0.70660902 </v>
   <v>       0.13333333       0.86666667       0.16985794 </v>
   <v>       0.13333333       0.86666667       0.26837554 </v>
   <v>       0.13332533       0.66667262       0.60809141 </v>
   <v>       0.13333324       0.66667149       0.70660902 </v>
   <v>       0.33335182       0.26667915       0.70660902 </v>
   <v>       0.13333333       0.66666667       0.16985794 </v>
   <v>       0.13333715       0.46666362       0.60809141 </v>
   <v>       0.13333609       0.46665894       0.70660902 </v>
   <v>       0.13333333       0.46666667       0.16985794 </v>
   <v>       0.13333333       0.46666667       0.26837554 </v>
   <v>       0.13333648       0.26667145       0.60809141 </v>
   <v>       0.13333420       0.26666334       0.70660902 </v>
   <v>       0.13333333       0.26666667       0.16985794 </v>
   <v>       0.13333333       0.26666667       0.26837554 </v>
   <v>       0.13332579       0.06665137       0.60809141 </v>
   <v>       0.13333201       0.06666734       0.70660902 </v>
   <v>       0.13333333       0.06666667       0.16985794 </v>
   <v>       0.13333333       0.06666667       0.26837554 </v>
   <v>       0.13333333       0.66666667       0.26837554 </v>
   <v>       0.33332902       0.26666207       0.60809141 </v>
   <v>       0.33333333       0.46666667       0.26837554 </v>
   <v>       0.33333333       0.46666667       0.16985794 </v>
   <v>       0.53333333       0.86666667       0.26837554 </v>
   <v>       0.53335207       0.66658709       0.60809141 </v>
   <v>       0.53332769       0.66666014       0.70660902 </v>
   <v>       0.53333333       0.66666667       0.16985794 </v>
   <v>       0.53333333       0.66666667       0.26837554 </v>
   <v>       0.53347212       0.46672131       0.60809141 </v>
   <v>       0.53333386       0.46666571       0.70660902 </v>
   <v>       0.53333333       0.46666667       0.16985794 </v>
   <v>       0.53333333       0.46666667       0.26837554 </v>
   <v>       0.53335264       0.26676466       0.60809141 </v>
   <v>       0.53330918       0.26666043       0.70660902 </v>
   <v>       0.53333333       0.26666667       0.16985794 </v>
   <v>       0.53333333       0.26666667       0.26837554 </v>
   <v>       0.53334309       0.06668487       0.60809141 </v>
   <v>       0.93333065       0.86666130       0.70660902 </v>
   <v>       0.53333333       0.06666667       0.16985794 </v>
   <v>       0.53333333       0.06666667       0.26837554 </v>
   <v>       0.33332495       0.86666621       0.60809141 </v>
   <v>       0.33333185       0.86667002       0.70660902 </v>
   <v>       0.33333333       0.86666667       0.16985794 </v>
   <v>       0.33333333       0.86666667       0.26837554 </v>
   <v>       0.33334801       0.66666341       0.60809141 </v>
   <v>       0.33334811       0.66666490       0.70660902 </v>
   <v>       0.33333333       0.66666667       0.16985794 </v>
   <v>       0.33333333       0.66666667       0.26837554 </v>
   <v>       0.33343413       0.46665901       0.60809141 </v>
   <v>       0.33335950       0.46665791       0.70660902 </v>
   <v>       0.53334136       0.86666934       0.70660902 </v>
   <v>       0.93331042       0.86663989       0.60809141 </v>
  </varray>
  <varray name="selective"  type="logical" >
   <v type="logical" >  T  T  F </v>
   <v type="logical" >  T  T  F </v>
   <v type="logical" >  T  T  F </v>
   <v type="logical" >  T  T  F </v>
   <v type="logical" >  T  T  F </v>
   <v type="logical" >  T  T  F </v>
   <v type="logical" >  T  T  F </v>
   <v type="logical" >  T  T  F </v>
   <v type="logical" >  T  T  F </v>
   <v type="logical" >  T  T  F </v>
   <v type="logical" >  T  T  F </v>
   <v type="logical" >  T  T  F </v>
   <v type="logical" >  T  T  F </v>
   <v type="logical" >  T  T  F </v>
   <v type="logical" >  T  T  F </v>
   <v type="logical" >  T  T  F </v>
   <v type="logical" >  T  T  F </v>
   <v type="logical" >  T  T  F </v>
   <v type="logical" >  T  T  F </v>
   <v type="logical" >  T  T  F </v>
   <v type="logical" >  T  T  F </v>
   <v type="logical" >  T  T  F </v>
   <v type="logical" >  F  F  F </v>
   <v type="logical" >  T  T  F </v>
   <v type="logical" >  F  F  F </v>
   <v type="logical" >  F  F  F </v>
   <v type="logical" >  T  T  F </v>
   <v type="logical" >  F  F  F </v>
   <v type="logical" >  F  F  F </v>
   <v type="logical" >  T  T  F </v>
   <v type="logical" >  T  T  F </v>
   <v type="logical" >  F  F  F </v>
   <v type="logical" >  T  T  F </v>
   <v type="logical" >  T  T  F </v>
   <v type="logical" >  F  F  F </v>
   <v type="logical" >  F  F  F </v>
   <v type="logical" >  T  T  F </v>
   <v type="logical" >  T  T  F </v>
   <v type="logical" >  F  F  F </v>
   <v type="logical" >  F  F  F </v>
   <v type="logical" >  T  T  F </v>
   <v type="logical" >  F  F  F </v>
   <v type="logical" >  T  T  F </v>
   <v type="logical" >  T  T  F </v>
   <v type="logical" >  F  F  F </v>
   <v type="logical" >  T  T  F </v>
   <v type="logical" >  T  T  F </v>
   <v type="logical" >  T  T  F </v>
   <v type="logical" >  F  F  F </v>
   <v type="logical" >  F  F  F </v>
   <v type="logical" >  F  F  F </v>
   <v type="logical" >  F  F  F </v>
   <v type="logical" >  T  T  F </v>
   <v type="logical" >  F  F  F </v>
   <v type="logical" >  F  F  F </v>
   <v type="logical" >  T  T  F </v>
   <v type="logical" >  T  T  F </v>
   <v type="logical" >  F  F  F </v>
   <v type="logical" >  F  F  F </v>
   <v type="logical" >  T  T  F </v>
   <v type="logical" >  T  T  F </v>
   <v type="logical" >  F  F  F </v>
   <v type="logical" >  T  T  F </v>
   <v type="logical" >  F  F  F </v>
   <v type="logical" >  T  T  F </v>
   <v type="logical" >  T  T  F </v>
   <v type="logical" >  F  F  F </v>
   <v type="logical" >  F  F  F </v>
   <v type="logical" >  T  T  F </v>
   <v type="logical" >  F  F  F </v>
   <v type="logical" >  T  T  F </v>
   <v type="logical" >  F  F  F </v>
   <v type="logical" >  T  T  F </v>
   <v type="logical" >  T  T  F </v>
   <v type="logical" >  T  T  F </v>
   <v type="logical" >  T  T  F </v>
   <v type="logical" >  F  F  F </v>
   <v type="logical" >  F  F  F </v>
   <v type="logical" >  F  F  F </v>
   <v type="logical" >  T  T  F </v>
   <v type="logical" >  T  T  F </v>
   <v type="logical" >  T  T  F </v>
   <v type="logical" >  F  F  F </v>
   <v type="logical" >  F  F  F </v>
   <v type="logical" >  T  T  F </v>
   <v type="logical" >  F  F  F </v>
   <v type="logical" >  F  F  F </v>
   <v type="logical" >  T  T  F </v>
   <v type="logical" >  F  F  F </v>
   <v type="logical" >  F  F  F </v>
   <v type="logical" >  F  F  F </v>
   <v type="logical" >  F  F  F </v>
   <v type="logical" >  T  T  F </v>
   <v type="logical" >  F  F  F </v>
   <v type="logical" >  F  F  F </v>
   <v type="logical" >  T  T  F </v>
   <v type="logical" >  T  T  F </v>
   <v type="logical" >  T  T  F </v>
   <v type="logical" >  T  T  F </v>
   <v type="logical" >  F  F  F </v>
   <v type="logical" >  T  T  F </v>
   <v type="logical" >  F  F  F </v>
   <v type="logical" >  T  T  F </v>
   <v type="logical" >  F  F  F </v>
   <v type="logical" >  T  T  F </v>
   <v type="logical" >  T  T  F </v>
   <v type="logical" >  F  F  F </v>
   <v type="logical" >  F  F  F </v>
   <v type="logical" >  F  F  F </v>
   <v type="logical" >  T  T  F </v>
   <v type="logical" >  T  T  F </v>
   <v type="logical" >  F  F  F </v>
   <v type="logical" >  F  F  F </v>
   <v type="logical" >  F  F  F </v>
   <v type="logical" >  T  T  F </v>
   <v type="logical" >  T  T  F </v>
   <v type="logical" >  F  F  F </v>
   <v type="logical" >  F  F  F </v>
   <v type="logical" >  T  T  F </v>
   <v type="logical" >  T  T  F </v>
   <v type="logical" >  F  F  F </v>
   <v type="logical" >  F  F  F </v>
   <v type="logical" >  T  T  F </v>
   <v type="logical" >  T  T  F </v>
   <v type="logical" >  T  T  F </v>
   <v type="logical" >  F  F  F </v>
   <v type="logical" >  T  T  F </v>
   <v type="logical" >  T  T  F </v>
   <v type="logical" >  F  F  F </v>
   <v type="logical" >  F  F  F </v>
   <v type="logical" >  T  T  F </v>
   <v type="logical" >  T  T  F </v>
   <v type="logical" >  F  F  F </v>
   <v type="logical" >  F  F  F </v>
   <v type="logical" >  T  T  F </v>
   <v type="logical" >  T  T  F </v>
   <v type="logical" >  F  F  F </v>
   <v type="logical" >  F  F  F </v>
   <v type="logical" >  F  F  F </v>
   <v type="logical" >  T  T  F </v>
   <v type="logical" >  F  F  F </v>
   <v type="logical" >  F  F  F </v>
   <v type="logical" >  F  F  F </v>
   <v type="logical" >  T  T  F </v>
   <v type="logical" >  T  T  F </v>
   <v type="logical" >  F  F  F </v>
   <v type="logical" >  F  F  F </v>
   <v type="logical" >  T  T  F </v>
   <v type="logical" >  T  T  F </v>
   <v type="logical" >  F  F  F </v>
   <v type="logical" >  F  F  F </v>
   <v type="logical" >  T  T  F </v>
   <v type="logical" >  T  T  F </v>
   <v type="logical" >  F  F  F </v>
   <v type="logical" >  F  F  F </v>
   <v type="logical" >  T  T  F </v>
   <v type="logical" >  T  T  F </v>
   <v type="logical" >  F  F  F </v>
   <v type="logical" >  F  F  F </v>
   <v type="logical" >  T  T  F </v>
   <v type="logical" >  T  T  F </v>
   <v type="logical" >  F  F  F </v>
   <v type="logical" >  F  F  F </v>
   <v type="logical" >  T  T  F </v>
   <v type="logical" >  T  T  F </v>
   <v type="logical" >  F  F  F </v>
   <v type="logical" >  F  F  F </v>
   <v type="logical" >  T  T  F </v>
   <v type="logical" >  T  T  F </v>
   <v type="logical" >  T  T  F </v>
   <v type="logical" >  T  T  F </v>
  </varray>
  <nose>
   <v>      -3.00000000       0.00000000       0.00010000       0.00010000 </v>
  </nose>
 </structure>
</modeling>
