basalPlane                              
           1
    15.900000    0.000000    0.000000
    -7.950000   13.769804    0.000000
     0.000000    0.000000   32.380000
   C    Cr   H    Mo   S 
  10   1  10  50 100
Direct configuration=     1
   0.52003121  0.37396380  0.48532528
   0.44363843  0.38362772  0.50326952
   0.58932943  0.46527801  0.46802197
   0.55582458  0.53304381  0.47541048
   0.46473572  0.48164297  0.49735635
   0.33252696  0.31675404  0.40413038
   0.40684049  0.48182840  0.38947172
   0.32568770  0.40314725  0.41027673
   0.46248226  0.44443262  0.37068421
   0.41751787  0.34342146  0.37964208
   0.45287134  0.42148434  0.43806987
   0.42074045  0.51207423  0.50807236
   0.26823283  0.40747074  0.42661450
   0.28146930  0.24414001  0.41517184
   0.42380718  0.55708196  0.38870502
   0.53072656  0.48703169  0.35424384
   0.37864620  0.32558746  0.51766025
   0.52260724  0.30697148  0.48334929
   0.65542109  0.48048944  0.45184509
   0.59379136  0.60958548  0.46715954
   0.44465537  0.29552448  0.37041305
   0.60000000  0.60000000  0.65735022
   0.20000000  0.80000000  0.21911674
   0.20000000  0.60000000  0.65735022
   0.60000000  0.80000000  0.21911674
   0.20000000  0.60000000  0.21911674
   0.60000000  0.80000000  0.65735022
   0.20000000  0.40000000  0.21911674
   0.80000000  0.00000000  0.21911674
   0.20000000  0.20000000  0.65735022
   0.80000000  0.00000000  0.65735022
   0.20000000  0.20000000  0.21911674
   0.20000000  0.80000000  0.65735022
   0.20000000  0.40000000  0.65735022
   0.60000000  0.60000000  0.21911674
   0.40000000  0.60000000  0.21911674
   0.40000000  0.00000000  0.65735022
   0.60000000  0.40000000  0.65735022
   0.40000000  0.20000000  0.21911674
   0.60000000  0.40000000  0.21911674
   0.40000000  0.20000000  0.65735022
   0.40000000  0.40000000  0.21911674
   0.60000000  0.20000000  0.65735022
   0.40000000  0.40000000  0.65735022
   0.60000000  0.20000000  0.21911674
   0.40000000  0.80000000  0.65735022
   0.40000000  0.60000000  0.65735022
   0.60000000  0.00000000  0.65735022
   0.40000000  0.80000000  0.21911674
   0.60000000  0.00000000  0.21911674
   0.40000000  0.00000000  0.21911674
   0.80000000  0.20000000  0.21911674
   0.20000000  0.00000000  0.65735022
   0.20000000  0.00000000  0.21911674
   0.00000000  0.00000000  0.21911674
   0.80000000  0.80000000  0.65735022
   0.00000000  0.00000000  0.65735022
   0.80000000  0.80000000  0.21911674
   0.00000000  0.20000000  0.21911674
   0.00000000  0.20000000  0.65735022
   0.80000000  0.60000000  0.65735022
   0.00000000  0.40000000  0.21911674
   0.00000000  0.40000000  0.65735022
   0.00000000  0.60000000  0.21911674
   0.80000000  0.40000000  0.65735022
   0.00000000  0.60000000  0.65735022
   0.80000000  0.60000000  0.21911674
   0.80000000  0.40000000  0.21911674
   0.00000000  0.80000000  0.65735022
   0.00000000  0.80000000  0.21911674
   0.80000000  0.20000000  0.65735022
   0.93333333  0.06666667  0.16985794
   0.73333333  0.26666667  0.60809141
   0.73333333  0.26666667  0.70660902
   0.93333333  0.66666667  0.70660902
   0.93333333  0.66666667  0.60809141
   0.73333333  0.26666667  0.16985794
   0.73333333  0.26666667  0.26837554
   0.93333333  0.46666667  0.26837554
   0.73333333  0.06666667  0.60809141
   0.73333333  0.06666667  0.70660902
   0.93333333  0.06666667  0.70660902
   0.93333333  0.86666667  0.16985794
   0.73333333  0.06666667  0.16985794
   0.93333333  0.06666667  0.60809141
   0.73333333  0.06666667  0.26837554
   0.93333333  0.26666667  0.16985794
   0.93333333  0.26666667  0.70660902
   0.93333333  0.86666667  0.26837554
   0.73333333  0.46666667  0.26837554
   0.73333333  0.46666667  0.16985794
   0.73333333  0.86666667  0.16985794
   0.73333333  0.86666667  0.70660902
   0.73333333  0.86666667  0.26837554
   0.93333333  0.46666667  0.16985794
   0.73333333  0.86666667  0.60809141
   0.73333333  0.66666667  0.60809141
   0.73333333  0.66666667  0.70660902
   0.93333333  0.46666667  0.70660902
   0.73333333  0.66666667  0.16985794
   0.93333333  0.46666667  0.60809141
   0.73333333  0.66666667  0.26837554
   0.93333333  0.26666667  0.60809141
   0.93333333  0.26666667  0.26837554
   0.73333333  0.46666667  0.60809141
   0.73333333  0.46666667  0.70660902
   0.93333333  0.66666667  0.26837554
   0.93333333  0.06666667  0.26837554
   0.93333333  0.66666667  0.16985794
   0.53333333  0.86666667  0.60809141
   0.53333333  0.06666667  0.70660902
   0.53333333  0.86666667  0.16985794
   0.33333333  0.26666667  0.16985794
   0.33333333  0.26666667  0.26837554
   0.33333333  0.06666667  0.60809141
   0.33333333  0.06666667  0.70660902
   0.33333333  0.06666667  0.16985794
   0.33333333  0.06666667  0.26837554
   0.13333333  0.86666667  0.60809141
   0.13333333  0.86666667  0.70660902
   0.13333333  0.86666667  0.16985794
   0.13333333  0.86666667  0.26837554
   0.13333333  0.66666667  0.60809141
   0.13333333  0.66666667  0.70660902
   0.33333333  0.26666667  0.70660902
   0.13333333  0.66666667  0.16985794
   0.13333333  0.46666667  0.60809141
   0.13333333  0.46666667  0.70660902
   0.13333333  0.46666667  0.16985794
   0.13333333  0.46666667  0.26837554
   0.13333333  0.26666667  0.60809141
   0.13333333  0.26666667  0.70660902
   0.13333333  0.26666667  0.16985794
   0.13333333  0.26666667  0.26837554
   0.13333333  0.06666667  0.60809141
   0.13333333  0.06666667  0.70660902
   0.13333333  0.06666667  0.16985794
   0.13333333  0.06666667  0.26837554
   0.13333333  0.66666667  0.26837554
   0.33333333  0.26666667  0.60809141
   0.33333333  0.46666667  0.26837554
   0.33333333  0.46666667  0.16985794
   0.53333333  0.86666667  0.26837554
   0.53333333  0.66666667  0.60809141
   0.53333333  0.66666667  0.70660902
   0.53333333  0.66666667  0.16985794
   0.53333333  0.66666667  0.26837554
   0.53333333  0.46666667  0.60809141
   0.53333333  0.46666667  0.70660902
   0.53333333  0.46666667  0.16985794
   0.53333333  0.46666667  0.26837554
   0.53333333  0.26666667  0.60809141
   0.53333333  0.26666667  0.70660902
   0.53333333  0.26666667  0.16985794
   0.53333333  0.26666667  0.26837554
   0.53333333  0.06666667  0.60809141
   0.93333333  0.86666667  0.70660902
   0.53333333  0.06666667  0.16985794
   0.53333333  0.06666667  0.26837554
   0.33333333  0.86666667  0.60809141
   0.33333333  0.86666667  0.70660902
   0.33333333  0.86666667  0.16985794
   0.33333333  0.86666667  0.26837554
   0.33333333  0.66666667  0.60809141
   0.33333333  0.66666667  0.70660902
   0.33333333  0.66666667  0.16985794
   0.33333333  0.66666667  0.26837554
   0.33333333  0.46666667  0.60809141
   0.33333333  0.46666667  0.70660902
   0.53333333  0.86666667  0.70660902
   0.93333333  0.86666667  0.60809141
Direct configuration=     2
   0.52032931  0.37419729  0.48532528
   0.44367757  0.38352497  0.50326952
   0.58958129  0.46527839  0.46802197
   0.55602715  0.53322670  0.47541048
   0.46484812  0.48174506  0.49735635
   0.33242298  0.31657743  0.40413038
   0.40670125  0.48165596  0.38947172
   0.32553230  0.40323859  0.41027673
   0.46237423  0.44443321  0.37068421
   0.41729303  0.34351276  0.37964208
   0.45273307  0.42151868  0.43806987
   0.42065089  0.51204660  0.50807236
   0.26828257  0.40746143  0.42661450
   0.28151649  0.24423476  0.41517184
   0.42384976  0.55707409  0.38870502
   0.53055470  0.48691184  0.35424384
   0.37858313  0.32552084  0.51766025
   0.52260134  0.30688787  0.48334929
   0.65540926  0.48051262  0.45184509
   0.59378090  0.60958203  0.46715954
   0.44466611  0.29556655  0.37041305
   0.59999154  0.59997659  0.65735022
   0.20000000  0.80000000  0.21911674
   0.20000799  0.60000286  0.65735022
   0.60000000  0.80000000  0.21911674
   0.20000000  0.60000000  0.21911674
   0.59999865  0.80000625  0.65735022
   0.20000000  0.40000000  0.21911674
   0.80000000  0.00000000  0.21911674
   0.19999227  0.19999033  0.65735022
   0.80000113  0.00000457  0.65735022
   0.20000000  0.20000000  0.21911674
   0.20000184  0.80000174  0.65735022
   0.19999235  0.39999575  0.65735022
   0.60000000  0.60000000  0.21911674
   0.40000000  0.60000000  0.21911674
   0.39998528 -0.00000526  0.65735022
   0.59997667  0.40001002  0.65735022
   0.40000000  0.20000000  0.21911674
   0.60000000  0.40000000  0.21911674
   0.40000565  0.20000048  0.65735022
   0.40000000  0.40000000  0.21911674
   0.59999839  0.19999676  0.65735022
   0.40004802  0.40001490  0.65735022
   0.60000000  0.20000000  0.21911674
   0.39999883  0.79999676  0.65735022
   0.40001098  0.60000899  0.65735022
   0.60001798 -0.00000236  0.65735022
   0.40000000  0.80000000  0.21911674
   0.60000000  0.00000000  0.21911674
   0.40000000  0.00000000  0.21911674
   0.80000000  0.20000000  0.21911674
   0.20000256  0.00000300  0.65735022
   0.20000000  0.00000000  0.21911674
   0.00000000  0.00000000  0.21911674
   0.80000079  0.79999505  0.65735022
  -0.00000301 -0.00000112  0.65735022
   0.80000000  0.80000000  0.21911674
   0.00000000  0.20000000  0.21911674
  -0.00001382  0.19999300  0.65735022
   0.80000185  0.60000703  0.65735022
   0.00000000  0.40000000  0.21911674
   0.00000009  0.39997962  0.65735022
   0.00000000  0.60000000  0.21911674
   0.79999343  0.39999894  0.65735022
   0.00000513  0.60002139  0.65735022
   0.80000000  0.60000000  0.21911674
   0.80000000  0.40000000  0.21911674
   0.00000193  0.79999751  0.65735022
   0.00000000  0.80000000  0.21911674
   0.80000584  0.19999115  0.65735022
   0.93333333  0.06666667  0.16985794
   0.73333105  0.26667118  0.60809141
   0.73333294  0.26666563  0.70660902
   0.93333269  0.66666537  0.70660902
   0.93332750  0.66666258  0.60809141
   0.73333333  0.26666667  0.16985794
   0.73333333  0.26666667  0.26837554
   0.93333333  0.46666667  0.26837554
   0.73333366  0.06666530  0.60809141
   0.73333230  0.06666456  0.70660902
   0.93333429  0.06666663  0.70660902
   0.93333333  0.86666667  0.16985794
   0.73333333  0.06666667  0.16985794
   0.93333093  0.06666432  0.60809141
   0.73333333  0.06666667  0.26837554
   0.93333333  0.26666667  0.16985794
   0.93333476  0.26666635  0.70660902
   0.93333333  0.86666667  0.26837554
   0.73333333  0.46666667  0.26837554
   0.73333333  0.46666667  0.16985794
   0.73333333  0.86666667  0.16985794
   0.73333331  0.86666573  0.70660902
   0.73333333  0.86666667  0.26837554
   0.93333333  0.46666667  0.16985794
   0.73333205  0.86665933  0.60809141
   0.73331166  0.66664318  0.60809141
   0.73333357  0.66666559  0.70660902
   0.93333395  0.46666617  0.70660902
   0.73333333  0.66666667  0.16985794
   0.93332818  0.46666619  0.60809141
   0.73333333  0.66666667  0.26837554
   0.93333166  0.26666551  0.60809141
   0.93333333  0.26666667  0.26837554
   0.73331054  0.46666602  0.60809141
   0.73333354  0.46666685  0.70660902
   0.93333333  0.66666667  0.26837554
   0.93333333  0.06666667  0.26837554
   0.93333333  0.66666667  0.16985794
   0.53333797  0.86666561  0.60809141
   0.53333426  0.06666710  0.70660902
   0.53333333  0.86666667  0.16985794
   0.33333333  0.26666667  0.16985794
   0.33333333  0.26666667  0.26837554
   0.33333517  0.06666518  0.60809141
   0.33333665  0.06667024  0.70660902
   0.33333333  0.06666667  0.16985794
   0.33333333  0.06666667  0.26837554
   0.13333184  0.86666371  0.60809141
   0.13333381  0.86666606  0.70660902
   0.13333333  0.86666667  0.16985794
   0.13333333  0.86666667  0.26837554
   0.13333049  0.66666685  0.60809141
   0.13333224  0.66666601  0.70660902
   0.33333740  0.26666884  0.70660902
   0.13333333  0.66666667  0.16985794
   0.13333281  0.46666607  0.60809141
   0.13333353  0.46666465  0.70660902
   0.13333333  0.46666667  0.16985794
   0.13333333  0.46666667  0.26837554
   0.13333510  0.26666819  0.60809141
   0.13333542  0.26666641  0.70660902
   0.13333333  0.26666667  0.16985794
   0.13333333  0.26666667  0.26837554
   0.13333300  0.06666276  0.60809141
   0.13333484  0.06666732  0.70660902
   0.13333333  0.06666667  0.16985794
   0.13333333  0.06666667  0.26837554
   0.13333333  0.66666667  0.26837554
   0.33332436  0.26665698  0.60809141
   0.33333333  0.46666667  0.26837554
   0.33333333  0.46666667  0.16985794
   0.53333333  0.86666667  0.26837554
   0.53333811  0.66664324  0.60809141
   0.53333008  0.66666310  0.70660902
   0.53333333  0.66666667  0.16985794
   0.53333333  0.66666667  0.26837554
   0.53337692  0.46668443  0.60809141
   0.53333021  0.46666377  0.70660902
   0.53333333  0.46666667  0.16985794
   0.53333333  0.46666667  0.26837554
   0.53334213  0.26669325  0.60809141
   0.53332823  0.26666376  0.70660902
   0.53333333  0.26666667  0.16985794
   0.53333333  0.26666667  0.26837554
   0.53333704  0.06667181  0.60809141
   0.93333372  0.86666566  0.70660902
   0.53333333  0.06666667  0.16985794
   0.53333333  0.06666667  0.26837554
   0.33333229  0.86666627  0.60809141
   0.33333446  0.86666757  0.70660902
   0.33333333  0.86666667  0.16985794
   0.33333333  0.86666667  0.26837554
   0.33333572  0.66666584  0.60809141
   0.33333677  0.66666499  0.70660902
   0.33333333  0.66666667  0.16985794
   0.33333333  0.66666667  0.26837554
   0.33335668  0.46666671  0.60809141
   0.33333756  0.46666531  0.70660902
   0.53333528  0.86666663  0.70660902
   0.93332854  0.86666026  0.60809141
Direct configuration=     3
   0.52013504  0.37404512  0.48532528
   0.44365206  0.38359193  0.50326952
   0.58941716  0.46527814  0.46802197
   0.55589513  0.53310751  0.47541048
   0.46477487  0.48167853  0.49735635
   0.33249074  0.31669253  0.40413038
   0.40679199  0.48176833  0.38947172
   0.32563357  0.40317907  0.41027673
   0.46244464  0.44443282  0.37068421
   0.41743955  0.34345326  0.37964208
   0.45282318  0.42149630  0.43806987
   0.42070926  0.51206460  0.50807236
   0.26825015  0.40746750  0.42661450
   0.28148573  0.24417301  0.41517184
   0.42382201  0.55707922  0.38870502
   0.53066670  0.48698994  0.35424384
   0.37862423  0.32556426  0.51766025
   0.52260518  0.30694236  0.48334929
   0.65541697  0.48049751  0.45184509
   0.59378772  0.60958428  0.46715954
   0.44465911  0.29553913  0.37041305
   0.59999705  0.59999185  0.65735022
   0.20000000  0.80000000  0.21911674
   0.20000278  0.60000100  0.65735022
   0.60000000  0.80000000  0.21911674
   0.20000000  0.60000000  0.21911674
   0.59999953  0.80000218  0.65735022
   0.20000000  0.40000000  0.21911674
   0.80000000  0.00000000  0.21911674
   0.19999731  0.19999663  0.65735022
   0.80000039  0.00000159  0.65735022
   0.20000000  0.20000000  0.21911674
   0.20000064  0.80000061  0.65735022
   0.19999734  0.39999852  0.65735022
   0.60000000  0.60000000  0.21911674
   0.40000000  0.60000000  0.21911674
   0.39999487 -0.00000183  0.65735022
   0.59999187  0.40000349  0.65735022
   0.40000000  0.20000000  0.21911674
   0.60000000  0.40000000  0.21911674
   0.40000197  0.20000017  0.65735022
   0.40000000  0.40000000  0.21911674
   0.59999944  0.19999887  0.65735022
   0.40001673  0.40000519  0.65735022
   0.60000000  0.20000000  0.21911674
   0.39999959  0.79999887  0.65735022
   0.40000383  0.60000313  0.65735022
   0.60000626 -0.00000082  0.65735022
   0.40000000  0.80000000  0.21911674
   0.60000000  0.00000000  0.21911674
   0.40000000  0.00000000  0.21911674
   0.80000000  0.20000000  0.21911674
   0.20000089  0.00000104  0.65735022
   0.20000000  0.00000000  0.21911674
   0.00000000  0.00000000  0.21911674
   0.80000027  0.79999828  0.65735022
  -0.00000105 -0.00000039  0.65735022
   0.80000000  0.80000000  0.21911674
   0.00000000  0.20000000  0.21911674
  -0.00000481  0.19999756  0.65735022
   0.80000064  0.60000245  0.65735022
   0.00000000  0.40000000  0.21911674
   0.00000003  0.39999290  0.65735022
   0.00000000  0.60000000  0.21911674
   0.79999771  0.39999963  0.65735022
   0.00000179  0.60000745  0.65735022
   0.80000000  0.60000000  0.21911674
   0.80000000  0.40000000  0.21911674
   0.00000067  0.79999913  0.65735022
   0.00000000  0.80000000  0.21911674
   0.80000203  0.19999692  0.65735022
   0.93333333  0.06666667  0.16985794
   0.73333254  0.26666824  0.60809141
   0.73333320  0.26666631  0.70660902
   0.93333311  0.66666622  0.70660902
   0.93333130  0.66666524  0.60809141
   0.73333333  0.26666667  0.16985794
   0.73333333  0.26666667  0.26837554
   0.93333333  0.46666667  0.26837554
   0.73333345  0.06666619  0.60809141
   0.73333297  0.06666593  0.70660902
   0.93333367  0.06666665  0.70660902
   0.93333333  0.86666667  0.16985794
   0.73333333  0.06666667  0.16985794
   0.93333250  0.06666585  0.60809141
   0.73333333  0.06666667  0.26837554
   0.93333333  0.26666667  0.16985794
   0.93333383  0.26666656  0.70660902
   0.93333333  0.86666667  0.26837554
   0.73333333  0.46666667  0.26837554
   0.73333333  0.46666667  0.16985794
   0.73333333  0.86666667  0.16985794
   0.73333333  0.86666634  0.70660902
   0.73333333  0.86666667  0.26837554
   0.93333333  0.46666667  0.16985794
   0.73333289  0.86666411  0.60809141
   0.73332578  0.66665849  0.60809141
   0.73333341  0.66666629  0.70660902
   0.93333355  0.46666649  0.70660902
   0.73333333  0.66666667  0.16985794
   0.93333154  0.46666650  0.60809141
   0.73333333  0.66666667  0.26837554
   0.93333275  0.26666627  0.60809141
   0.93333333  0.26666667  0.26837554
   0.73332539  0.46666644  0.60809141
   0.73333341  0.46666673  0.70660902
   0.93333333  0.66666667  0.26837554
   0.93333333  0.06666667  0.26837554
   0.93333333  0.66666667  0.16985794
   0.53333495  0.86666630  0.60809141
   0.53333366  0.06666682  0.70660902
   0.53333333  0.86666667  0.16985794
   0.33333333  0.26666667  0.16985794
   0.33333333  0.26666667  0.26837554
   0.33333397  0.06666615  0.60809141
   0.33333449  0.06666791  0.70660902
   0.33333333  0.06666667  0.16985794
   0.33333333  0.06666667  0.26837554
   0.13333281  0.86666564  0.60809141
   0.13333350  0.86666646  0.70660902
   0.13333333  0.86666667  0.16985794
   0.13333333  0.86666667  0.26837554
   0.13333234  0.66666673  0.60809141
   0.13333295  0.66666644  0.70660902
   0.33333475  0.26666743  0.70660902
   0.13333333  0.66666667  0.16985794
   0.13333315  0.46666646  0.60809141
   0.13333340  0.46666596  0.70660902
   0.13333333  0.46666667  0.16985794
   0.13333333  0.46666667  0.26837554
   0.13333395  0.26666720  0.60809141
   0.13333406  0.26666658  0.70660902
   0.13333333  0.26666667  0.16985794
   0.13333333  0.26666667  0.26837554
   0.13333322  0.06666531  0.60809141
   0.13333386  0.06666689  0.70660902
   0.13333333  0.06666667  0.16985794
   0.13333333  0.06666667  0.26837554
   0.13333333  0.66666667  0.26837554
   0.33333021  0.26666329  0.60809141
   0.33333333  0.46666667  0.26837554
   0.33333333  0.46666667  0.16985794
   0.53333333  0.86666667  0.26837554
   0.53333500  0.66665851  0.60809141
   0.53333220  0.66666542  0.70660902
   0.53333333  0.66666667  0.16985794
   0.53333333  0.66666667  0.26837554
   0.53334851  0.46667285  0.60809141
   0.53333225  0.46666566  0.70660902
   0.53333333  0.46666667  0.16985794
   0.53333333  0.46666667  0.26837554
   0.53333640  0.26667593  0.60809141
   0.53333156  0.26666565  0.70660902
   0.53333333  0.26666667  0.16985794
   0.53333333  0.26666667  0.26837554
   0.53333462  0.06666846  0.60809141
   0.93333347  0.86666631  0.70660902
   0.53333333  0.06666667  0.16985794
   0.53333333  0.06666667  0.26837554
   0.33333297  0.86666653  0.60809141
   0.33333372  0.86666698  0.70660902
   0.33333333  0.86666667  0.16985794
   0.33333333  0.86666667  0.26837554
   0.33333417  0.66666638  0.60809141
   0.33333453  0.66666608  0.70660902
   0.33333333  0.66666667  0.16985794
   0.33333333  0.66666667  0.26837554
   0.33334147  0.46666668  0.60809141
   0.33333481  0.46666619  0.70660902
   0.53333401  0.86666665  0.70660902
   0.93333167  0.86666444  0.60809141
Direct configuration=     4
   0.52010158  0.37401892  0.48532528
   0.44364767  0.38360346  0.50326952
   0.58938889  0.46527810  0.46802197
   0.55587240  0.53308699  0.47541048
   0.46476225  0.48166707  0.49735635
   0.33250241  0.31671235  0.40413038
   0.40680762  0.48178769  0.38947172
   0.32565101  0.40316881  0.41027673
   0.46245676  0.44443276  0.37068421
   0.41746479  0.34344301  0.37964208
   0.45283870  0.42149244  0.43806987
   0.42071931  0.51206770  0.50807236
   0.26824457  0.40746854  0.42661450
   0.28148044  0.24416238  0.41517184
   0.42381723  0.55708010  0.38870502
   0.53068599  0.48700340  0.35424384
   0.37863131  0.32557174  0.51766025
   0.52260585  0.30695174  0.48334929
   0.65541830  0.48049491  0.45184509
   0.59378889  0.60958467  0.46715954
   0.44465791  0.29553441  0.37041305
   0.59999800  0.59999447  0.65735022
   0.20000000  0.80000000  0.21911674
   0.20000189  0.60000068  0.65735022
   0.60000000  0.80000000  0.21911674
   0.20000000  0.60000000  0.21911674
   0.59999968  0.80000148  0.65735022
   0.20000000  0.40000000  0.21911674
   0.80000000  0.00000000  0.21911674
   0.19999817  0.19999772  0.65735022
   0.80000027  0.00000108  0.65735022
   0.20000000  0.20000000  0.21911674
   0.20000043  0.80000041  0.65735022
   0.19999819  0.39999900  0.65735022
   0.60000000  0.60000000  0.21911674
   0.40000000  0.60000000  0.21911674
   0.39999653 -0.00000124  0.65735022
   0.59999449  0.40000236  0.65735022
   0.40000000  0.20000000  0.21911674
   0.60000000  0.40000000  0.21911674
   0.40000133  0.20000011  0.65735022
   0.40000000  0.40000000  0.21911674
   0.59999962  0.19999923  0.65735022
   0.40001134  0.40000352  0.65735022
   0.60000000  0.20000000  0.21911674
   0.39999972  0.79999924  0.65735022
   0.40000259  0.60000212  0.65735022
   0.60000424 -0.00000056  0.65735022
   0.40000000  0.80000000  0.21911674
   0.60000000  0.00000000  0.21911674
   0.40000000  0.00000000  0.21911674
   0.80000000  0.20000000  0.21911674
   0.20000060  0.00000071  0.65735022
   0.20000000  0.00000000  0.21911674
   0.00000000  0.00000000  0.21911674
   0.80000019  0.79999883  0.65735022
  -0.00000071 -0.00000026  0.65735022
   0.80000000  0.80000000  0.21911674
   0.00000000  0.20000000  0.21911674
  -0.00000326  0.19999835  0.65735022
   0.80000044  0.60000166  0.65735022
   0.00000000  0.40000000  0.21911674
   0.00000002  0.39999519  0.65735022
   0.00000000  0.60000000  0.21911674
   0.79999845  0.39999975  0.65735022
   0.00000121  0.60000505  0.65735022
   0.80000000  0.60000000  0.21911674
   0.80000000  0.40000000  0.21911674
   0.00000045  0.79999941  0.65735022
   0.00000000  0.80000000  0.21911674
   0.80000138  0.19999791  0.65735022
   0.93333333  0.06666667  0.16985794
   0.73333279  0.26666773  0.60809141
   0.73333324  0.26666642  0.70660902
   0.93333318  0.66666636  0.70660902
   0.93333196  0.66666570  0.60809141
   0.73333333  0.26666667  0.16985794
   0.73333333  0.26666667  0.26837554
   0.93333333  0.46666667  0.26837554
   0.73333341  0.06666634  0.60809141
   0.73333309  0.06666617  0.70660902
   0.93333356  0.06666666  0.70660902
   0.93333333  0.86666667  0.16985794
   0.73333333  0.06666667  0.16985794
   0.93333277  0.06666611  0.60809141
   0.73333333  0.06666667  0.26837554
   0.93333333  0.26666667  0.16985794
   0.93333367  0.26666659  0.70660902
   0.93333333  0.86666667  0.26837554
   0.73333333  0.46666667  0.26837554
   0.73333333  0.46666667  0.16985794
   0.73333333  0.86666667  0.16985794
   0.73333333  0.86666645  0.70660902
   0.73333333  0.86666667  0.26837554
   0.93333333  0.46666667  0.16985794
   0.73333303  0.86666493  0.60809141
   0.73332822  0.66666112  0.60809141
   0.73333339  0.66666641  0.70660902
   0.93333348  0.46666655  0.70660902
   0.73333333  0.66666667  0.16985794
   0.93333212  0.46666655  0.60809141
   0.73333333  0.66666667  0.26837554
   0.93333294  0.26666639  0.60809141
   0.93333333  0.26666667  0.26837554
   0.73332795  0.46666651  0.60809141
   0.73333338  0.46666671  0.70660902
   0.93333333  0.66666667  0.26837554
   0.93333333  0.06666667  0.26837554
   0.93333333  0.66666667  0.16985794
   0.53333443  0.86666642  0.60809141
   0.53333355  0.06666677  0.70660902
   0.53333333  0.86666667  0.16985794
   0.33333333  0.26666667  0.16985794
   0.33333333  0.26666667  0.26837554
   0.33333377  0.06666632  0.60809141
   0.33333412  0.06666751  0.70660902
   0.33333333  0.06666667  0.16985794
   0.33333333  0.06666667  0.26837554
   0.13333298  0.86666597  0.60809141
   0.13333345  0.86666652  0.70660902
   0.13333333  0.86666667  0.16985794
   0.13333333  0.86666667  0.26837554
   0.13333266  0.66666671  0.60809141
   0.13333308  0.66666651  0.70660902
   0.33333429  0.26666718  0.70660902
   0.13333333  0.66666667  0.16985794
   0.13333321  0.46666653  0.60809141
   0.13333338  0.46666619  0.70660902
   0.13333333  0.46666667  0.16985794
   0.13333333  0.46666667  0.26837554
   0.13333375  0.26666703  0.60809141
   0.13333383  0.26666661  0.70660902
   0.13333333  0.26666667  0.16985794
   0.13333333  0.26666667  0.26837554
   0.13333326  0.06666574  0.60809141
   0.13333369  0.06666682  0.70660902
   0.13333333  0.06666667  0.16985794
   0.13333333  0.06666667  0.26837554
   0.13333333  0.66666667  0.26837554
   0.33333122  0.26666438  0.60809141
   0.33333333  0.46666667  0.26837554
   0.33333333  0.46666667  0.16985794
   0.53333333  0.86666667  0.26837554
   0.53333446  0.66666114  0.60809141
   0.53333257  0.66666582  0.70660902
   0.53333333  0.66666667  0.16985794
   0.53333333  0.66666667  0.26837554
   0.53334362  0.46667086  0.60809141
   0.53333260  0.46666598  0.70660902
   0.53333333  0.46666667  0.16985794
   0.53333333  0.46666667  0.26837554
   0.53333541  0.26667294  0.60809141
   0.53333213  0.26666598  0.70660902
   0.53333333  0.26666667  0.16985794
   0.53333333  0.26666667  0.26837554
   0.53333421  0.06666788  0.60809141
   0.93333342  0.86666643  0.70660902
   0.53333333  0.06666667  0.16985794
   0.53333333  0.06666667  0.26837554
   0.33333309  0.86666657  0.60809141
   0.33333360  0.86666688  0.70660902
   0.33333333  0.86666667  0.16985794
   0.33333333  0.86666667  0.26837554
   0.33333390  0.66666647  0.60809141
   0.33333414  0.66666627  0.70660902
   0.33333333  0.66666667  0.16985794
   0.33333333  0.66666667  0.26837554
   0.33333884  0.46666668  0.60809141
   0.33333433  0.46666635  0.70660902
   0.53333379  0.86666666  0.70660902
   0.93333220  0.86666515  0.60809141
Direct configuration=     5
   0.52006354  0.37398912  0.48532528
   0.44364267  0.38361657  0.50326952
   0.58935675  0.46527805  0.46802197
   0.55584655  0.53306365  0.47541048
   0.46474791  0.48165404  0.49735635
   0.33251568  0.31673489  0.40413038
   0.40682539  0.48180969  0.38947172
   0.32567084  0.40315716  0.41027673
   0.46247055  0.44443268  0.37068421
   0.41749348  0.34343136  0.37964208
   0.45285634  0.42148806  0.43806987
   0.42073074  0.51207123  0.50807236
   0.26823822  0.40746973  0.42661450
   0.28147442  0.24415029  0.41517184
   0.42381180  0.55708111  0.38870502
   0.53070792  0.48701869  0.35424384
   0.37863936  0.32558024  0.51766025
   0.52260660  0.30696241  0.48334929
   0.65541981  0.48049195  0.45184509
   0.59379023  0.60958511  0.46715954
   0.44465654  0.29552904  0.37041305
   0.59999908  0.59999746  0.65735022
   0.20000000  0.80000000  0.21911674
   0.20000087  0.60000031  0.65735022
   0.60000000  0.80000000  0.21911674
   0.20000000  0.60000000  0.21911674
   0.59999985  0.80000068  0.65735022
   0.20000000  0.40000000  0.21911674
   0.80000000  0.00000000  0.21911674
   0.19999916  0.19999895  0.65735022
   0.80000012  0.00000050  0.65735022
   0.20000000  0.20000000  0.21911674
   0.20000020  0.80000019  0.65735022
   0.19999917  0.39999954  0.65735022
   0.60000000  0.60000000  0.21911674
   0.40000000  0.60000000  0.21911674
   0.39999840 -0.00000057  0.65735022
   0.59999747  0.40000109  0.65735022
   0.40000000  0.20000000  0.21911674
   0.60000000  0.40000000  0.21911674
   0.40000061  0.20000005  0.65735022
   0.40000000  0.40000000  0.21911674
   0.59999983  0.19999965  0.65735022
   0.40000521  0.40000162  0.65735022
   0.60000000  0.20000000  0.21911674
   0.39999987  0.79999965  0.65735022
   0.40000119  0.60000098  0.65735022
   0.60000195 -0.00000026  0.65735022
   0.40000000  0.80000000  0.21911674
   0.60000000  0.00000000  0.21911674
   0.40000000  0.00000000  0.21911674
   0.80000000  0.20000000  0.21911674
   0.20000028  0.00000033  0.65735022
   0.20000000  0.00000000  0.21911674
   0.00000000  0.00000000  0.21911674
   0.80000009  0.79999946  0.65735022
  -0.00000033 -0.00000012  0.65735022
   0.80000000  0.80000000  0.21911674
   0.00000000  0.20000000  0.21911674
  -0.00000150  0.19999924  0.65735022
   0.80000020  0.60000076  0.65735022
   0.00000000  0.40000000  0.21911674
   0.00000001  0.39999779  0.65735022
   0.00000000  0.60000000  0.21911674
   0.79999929  0.39999988  0.65735022
   0.00000056  0.60000232  0.65735022
   0.80000000  0.60000000  0.21911674
   0.80000000  0.40000000  0.21911674
   0.00000021  0.79999973  0.65735022
   0.00000000  0.80000000  0.21911674
   0.80000063  0.19999904  0.65735022
   0.93333333  0.06666667  0.16985794
   0.73333309  0.26666716  0.60809141
   0.73333329  0.26666655  0.70660902
   0.93333326  0.66666653  0.70660902
   0.93333270  0.66666622  0.60809141
   0.73333333  0.26666667  0.16985794
   0.73333333  0.26666667  0.26837554
   0.93333333  0.46666667  0.26837554
   0.73333337  0.06666652  0.60809141
   0.73333322  0.06666644  0.70660902
   0.93333344  0.06666666  0.70660902
   0.93333333  0.86666667  0.16985794
   0.73333333  0.06666667  0.16985794
   0.93333307  0.06666641  0.60809141
   0.73333333  0.06666667  0.26837554
   0.93333333  0.26666667  0.16985794
   0.93333349  0.26666663  0.70660902
   0.93333333  0.86666667  0.26837554
   0.73333333  0.46666667  0.26837554
   0.73333333  0.46666667  0.16985794
   0.73333333  0.86666667  0.16985794
   0.73333333  0.86666657  0.70660902
   0.73333333  0.86666667  0.26837554
   0.93333333  0.46666667  0.16985794
   0.73333319  0.86666587  0.60809141