  93  93   0   0
  0.3967126E+02  0.9570947E-09  0.1276126E-08  0.3488026E-08  0.5000000E-15
  1.000000000000000E-004
  CAR 
 basalPlane                              
      2.32316434    -19.28443561  301      0.00746845      1.00000000
    -19.284  0.0000E+00  0.0000E+00
    -19.212  0.0000E+00  0.0000E+00
    -19.140  0.0000E+00  0.0000E+00
    -19.068  0.0000E+00  0.0000E+00
    -18.996  0.0000E+00  0.0000E+00
    -18.924  0.0000E+00  0.0000E+00
    -18.852  0.1387E-17  0.9992E-19
    -18.780  0.3261E-14  0.2349E-15
    -18.708  0.2850E-11  0.2055E-12
    -18.636  0.9039E-09  0.6531E-10
    -18.564  0.1048E-06  0.7615E-08
    -18.492  0.4486E-05  0.3307E-06
    -18.420  0.7174E-04  0.5498E-05
    -18.348  0.4344E-03  0.3679E-04
    -18.276  0.1008E-02  0.1094E-03
    -18.204  0.9030E-03  0.1744E-03
    -18.132  0.3156E-03  0.1972E-03
    -18.060  0.1055E-03  0.2048E-03
    -17.988  0.4099E-03  0.2343E-03
    -17.916  0.9900E-03  0.3056E-03
    -17.844  0.9272E-03  0.3724E-03
    -17.772  0.3348E-03  0.3965E-03
    -17.700  0.4625E-04  0.3998E-03
    -17.628  0.2413E-05  0.4000E-03
    -17.556  0.4694E-07  0.4000E-03
    -17.484  0.3363E-09  0.4000E-03
    -17.412  0.8795E-12  0.4000E-03
    -17.340  0.8339E-15  0.4000E-03
    -17.268  0.3083E-18  0.4000E-03
    -17.196  0.0000E+00  0.4000E-03
    -17.124  0.0000E+00  0.4000E-03
    -17.052  0.0000E+00  0.4000E-03
    -16.980  0.0000E+00  0.4000E-03
    -16.908  0.0000E+00  0.4000E-03
    -16.836  0.0000E+00  0.4000E-03
    -16.764  0.0000E+00  0.4000E-03
    -16.692  0.0000E+00  0.4000E-03
    -16.619  0.0000E+00  0.4000E-03
    -16.547  0.0000E+00  0.4000E-03
    -16.475  0.0000E+00  0.4000E-03
    -16.403  0.0000E+00  0.4000E-03
    -16.331  0.1272E-15  0.4000E-03
    -16.259  0.1815E-12  0.4000E-03
    -16.187  0.9455E-10  0.4000E-03
    -16.115  0.1812E-07  0.4000E-03
    -16.043  0.1290E-05  0.4001E-03
    -15.971  0.3454E-04  0.4026E-03
    -15.899  0.3526E-03  0.4280E-03
    -15.827  0.1391E-02  0.5282E-03
    -15.755  0.2144E-02  0.6826E-03
    -15.683  0.1295E-02  0.7759E-03
    -15.611  0.3055E-03  0.7979E-03
    -15.539  0.2781E-04  0.7999E-03
    -15.467  0.9647E-06  0.8000E-03
    -15.395  0.1301E-07  0.8000E-03
    -15.323  0.7315E-07  0.8000E-03
    -15.251  0.4490E-05  0.8003E-03
    -15.179  0.1039E-03  0.8078E-03
    -15.107  0.9196E-03  0.8740E-03
    -15.035  0.3151E-02  0.1101E-02
    -14.963  0.4226E-02  0.1405E-02
    -14.891  0.2324E-02  0.1573E-02
    -14.819  0.1392E-02  0.1673E-02
    -14.747  0.3264E-02  0.1908E-02
    -14.675  0.4858E-02  0.2258E-02
    -14.603  0.5390E-02  0.2646E-02
    -14.531  0.6705E-02  0.3129E-02
    -14.459  0.4879E-02  0.3480E-02
    -14.387  0.1511E-02  0.3589E-02
    -14.315  0.6135E-03  0.3633E-02
    -14.243  0.2261E-02  0.3796E-02
    -14.171  0.5291E-02  0.4177E-02
    -14.099  0.8783E-02  0.4810E-02
    -14.027  0.1352E-01  0.5784E-02
    -13.955  0.1323E-01  0.6736E-02
    -13.883  0.8545E-02  0.7352E-02
    -13.811  0.9162E-02  0.8012E-02
    -13.738  0.1313E-01  0.8957E-02
    -13.666  0.1295E-01  0.9890E-02
    -13.594  0.8378E-02  0.1049E-01
    -13.522  0.3449E-02  0.1074E-01
    -13.450  0.7340E-03  0.1079E-01
    -13.378  0.6714E-04  0.1080E-01
    -13.306  0.2419E-05  0.1080E-01
    -13.234  0.3309E-07  0.1080E-01
    -13.162  0.1686E-09  0.1080E-01
    -13.090  0.3160E-12  0.1080E-01
    -13.018  0.2164E-15  0.1080E-01
    -12.946  0.0000E+00  0.1080E-01
    -12.874  0.0000E+00  0.1080E-01
    -12.802  0.0000E+00  0.1080E-01
    -12.730  0.0000E+00  0.1080E-01
    -12.658  0.0000E+00  0.1080E-01
    -12.586  0.0000E+00  0.1080E-01
    -12.514  0.0000E+00  0.1080E-01
    -12.442  0.0000E+00  0.1080E-01
    -12.370  0.0000E+00  0.1080E-01
    -12.298  0.0000E+00  0.1080E-01
    -12.226  0.0000E+00  0.1080E-01
    -12.154  0.0000E+00  0.1080E-01
    -12.082  0.0000E+00  0.1080E-01
    -12.010  0.0000E+00  0.1080E-01
    -11.938  0.0000E+00  0.1080E-01
    -11.866  0.0000E+00  0.1080E-01
    -11.794  0.0000E+00  0.1080E-01
    -11.722  0.0000E+00  0.1080E-01
    -11.650  0.0000E+00  0.1080E-01
    -11.578  0.0000E+00  0.1080E-01
    -11.506  0.0000E+00  0.1080E-01
    -11.434  0.0000E+00  0.1080E-01
    -11.362  0.0000E+00  0.1080E-01
    -11.290  0.0000E+00  0.1080E-01
    -11.218  0.0000E+00  0.1080E-01
    -11.146  0.0000E+00  0.1080E-01
    -11.074  0.0000E+00  0.1080E-01
    -11.002  0.0000E+00  0.1080E-01
    -10.929  0.0000E+00  0.1080E-01
    -10.857  0.0000E+00  0.1080E-01
    -10.785  0.0000E+00  0.1080E-01
    -10.713  0.0000E+00  0.1080E-01
    -10.641  0.0000E+00  0.1080E-01
    -10.569  0.0000E+00  0.1080E-01
    -10.497  0.0000E+00  0.1080E-01
    -10.425  0.0000E+00  0.1080E-01
    -10.353  0.0000E+00  0.1080E-01
    -10.281  0.0000E+00  0.1080E-01
    -10.209  0.0000E+00  0.1080E-01
    -10.137  0.1723E-15  0.1080E-01
    -10.065  0.2249E-12  0.1080E-01
     -9.993  0.1065E-09  0.1080E-01
     -9.921  0.1846E-07  0.1080E-01
     -9.849  0.1188E-05  0.1080E-01
     -9.777  0.2901E-04  0.1080E-01
     -9.705  0.2792E-03  0.1082E-01
     -9.633  0.1121E-02  0.1090E-01
     -9.561  0.2074E-02  0.1105E-01
     -9.489  0.2352E-02  0.1122E-01
     -9.417  0.2644E-02  0.1141E-01
     -9.345  0.2609E-02  0.1160E-01
     -9.273  0.1795E-02  0.1173E-01
     -9.201  0.8208E-03  0.1179E-01
     -9.129  0.4267E-03  0.1182E-01
     -9.057  0.8455E-03  0.1188E-01
     -8.985  0.1049E-02  0.1196E-01
     -8.913  0.5118E-03  0.1199E-01
     -8.841  0.9584E-04  0.1200E-01
     -8.769  0.6807E-05  0.1200E-01
     -8.697  0.1809E-06  0.1200E-01
     -8.625  0.1778E-08  0.1200E-01
     -8.553  0.6395E-11  0.1200E-01
     -8.481  0.8353E-14  0.1200E-01
     -8.409  0.4008E-17  0.1200E-01
     -8.337  0.0000E+00  0.1200E-01
     -8.265  0.0000E+00  0.1200E-01
     -8.193  0.0000E+00  0.1200E-01
     -8.121  0.0000E+00  0.1200E-01
     -8.048  0.1541E-18  0.1200E-01
     -7.976  0.4866E-15  0.1200E-01
     -7.904  0.5814E-12  0.1200E-01
     -7.832  0.2539E-09  0.1200E-01
     -7.760  0.4087E-07  0.1200E-01
     -7.688  0.2450E-05  0.1200E-01
     -7.616  0.5539E-04  0.1200E-01
     -7.544  0.4803E-03  0.1204E-01
     -7.472  0.1646E-02  0.1216E-01
     -7.400  0.2508E-02  0.1234E-01
     -7.328  0.2566E-02  0.1252E-01
     -7.256  0.2348E-02  0.1269E-01
     -7.184  0.1308E-02  0.1279E-01
     -7.112  0.1283E-02  0.1288E-01
     -7.040  0.4899E-02  0.1323E-01
     -6.968  0.1070E-01  0.1400E-01
     -6.896  0.1103E-01  0.1480E-01
     -6.824  0.6784E-02  0.1529E-01
     -6.752  0.8302E-02  0.1588E-01
     -6.680  0.1314E-01  0.1683E-01
     -6.608  0.1232E-01  0.1772E-01
     -6.536  0.8211E-02  0.1831E-01
     -6.464  0.4638E-02  0.1864E-01
     -6.392  0.2079E-02  0.1879E-01
     -6.320  0.1231E-02  0.1888E-01
     -6.248  0.1097E-02  0.1896E-01
     -6.176  0.7632E-03  0.1901E-01
     -6.104  0.1294E-02  0.1911E-01
     -6.032  0.2305E-02  0.1927E-01
     -5.960  0.3022E-02  0.1949E-01
     -5.888  0.5399E-02  0.1988E-01
     -5.816  0.7574E-02  0.2043E-01
     -5.744  0.6225E-02  0.2087E-01
     -5.672  0.6889E-02  0.2137E-01
     -5.600  0.1629E-01  0.2254E-01
     -5.528  0.2416E-01  0.2428E-01
     -5.456  0.1728E-01  0.2553E-01
     -5.384  0.7742E-02  0.2609E-01
     -5.312  0.5722E-02  0.2650E-01
     -5.239  0.6556E-02  0.2697E-01
     -5.167  0.5406E-02  0.2736E-01
     -5.095  0.2788E-02  0.2756E-01
     -5.023  0.2650E-02  0.2775E-01
     -4.951  0.7233E-02  0.2827E-01
     -4.879  0.1085E-01  0.2905E-01
     -4.807  0.8441E-02  0.2966E-01
     -4.735  0.7261E-02  0.3018E-01
     -4.663  0.8330E-02  0.3078E-01
     -4.591  0.8013E-02  0.3136E-01
     -4.519  0.5915E-02  0.3179E-01
     -4.447  0.3288E-02  0.3202E-01
     -4.375  0.3629E-02  0.3229E-01
     -4.303  0.5808E-02  0.3270E-01
     -4.231  0.6489E-02  0.3317E-01
     -4.159  0.5869E-02  0.3359E-01
     -4.087  0.5365E-02  0.3398E-01
     -4.015  0.4056E-02  0.3427E-01
     -3.943  0.1517E-02  0.3438E-01
     -3.871  0.2559E-03  0.3440E-01
     -3.799  0.3794E-03  0.3443E-01
     -3.727  0.2017E-02  0.3457E-01
     -3.655  0.4891E-02  0.3493E-01
     -3.583  0.7625E-02  0.3547E-01
     -3.511  0.1181E-01  0.3633E-01
     -3.439  0.1481E-01  0.3739E-01
     -3.367  0.1298E-01  0.3833E-01
     -3.295  0.1007E-01  0.3905E-01
     -3.223  0.8111E-02  0.3964E-01
     -3.151  0.7009E-02  0.4014E-01
     -3.079  0.8730E-02  0.4077E-01
     -3.007  0.1099E-01  0.4156E-01
     -2.935  0.8833E-02  0.4220E-01
     -2.863  0.4766E-02  0.4254E-01
     -2.791  0.3764E-02  0.4281E-01
     -2.719  0.5471E-02  0.4321E-01
     -2.647  0.7704E-02  0.4376E-01
     -2.575  0.7564E-02  0.4431E-01
     -2.503  0.5640E-02  0.4471E-01
     -2.431  0.5248E-02  0.4509E-01
     -2.358  0.7652E-02  0.4564E-01
     -2.286  0.7944E-02  0.4621E-01
     -2.214  0.6385E-02  0.4667E-01
     -2.142  0.4791E-02  0.4702E-01
     -2.070  0.2193E-02  0.4718E-01
     -1.998  0.1255E-02  0.4727E-01
     -1.926  0.3102E-02  0.4749E-01
     -1.854  0.4305E-02  0.4780E-01
     -1.782  0.2758E-02  0.4800E-01
     -1.710  0.2066E-02  0.4815E-01
     -1.638  0.2157E-02  0.4830E-01
     -1.566  0.1102E-02  0.4838E-01
     -1.494  0.2213E-03  0.4840E-01
     -1.422  0.1701E-04  0.4840E-01
     -1.350  0.4930E-06  0.4840E-01
     -1.278  0.5323E-08  0.4840E-01
     -1.206  0.2119E-10  0.4840E-01
     -1.134  0.3084E-13  0.4840E-01
     -1.062  0.1603E-16  0.4840E-01
     -0.990  0.0000E+00  0.4840E-01
     -0.918  0.0000E+00  0.4840E-01
     -0.846  0.0000E+00  0.4840E-01
     -0.774  0.1016E-15  0.4840E-01
     -0.702  0.1420E-12  0.4840E-01
     -0.630  0.7183E-10  0.4840E-01
     -0.558  0.1324E-07  0.4840E-01
     -0.486  0.8962E-06  0.4840E-01
     -0.414  0.2254E-04  0.4840E-01
     -0.342  0.2133E-03  0.4842E-01
     -0.270  0.7700E-03  0.4847E-01
     -0.198  0.1080E-02  0.4855E-01
     -0.126  0.7228E-03  0.4860E-01
     -0.054  0.9791E-03  0.4867E-01
      0.018  0.2168E-02  0.4883E-01
      0.090  0.3264E-02  0.4906E-01
      0.162  0.4514E-02  0.4939E-01
      0.234  0.4415E-02  0.4971E-01
      0.306  0.3965E-02  0.4999E-01
      0.378  0.6827E-02  0.5048E-01
      0.451  0.1274E-01  0.5140E-01
      0.523  0.1696E-01  0.5262E-01
      0.595  0.1478E-01  0.5369E-01
      0.667  0.1333E-01  0.5465E-01
      0.739  0.1047E-01  0.5540E-01
      0.811  0.4567E-02  0.5573E-01
      0.883  0.1578E-02  0.5584E-01
      0.955  0.3507E-02  0.5610E-01
      1.027  0.8395E-02  0.5670E-01
      1.099  0.1135E-01  0.5752E-01
      1.171  0.1111E-01  0.5832E-01
      1.243  0.1018E-01  0.5905E-01
      1.315  0.8035E-02  0.5963E-01
      1.387  0.3975E-02  0.5992E-01
      1.459  0.1008E-02  0.5999E-01
      1.531  0.1188E-03  0.6000E-01
      1.603  0.6051E-05  0.6000E-01
      1.675  0.1253E-06  0.6000E-01
      1.747  0.1006E-08  0.6000E-01
      1.819  0.3040E-11  0.6000E-01
      1.891  0.3392E-14  0.6000E-01
      1.963  0.1233E-17  0.6000E-01
      2.035  0.0000E+00  0.6000E-01
      2.107  0.0000E+00  0.6000E-01
      2.179  0.0000E+00  0.6000E-01
      2.251  0.0000E+00  0.6000E-01
      2.323  0.0000E+00  0.6000E-01
