 running on   36 total cores
 distrk:  each k-point on   36 cores,    1 groups
 distr:  one band on    3 cores,   12 groups
 using from now: INCAR     
 vasp.5.4.1 05Feb16 (build Apr 21 2017 13:36:42) gamma-only                     
  
 POSCAR found :  5 types and      93 ions
 scaLAPACK will be used
 LDA part: xc-table for Pade appr. of Perdew
 POSCAR found :  5 types and      93 ions
 POSCAR, INCAR and KPOINTS ok, starting setup
 FFT: planning ...
 WAVECAR not read
 entering main loop
       N       E                     dE             d eps       ncg     rms          rms(c)
DAV:   1     0.434246326199E+04    0.43425E+04   -0.18046E+05   612   0.112E+03
DAV:   2    -0.279618489233E+02   -0.43704E+04   -0.42082E+04   996   0.264E+02
DAV:   3    -0.679746402964E+03   -0.65178E+03   -0.64280E+03   732   0.112E+02
DAV:   4    -0.713722144539E+03   -0.33976E+02   -0.33765E+02   864   0.318E+01
DAV:   5    -0.714992151803E+03   -0.12700E+01   -0.12632E+01   924   0.542E+00    0.123E+02
DAV:   6    -0.700023864635E+03    0.14968E+02   -0.60151E+02   816   0.300E+01    0.770E+01
DAV:   7    -0.709890743966E+03   -0.98669E+01   -0.86926E+02   876   0.613E+01    0.439E+01
DAV:   8    -0.672447647963E+03    0.37443E+02   -0.19351E+02   780   0.132E+01    0.324E+01
DAV:   9    -0.676991109311E+03   -0.45435E+01   -0.20044E+02   876   0.113E+01    0.357E+01
DAV:  10    -0.659470672347E+03    0.17520E+02   -0.21837E+02   756   0.667E+00    0.156E+01
DAV:  11    -0.659148895093E+03    0.32178E+00   -0.39946E+00   816   0.268E+00    0.137E+01
DAV:  12    -0.658849102150E+03    0.29979E+00   -0.53200E-01   960   0.114E+00    0.128E+01
DAV:  13    -0.658682255959E+03    0.16685E+00   -0.12885E+00   852   0.117E+00    0.105E+01
DAV:  14    -0.658749065662E+03   -0.66810E-01   -0.16993E+00   864   0.797E-01    0.932E+00
DAV:  15    -0.660167934427E+03   -0.14189E+01   -0.20207E+01   840   0.194E+00    0.182E+01
DAV:  16    -0.661714962782E+03   -0.15470E+01   -0.33968E+01   828   0.188E+00    0.173E+01
DAV:  17    -0.660950542900E+03    0.76442E+00   -0.27425E-01   840   0.632E-01    0.167E+01
DAV:  18    -0.660870161650E+03    0.80381E-01   -0.28373E-02   768   0.217E-01    0.166E+01
DAV:  19    -0.658615926623E+03    0.22542E+01   -0.16337E+00   900   0.172E+00    0.576E+00
DAV:  20    -0.658463176075E+03    0.15275E+00   -0.26449E-01   900   0.543E-01    0.335E+00
DAV:  21    -0.658439169193E+03    0.24007E-01   -0.52045E-02   924   0.220E-01    0.336E+00
DAV:  22    -0.658419132843E+03    0.20036E-01   -0.60153E-02   828   0.143E-01    0.298E+00
DAV:  23    -0.658423063951E+03   -0.39311E-02   -0.45709E-02   816   0.146E-01    0.313E+00
DAV:  24    -0.658417283819E+03    0.57801E-02   -0.75969E-02   804   0.256E-01    0.237E+00
DAV:  25    -0.658415684824E+03    0.15990E-02   -0.26805E-02   852   0.137E-01    0.236E+00
DAV:  26    -0.658377711196E+03    0.37974E-01   -0.33177E-02   768   0.153E-01    0.251E+00
DAV:  27    -0.658372094977E+03    0.56162E-02   -0.10042E-02   780   0.108E-01    0.208E+00
DAV:  28    -0.658373164246E+03   -0.10693E-02   -0.36602E-02   876   0.170E-01    0.214E+00
DAV:  29    -0.658360448277E+03    0.12716E-01   -0.49555E-03   732   0.779E-02    0.141E+00
DAV:  30    -0.658362420341E+03   -0.19721E-02   -0.17718E-02   732   0.817E-02    0.202E+00
DAV:  31    -0.658350143478E+03    0.12277E-01   -0.99118E-03   828   0.123E-01    0.201E+00
DAV:  32    -0.658324846066E+03    0.25297E-01   -0.41798E-03   756   0.618E-02    0.110E+00
DAV:  33    -0.658308925497E+03    0.15921E-01   -0.11267E-03   768   0.501E-02    0.876E-01
DAV:  34    -0.658300668710E+03    0.82568E-02   -0.46819E-04   636   0.341E-02    0.892E-01
DAV:  35    -0.658291020817E+03    0.96479E-02   -0.10112E-03   672   0.323E-02    0.860E-01
DAV:  36    -0.658275317327E+03    0.15703E-01   -0.19725E-03   768   0.489E-02    0.928E-01
DAV:  37    -0.658264194756E+03    0.11123E-01   -0.81563E-04   756   0.446E-02    0.989E-01
DAV:  38    -0.658254456272E+03    0.97385E-02   -0.97730E-04   660   0.370E-02    0.996E-01
DAV:  39    -0.658241623725E+03    0.12833E-01   -0.12857E-03   768   0.483E-02    0.973E-01
DAV:  40    -0.658238461152E+03    0.31626E-02   -0.35727E-04   588   0.239E-02    0.962E-01
DAV:  41    -0.658237085578E+03    0.13756E-02   -0.72432E-05   396   0.109E-02    0.949E-01
DAV:  42    -0.658236118283E+03    0.96729E-03   -0.22858E-05   360   0.827E-03    0.951E-01
DAV:  43    -0.658231535493E+03    0.45828E-02   -0.19516E-04   540   0.214E-02    0.915E-01
DAV:  44    -0.658232887439E+03   -0.13519E-02   -0.81370E-05   420   0.106E-02    0.931E-01
DAV:  45    -0.658231869700E+03    0.10177E-02   -0.80185E-05   396   0.784E-03    0.916E-01
DAV:  46    -0.658231789306E+03    0.80394E-04   -0.34845E-05   372   0.591E-03
   1 F= -.67314335E+03 E0= -.67308747E+03  d E =-.673143E+03
 curvature:   0.00 expect dE= 0.000E+00 dE for cont linesearch  0.000E+00
 trial: gam= 0.00000 g(F)=  0.139E+00 g(S)=  0.000E+00 ort = 0.000E+00 (trialstep = 0.100E+01)
 search vector abs. value=  0.139E+00
 bond charge predicted
       N       E                     dE             d eps       ncg     rms          rms(c)
DAV:   1    -0.658234131272E+03   -0.22616E-02   -0.10665E+01   600   0.486E+00    0.253E+00
DAV:   2    -0.659074545387E+03   -0.84041E+00   -0.93337E+00   876   0.187E+00    0.154E+01
DAV:   3    -0.658360992968E+03    0.71355E+00   -0.11005E+01   840   0.863E-01    0.248E+00
DAV:   4    -0.658349291392E+03    0.11702E-01   -0.20603E+00   840   0.338E-01    0.414E+00
DAV:   5    -0.658274648752E+03    0.74643E-01   -0.15109E+00   888   0.247E-01    0.157E+00
DAV:   6    -0.658232553711E+03    0.42095E-01   -0.71839E-01   876   0.295E-01    0.235E+00
DAV:   7    -0.658210013250E+03    0.22540E-01   -0.63610E-01   876   0.228E-01    0.129E+00
DAV:   8    -0.658190389585E+03    0.19624E-01   -0.32689E-02   876   0.149E-01    0.110E+00
DAV:   9    -0.658183049200E+03    0.73404E-02   -0.21785E-02   852   0.849E-02    0.676E-01
DAV:  10    -0.658178683874E+03    0.43653E-02   -0.11087E-02   720   0.720E-02    0.667E-01
DAV:  11    -0.658176554590E+03    0.21293E-02   -0.99256E-03   828   0.757E-02    0.304E-01
DAV:  12    -0.658175448888E+03    0.11057E-02   -0.67006E-03   744   0.564E-02    0.262E-01
DAV:  13    -0.658175317528E+03    0.13136E-03   -0.91332E-03   648   0.469E-02    0.336E-01
DAV:  14    -0.658174981713E+03    0.33581E-03   -0.35679E-03   576   0.369E-02    0.212E-01
DAV:  15    -0.658174985043E+03   -0.33293E-05   -0.22706E-03   468   0.201E-02    0.183E-01
DAV:  16    -0.658174949692E+03    0.35351E-04   -0.16297E-03   456   0.183E-02    0.104E-01
DAV:  17    -0.658175089792E+03   -0.14010E-03   -0.92262E-04   456   0.167E-02    0.959E-02
DAV:  18    -0.658175164562E+03   -0.74770E-04   -0.47056E-04   420   0.132E-02
   2 F= -.67310552E+03 E0= -.67304091E+03  d E =0.378308E-01
 trial-energy change:    0.037831  1 .order   -0.057628   -0.139332    0.024075
 step:   0.8527(harm=  0.8527)  dis= 0.00790  next Energy=  -673.202749 (dE=-0.594E-01)
 bond charge predicted
       N       E                     dE             d eps       ncg     rms          rms(c)
DAV:   1    -0.658179122519E+03   -0.40327E-02   -0.23212E-01   648   0.719E-01    0.337E-01
DAV:   2    -0.658180089555E+03   -0.96704E-03   -0.10758E-02   756   0.169E-01    0.275E-01
DAV:   3    -0.658181186346E+03   -0.10968E-02   -0.62851E-03   708   0.645E-02    0.449E-01
DAV:   4    -0.658181072126E+03    0.11422E-03   -0.88692E-03   624   0.710E-02    0.505E-01
DAV:   5    -0.658180727094E+03    0.34503E-03   -0.41170E-03   564   0.567E-02    0.345E-01
DAV:   6    -0.658180323850E+03    0.40324E-03   -0.12612E-03   456   0.254E-02    0.234E-01
DAV:   7    -0.658180072551E+03    0.25130E-03   -0.15986E-03   492   0.206E-02    0.115E-01
DAV:   8    -0.658180029238E+03    0.43312E-04   -0.10113E-03   420   0.145E-02    0.117E-01
DAV:   9    -0.658179988458E+03    0.40781E-04   -0.59895E-04   420   0.111E-02
   3 F= -.67310749E+03 E0= -.67304318E+03  d E =0.358578E-01
 curvature:  -0.43 expect dE=-0.158E-01 dE for cont linesearch -0.344E-06
 trial: gam= 0.26315 g(F)=  0.370E-01 g(S)=  0.000E+00 ort = 0.335E-03 (trialstep = 0.971E+00)
 search vector abs. value=  0.468E-01
 bond charge predicted
       N       E                     dE             d eps       ncg     rms          rms(c)
DAV:   1    -0.658133380539E+03    0.46649E-01   -0.42551E+00   648   0.258E+00    0.156E+00
DAV:   2    -0.658394040955E+03   -0.26066E+00   -0.15208E+00   852   0.140E+00    0.400E+00
DAV:   3    -0.658193906458E+03    0.20013E+00   -0.12449E+00   888   0.856E-01    0.196E+00
DAV:   4    -0.658171905369E+03    0.22001E-01   -0.41626E-01   888   0.254E-01    0.164E+00
DAV:   5    -0.658153297005E+03    0.18608E-01   -0.17235E-01   876   0.254E-01    0.124E+00
DAV:   6    -0.658155875996E+03   -0.25790E-02   -0.14460E-01   828   0.226E-01    0.118E+00
DAV:   7    -0.658146261681E+03    0.96143E-02   -0.87712E-02   864   0.134E-01    0.935E-01
DAV:   8    -0.658143234096E+03    0.30276E-02   -0.60334E-02   816   0.801E-02    0.561E-01
DAV:   9    -0.658140917052E+03    0.23170E-02   -0.19565E-02   552   0.476E-02    0.460E-01
DAV:  10    -0.658140223815E+03    0.69324E-03   -0.14322E-02   744   0.473E-02    0.282E-01
DAV:  11    -0.658139635277E+03    0.58854E-03   -0.46710E-03   492   0.334E-02    0.191E-01
DAV:  12    -0.658139553989E+03    0.81288E-04   -0.32316E-03   456   0.224E-02    0.187E-01
DAV:  13    -0.658139414625E+03    0.13936E-03   -0.19760E-03   432   0.166E-02    0.797E-02
DAV:  14    -0.658139428359E+03   -0.13734E-04   -0.11373E-03   420   0.142E-02    0.134E-01
DAV:  15    -0.658139354888E+03    0.73471E-04   -0.78196E-04   420   0.991E-03
   4 F= -.67307721E+03 E0= -.67301285E+03  d E =0.302805E-01
 trial-energy change:    0.030281  1 .order    0.030784   -0.035996    0.097563
 step:   0.2659(harm=  0.2616)  dis= 0.00265  next Energy=  -673.112432 (dE=-0.494E-02)
 bond charge predicted
       N       E                     dE             d eps       ncg     rms          rms(c)
DAV:   1    -0.658178339313E+03   -0.38911E-01   -0.22417E+00   624   0.188E+00    0.855E-01
DAV:   2    -0.658420498013E+03   -0.24216E+00   -0.19877E+00   828   0.710E-01    0.942E+00
DAV:   3    -0.658250872549E+03    0.16963E+00   -0.28457E+00   852   0.402E-01    0.129E+00
DAV:   4    -0.658201044740E+03    0.49828E-01   -0.18145E-01   900   0.182E-01    0.153E+00
DAV:   5    -0.658194088611E+03    0.69561E-02   -0.14448E-01   708   0.824E-02    0.973E-01
DAV:   6    -0.658188356434E+03    0.57322E-02   -0.95478E-03   648   0.807E-02    0.764E-01
DAV:   7    -0.658186147672E+03    0.22088E-02   -0.94962E-03   864   0.101E-01    0.717E-01
DAV:   8    -0.658184196227E+03    0.19514E-02   -0.83235E-03   684   0.558E-02    0.209E-01
DAV:   9    -0.658183365152E+03    0.83108E-03   -0.65902E-03   636   0.466E-02    0.439E-01
DAV:  10    -0.658182794534E+03    0.57062E-03   -0.44995E-03   492   0.363E-02    0.133E-01
DAV:  11    -0.658182527941E+03    0.26659E-03   -0.26861E-03   420   0.279E-02    0.252E-01
DAV:  12    -0.658182327702E+03    0.20024E-03   -0.17210E-03   396   0.161E-02    0.990E-02
DAV:  13    -0.658182289153E+03    0.38548E-04   -0.12203E-03   396   0.141E-02    0.158E-01
DAV:  14    -0.658182192477E+03    0.96676E-04   -0.63813E-04   384   0.909E-03
   5 F= -.67311250E+03 E0= -.67304849E+03  d E =-.501093E-02
 curvature:  -0.17 expect dE=-0.125E-02 dE for cont linesearch -0.166E-06
 trial: gam= 0.19457 g(F)=  0.759E-02 g(S)=  0.000E+00 ort =-0.217E-03 (trialstep = 0.830E+00)
 search vector abs. value=  0.928E-02
 bond charge predicted
       N       E                     dE             d eps       ncg     rms          rms(c)
DAV:   1    -0.658180369956E+03    0.19192E-02   -0.49309E-01   624   0.107E+00    0.526E-01
DAV:   2    -0.658196561999E+03   -0.16192E-01   -0.61961E-02   840   0.361E-01    0.987E-01
DAV:   3    -0.658186972337E+03    0.95897E-02   -0.83534E-02   888   0.263E-01    0.126E+00
DAV:   4    -0.658186417146E+03    0.55519E-03   -0.13973E-02   780   0.116E-01    0.644E-01
DAV:   5    -0.658183864670E+03    0.25525E-02   -0.12271E-03   576   0.418E-02    0.490E-01
DAV:   6    -0.658183109618E+03    0.75505E-03   -0.35651E-03   816   0.735E-02    0.463E-01
DAV:   7    -0.658182240327E+03    0.86929E-03   -0.12083E-03   600   0.441E-02    0.306E-01
DAV:   8    -0.658181957809E+03    0.28252E-03   -0.13800E-03   384   0.245E-02    0.200E-01
DAV:   9    -0.658181738816E+03    0.21899E-03   -0.11157E-03   444   0.220E-02    0.143E-01
DAV:  10    -0.658181690377E+03    0.48438E-04   -0.77160E-04   384   0.148E-02
   6 F= -.67311525E+03 E0= -.67305034E+03  d E =-.274671E-02
 trial-energy change:   -0.002747  1 .order   -0.002732   -0.006262    0.000797
 step:   0.7359(harm=  0.7359)  dis= 0.00206  next Energy=  -673.115278 (dE=-0.278E-02)
 bond charge predicted
       N       E                     dE             d eps       ncg     rms          rms(c)
DAV:   1    -0.658182050332E+03   -0.31152E-03   -0.68429E-03   612   0.123E-01    0.726E-02
DAV:   2    -0.658182241879E+03   -0.19155E-03   -0.20663E-03   408   0.351E-02    0.200E-01
DAV:   3    -0.658182175120E+03    0.66759E-04   -0.28205E-03   384   0.239E-02    0.123E-01
DAV:   4    -0.658182273362E+03   -0.98243E-04   -0.18076E-03   456   0.248E-02    0.188E-01
DAV:   5    -0.658182098750E+03    0.17461E-03   -0.64579E-04   408   0.178E-02    0.442E-02
DAV:   6    -0.658182086448E+03    0.12302E-04   -0.19086E-04   384   0.881E-03
   7 F= -.67311527E+03 E0= -.67305120E+03  d E =-.277309E-02
 curvature:  -0.45 expect dE=-0.266E-03 dE for cont linesearch -0.104E-05
 ZBRENT: interpolating
 opt :   0.7220  next Energy=  -673.115275 (dE=-0.277E-02)
 bond charge predicted
       N       E                     dE             d eps       ncg     rms          rms(c)
DAV:   1    -0.658182120108E+03   -0.21358E-04   -0.29973E-04   420   0.192E-02    0.344E-02
DAV:   2    -0.658182193528E+03   -0.73420E-04   -0.43802E-04   360   0.119E-02
   8 F= -.67311533E+03 E0= -.67305123E+03  d E =-.282516E-02
 curvature:  -0.44 expect dE=-0.277E-03 dE for cont linesearch -0.351E-05
 ZBRENT: interpolating
 opt :   0.7310  next Energy=  -673.115274 (dE=-0.277E-02)
 bond charge predicted
       N       E                     dE             d eps       ncg     rms          rms(c)
DAV:   1    -0.658182099178E+03    0.20930E-04   -0.60563E-04   360   0.150E-02    0.492E-02
DAV:   2    -0.658182573046E+03   -0.47387E-03   -0.16397E-03   456   0.235E-02    0.306E-01
DAV:   3    -0.658182330945E+03    0.24210E-03   -0.19878E-03   456   0.301E-02    0.175E-01
DAV:   4    -0.658182170184E+03    0.16076E-03   -0.48149E-04   384   0.159E-02    0.118E-01
DAV:   5    -0.658182092114E+03    0.78070E-04   -0.16037E-04   360   0.786E-03
   9 F= -.67311526E+03 E0= -.67305076E+03  d E =-.275949E-02
 curvature:  -0.05 expect dE=-0.291E-04 dE for cont linesearch -0.229E-06
 ZBRENT: bisectioning
 opt :   0.7265  next Energy=  -673.115261 (dE=-0.276E-02)
 bond charge predicted
       N       E                     dE             d eps       ncg     rms          rms(c)
DAV:   1    -0.658182106242E+03    0.63941E-04   -0.54580E-05   384   0.945E-03    0.524E-02
DAV:   2    -0.658182223793E+03   -0.11755E-03   -0.38788E-04   384   0.835E-03    0.162E-01
DAV:   3    -0.658182289334E+03   -0.65541E-04   -0.77524E-04   432   0.174E-02
  10 F= -.67311544E+03 E0= -.67305331E+03  d E =-.293884E-02
 curvature:  -0.22 expect dE=-0.108E-03 dE for cont linesearch -0.218E-05
 ZBRENT: interpolating
 opt :   0.7241  next Energy=  -673.115326 (dE=-0.283E-02)
 bond charge predicted
       N       E                     dE             d eps       ncg     rms          rms(c)
DAV:   1    -0.658182165017E+03    0.58776E-04   -0.36975E-04   384   0.152E-02    0.750E-02
DAV:   2    -0.658182893153E+03   -0.72814E-03   -0.11048E-03   480   0.229E-02    0.382E-01
DAV:   3    -0.658182766930E+03    0.12622E-03   -0.25633E-03   516   0.408E-02    0.318E-01
DAV:   4    -0.658182320051E+03    0.44688E-03   -0.74075E-04   456   0.233E-02    0.157E-01
DAV:   5    -0.658182168257E+03    0.15179E-03   -0.13432E-04   396   0.102E-02    0.604E-02
DAV:   6    -0.658182136199E+03    0.32057E-04   -0.50698E-05   384   0.781E-03
  11 F= -.67311528E+03 E0= -.67305122E+03  d E =-.277630E-02
 curvature:  -0.03 expect dE=-0.180E-04 dE for cont linesearch -0.368E-08
 trial: gam= 0.06793 g(F)=  0.603E-03 g(S)=  0.000E+00 ort =-0.338E-04 (trialstep = 0.809E+00)
 search vector abs. value=  0.641E-03
 bond charge predicted
       N       E                     dE             d eps       ncg     rms          rms(c)
DAV:   1    -0.658182485156E+03   -0.31690E-03   -0.47990E-02   600   0.253E-01    0.949E-02
DAV:   2    -0.658186324115E+03   -0.38390E-02   -0.92245E-03   732   0.102E-01    0.651E-01
DAV:   3    -0.658182818725E+03    0.35054E-02   -0.62258E-03   660   0.735E-02    0.117E-01
DAV:   4    -0.658182677795E+03    0.14093E-03   -0.36528E-04   480   0.199E-02    0.150E-01
DAV:   5    -0.658182607597E+03    0.70198E-04   -0.19898E-04   420   0.147E-02
  12 F= -.67311552E+03 E0= -.67305154E+03  d E =-.246433E-03
 trial-energy change:   -0.000246  1 .order   -0.000218   -0.000486    0.000051
 step:   0.7321(harm=  0.7321)  dis= 0.00097  next Energy=  -673.115497 (dE=-0.220E-03)
 bond charge predicted
       N       E                     dE             d eps       ncg     rms          rms(c)
DAV:   1    -0.658182545104E+03    0.13269E-03   -0.73598E-04   576   0.289E-02    0.767E-02
DAV:   2    -0.658182832373E+03   -0.28727E-03   -0.19466E-03   504   0.175E-02    0.255E-01
DAV:   3    -0.658182958683E+03   -0.12631E-03   -0.30634E-03   516   0.280E-02    0.244E-01
DAV:   4    -0.658182659338E+03    0.29934E-03   -0.12389E-03   480   0.217E-02    0.118E-01
DAV:   5    -0.658182560759E+03    0.98579E-04   -0.46783E-04   432   0.109E-02
  13 F= -.67311550E+03 E0= -.67305149E+03  d E =-.220782E-03
 curvature:  -0.39 expect dE=-0.373E-03 dE for cont linesearch -0.326E-07
 trial: gam= 1.58227 g(F)=  0.953E-03 g(S)=  0.000E+00 ort =-0.731E-05 (trialstep = 0.201E+00)
 search vector abs. value=  0.254E-02
 bond charge predicted
       N       E                     dE             d eps       ncg     rms          rms(c)
DAV:   1    -0.658182866594E+03   -0.20726E-03   -0.11267E-02   600   0.113E-01    0.694E-02
DAV:   2    -0.658184641327E+03   -0.17747E-02   -0.34166E-03   540   0.590E-02    0.505E-01
DAV:   3    -0.658183139388E+03    0.15019E-02   -0.33042E-03   564   0.531E-02    0.134E-01
DAV:   4    -0.658182978798E+03    0.16059E-03   -0.24851E-04   432   0.156E-02    0.124E-01
DAV:   5    -0.658182911080E+03    0.67719E-04   -0.20688E-04   432   0.120E-02
  14 F= -.67311566E+03 E0= -.67305169E+03  d E =-.162396E-03
 trial-energy change:   -0.000162  1 .order   -0.000148   -0.000189   -0.000106
 step:   0.4588(harm=  0.4588)  dis= 0.00125  next Energy=  -673.115714 (dE=-0.216E-03)
 bond charge predicted
       N       E                     dE             d eps       ncg     rms          rms(c)
DAV:   1    -0.658183263781E+03   -0.28498E-03   -0.18588E-02   624   0.145E-01    0.985E-02
DAV:   2    -0.658186000979E+03   -0.27372E-02   -0.64014E-03   684   0.755E-02    0.555E-01
DAV:   3    -0.658183347569E+03    0.26534E-02   -0.64818E-03   624   0.696E-02    0.136E-01
DAV:   4    -0.658183312123E+03    0.35446E-04   -0.79927E-04   432   0.178E-02
  15 F= -.67311582E+03 E0= -.67305276E+03  d E =-.322184E-03
 curvature:  -0.62 expect dE=-0.256E-03 dE for cont linesearch -0.991E-05
 ZBRENT: increasing intervall
 opt :   0.9753  next Energy=  -673.115754 (dE=-0.257E-03)
 bond charge predicted
       N       E                     dE             d eps       ncg     rms          rms(c)
DAV:   1    -0.658183667604E+03   -0.32004E-03   -0.74890E-02   624   0.289E-01    0.119E-01
DAV:   2    -0.658185649760E+03   -0.19822E-02   -0.10001E-02   720   0.867E-02    0.549E-01
DAV:   3    -0.658184361681E+03    0.12881E-02   -0.98068E-03   624   0.640E-02    0.303E-01
DAV:   4    -0.658184033857E+03    0.32782E-03   -0.23948E-03   528   0.290E-02    0.210E-01
DAV:   5    -0.658183901676E+03    0.13218E-03   -0.11741E-03   432   0.131E-02    0.150E-01
DAV:   6    -0.658183767943E+03    0.13373E-03   -0.73060E-04   480   0.184E-02    0.815E-02
DAV:   7    -0.658183815126E+03   -0.47183E-04   -0.12944E-03   396   0.133E-02    0.140E-01
DAV:   8    -0.658183748461E+03    0.66664E-04   -0.94427E-04   420   0.109E-02
  16 F= -.67311578E+03 E0= -.67305145E+03  d E =-.278263E-03
 curvature:   4.07 expect dE= 0.473E-02 dE for cont linesearch  0.612E-04
 ZBRENT: bracketing found
 ZBRENT: interpolating
 opt :   0.7213  next Energy=  -673.115801 (dE=-0.303E-03)
 bond charge predicted
       N       E                     dE             d eps       ncg     rms          rms(c)
DAV:   1    -0.658183518259E+03    0.29687E-03   -0.18418E-02   624   0.143E-01    0.870E-02
DAV:   2    -0.658184195733E+03   -0.67747E-03   -0.28384E-03   600   0.439E-02    0.364E-01
DAV:   3    -0.658184180280E+03    0.15453E-04   -0.41031E-03   552   0.481E-02    0.286E-01
DAV:   4    -0.658183579847E+03    0.60043E-03   -0.12344E-03   480   0.273E-02    0.779E-02
DAV:   5    -0.658183525692E+03    0.54155E-04   -0.34556E-04   384   0.835E-03
  17 F= -.67311579E+03 E0= -.67305141E+03  d E =-.291330E-03
 curvature:  -1.65 expect dE=-0.967E-03 dE for cont linesearch -0.408E-06
 trial: gam= 0.50714 g(F)=  0.586E-03 g(S)=  0.000E+00 ort = 0.250E-04 (trialstep = 0.305E+00)
 search vector abs. value=  0.126E-02
 bond charge predicted
       N       E                     dE             d eps       ncg     rms          rms(c)
DAV:   1    -0.658183821909E+03   -0.24206E-03   -0.10635E-02   624   0.121E-01    0.631E-02
DAV:   2    -0.658185162912E+03   -0.13410E-02   -0.32505E-03   708   0.608E-02    0.429E-01
DAV:   3    -0.658183984962E+03    0.11780E-02   -0.27410E-03   600   0.483E-02    0.107E-01
DAV:   4    -0.658183910695E+03    0.74268E-04   -0.22117E-04   384   0.139E-02
  18 F= -.67311600E+03 E0= -.67305222E+03  d E =-.206810E-03
 trial-energy change:   -0.000207  1 .order   -0.000151   -0.000183   -0.000119
 step:   0.8774(harm=  0.8774)  dis= 0.00130  next Energy=  -673.116052 (dE=-0.263E-03)
 bond charge predicted
       N       E                     dE             d eps       ncg     rms          rms(c)
DAV:   1    -0.658184195983E+03   -0.21102E-03   -0.36422E-02   636   0.226E-01    0.813E-02
DAV:   2    -0.658184733307E+03   -0.53732E-03   -0.20019E-03   792   0.702E-02    0.297E-01
DAV:   3    -0.658184566485E+03    0.16682E-03   -0.15986E-03   564   0.380E-02    0.218E-01
DAV:   4    -0.658184444779E+03    0.12171E-03   -0.59332E-04   468   0.246E-02    0.169E-01
DAV:   5    -0.658184317077E+03    0.12770E-03   -0.10833E-04   360   0.114E-02    0.836E-02
DAV:   6    -0.658184279040E+03    0.38037E-04   -0.91605E-05   384   0.953E-03
  19 F= -.67311603E+03 E0= -.67305178E+03  d E =-.241467E-03
 curvature:  -0.93 expect dE=-0.428E-03 dE for cont linesearch -0.115E-07
 trial: gam= 0.95226 g(F)=  0.463E-03 g(S)=  0.000E+00 ort =-0.396E-05 (trialstep = 0.331E+00)
 search vector abs. value=  0.160E-02
 bond charge predicted
       N       E                     dE             d eps       ncg     rms          rms(c)
DAV:   1    -0.658184506045E+03   -0.18897E-03   -0.13763E-02   612   0.127E-01    0.963E-02
DAV:   2    -0.658187077009E+03   -0.25710E-02   -0.47195E-03   696   0.740E-02    0.597E-01
DAV:   3    -0.658185051462E+03    0.20255E-02   -0.54542E-03   588   0.682E-02    0.232E-01
DAV:   4    -0.658184791443E+03    0.26002E-03   -0.34819E-04   444   0.207E-02    0.204E-01
DAV:   5    -0.658184641331E+03    0.15011E-03   -0.14681E-04   408   0.143E-02    0.102E-01
DAV:   6    -0.658184551940E+03    0.89391E-04   -0.12196E-04   432   0.149E-02
  20 F= -.67311617E+03 E0= -.67305191E+03  d E =-.137329E-03
 trial-energy change:   -0.000137  1 .order   -0.000120   -0.000152   -0.000088
 step:   0.7821(harm=  0.7821)  dis= 0.00166  next Energy=  -673.116210 (dE=-0.179E-03)
 bond charge predicted
       N       E                     dE             d eps       ncg     rms          rms(c)
DAV:   1    -0.658184725337E+03   -0.84007E-04   -0.26117E-02   624   0.176E-01    0.125E-01
DAV:   2    -0.658189742748E+03   -0.50174E-02   -0.10711E-02   768   0.110E-01    0.764E-01
DAV:   3    -0.658185383513E+03    0.43592E-02   -0.99563E-03   660   0.904E-02    0.202E-01
DAV:   4    -0.658185019400E+03    0.36411E-03   -0.53649E-04   468   0.260E-02    0.194E-01
DAV:   5    -0.658184869314E+03    0.15009E-03   -0.38762E-04   444   0.198E-02    0.118E-01
DAV:   6    -0.658184752992E+03    0.11632E-03   -0.25779E-04   444   0.171E-02    0.838E-02
DAV:   7    -0.658184748087E+03    0.49043E-05   -0.26157E-04   360   0.119E-02
  21 F= -.67311618E+03 E0= -.67305073E+03  d E =-.149415E-03
 curvature:  -1.36 expect dE=-0.124E-02 dE for cont linesearch -0.785E-06
 trial: gam= 1.76417 g(F)=  0.905E-03 g(S)=  0.000E+00 ort = 0.304E-04 (trialstep = 0.112E+00)
 search vector abs. value=  0.600E-02
 bond charge predicted
       N       E                     dE             d eps       ncg     rms          rms(c)
DAV:   1    -0.658184840726E+03   -0.87734E-04   -0.59248E-03   600   0.899E-02    0.473E-02
DAV:   2    -0.658185722980E+03   -0.88225E-03   -0.22410E-03   564   0.446E-02    0.359E-01
DAV:   3    -0.658184877513E+03    0.84547E-03   -0.18452E-03   504   0.378E-02    0.807E-02
DAV:   4    -0.658184844797E+03    0.32716E-04   -0.23482E-04   384   0.104E-02
  22 F= -.67311623E+03 E0= -.67305197E+03  d E =-.452657E-04
 trial-energy change:   -0.000045  1 .order   -0.000089   -0.000108   -0.000071
 step:   0.3266(harm=  0.3266)  dis= 0.00090  next Energy=  -673.116336 (dE=-0.157E-03)
 bond charge predicted
       N       E                     dE             d eps       ncg     rms          rms(c)
DAV:   1    -0.658185021880E+03   -0.14437E-03   -0.21486E-02   624   0.170E-01    0.724E-02
DAV:   2    -0.658185469117E+03   -0.44724E-03   -0.15338E-03   552   0.486E-02    0.286E-01
DAV:   3    -0.658185443445E+03    0.25672E-04   -0.19736E-03   492   0.366E-02    0.264E-01
DAV:   4    -0.658185162481E+03    0.28096E-03   -0.59863E-04   468   0.226E-02    0.123E-01
DAV:   5    -0.658185102418E+03    0.60063E-04   -0.71397E-05   360   0.104E-02
  23 F= -.67311639E+03 E0= -.67305159E+03  d E =-.205373E-03
 curvature:  -1.02 expect dE=-0.786E-03 dE for cont linesearch -0.442E-04
 ZBRENT: increasing intervall
 opt :   0.7549  next Energy=  -673.116553 (dE=-0.373E-03)
 bond charge predicted
       N       E                     dE             d eps       ncg     rms          rms(c)
DAV:   1    -0.658185244970E+03   -0.82489E-04   -0.84503E-02   600   0.338E-01    0.119E-01
DAV:   2    -0.658189710787E+03   -0.44658E-02   -0.10936E-02   888   0.124E-01    0.652E-01
DAV:   3    -0.658185468896E+03    0.42419E-02   -0.75828E-03   672   0.820E-02    0.128E-01
DAV:   4    -0.658185386356E+03    0.82540E-04   -0.28683E-04   444   0.193E-02
  24 F= -.67311648E+03 E0= -.67305344E+03  d E =-.295938E-03
 curvature:  -3.86 expect dE=-0.562E-02 dE for cont linesearch -0.172E-05
 trial: gam= 1.24968 g(F)=  0.145E-02 g(S)=  0.000E+00 ort =-0.517E-04 (trialstep = 0.135E+00)
 search vector abs. value=  0.107E-01
 bond charge predicted
       N       E                     dE             d eps       ncg     rms          rms(c)
DAV:   1    -0.658185557728E+03   -0.88832E-04   -0.14123E-02   600   0.148E-01    0.939E-02
DAV:   2    -0.658186604186E+03   -0.10465E-02   -0.15352E-03   648   0.518E-02    0.434E-01
DAV:   3    -0.658186239053E+03    0.36513E-03   -0.30794E-03   600   0.509E-02    0.330E-01
DAV:   4    -0.658185793641E+03    0.44541E-03   -0.84958E-04   468   0.278E-02    0.183E-01
DAV:   5    -0.658185666605E+03    0.12704E-03   -0.12916E-04   384   0.145E-02    0.137E-01
DAV:   6    -0.658185579011E+03    0.87594E-04   -0.14408E-04   408   0.127E-02
  25 F= -.67311659E+03 E0= -.67305191E+03  d E =-.114905E-03
 trial-energy change:   -0.000115  1 .order   -0.000152   -0.000188   -0.000117
 step:   0.3585(harm=  0.3585)  dis= 0.00123  next Energy=  -673.116725 (dE=-0.249E-03)
 bond charge predicted
       N       E                     dE             d eps       ncg     rms          rms(c)
DAV:   1    -0.658185711829E+03   -0.45223E-04   -0.39545E-02   600   0.245E-01    0.114E-01
DAV:   2    -0.658187979117E+03   -0.22673E-02   -0.52317E-03   792   0.818E-02    0.582E-01
DAV:   3    -0.658186713497E+03    0.12656E-02   -0.66408E-03   624   0.702E-02    0.380E-01
DAV:   4    -0.658186126568E+03    0.58693E-03   -0.11205E-03   516   0.303E-02    0.217E-01
DAV:   5    -0.658185887869E+03    0.23870E-03   -0.19776E-04   408   0.147E-02    0.116E-01
DAV:   6    -0.658185781666E+03    0.10620E-03   -0.14302E-04   420   0.161E-02    0.724E-02
DAV:   7    -0.658185793402E+03   -0.11736E-04   -0.63565E-05   360   0.124E-02
  26 F= -.67311668E+03 E0= -.67305125E+03  d E =-.201438E-03
 curvature:  -1.38 expect dE=-0.147E-02 dE for cont linesearch -0.406E-06
 trial: gam= 0.72299 g(F)=  0.106E-02 g(S)=  0.000E+00 ort = 0.561E-04 (trialstep = 0.180E+00)
 search vector abs. value=  0.673E-02
 bond charge predicted
       N       E                     dE             d eps       ncg     rms          rms(c)
DAV:   1    -0.658185887000E+03   -0.10533E-03   -0.13466E-02   600   0.144E-01    0.512E-02
DAV:   2    -0.658186594322E+03   -0.70732E-03   -0.16716E-03   672   0.505E-02    0.317E-01
DAV:   3    -0.658185927625E+03    0.66670E-03   -0.13316E-03   504   0.377E-02    0.840E-02
DAV:   4    -0.658185897939E+03    0.29686E-04   -0.96401E-05   360   0.108E-02
  27 F= -.67311678E+03 E0= -.67305263E+03  d E =-.996278E-04
 trial-energy change:   -0.000100  1 .order   -0.000169   -0.000199   -0.000140
 step:   0.6105(harm=  0.6105)  dis= 0.00146  next Energy=  -673.117015 (dE=-0.337E-03)
 bond charge predicted
       N       E                     dE             d eps       ncg     rms          rms(c)
DAV:   1    -0.658186019430E+03   -0.91805E-04   -0.77940E-02   600   0.343E-01    0.112E-01
DAV:   2    -0.658186962560E+03   -0.94313E-03   -0.39622E-03   840   0.905E-02    0.374E-01
DAV:   3    -0.658186944132E+03    0.18428E-04   -0.39092E-03   552   0.528E-02    0.395E-01
DAV:   4    -0.658186414375E+03    0.52976E-03   -0.12255E-03   504   0.321E-02    0.178E-01
DAV:   5    -0.658186250925E+03    0.16345E-03   -0.13565E-04   372   0.145E-02    0.126E-01
DAV:   6    -0.658186175491E+03    0.75434E-04   -0.11364E-04   372   0.140E-02
  28 F= -.67311704E+03 E0= -.67305234E+03  d E =-.366471E-03
 curvature:  -1.86 expect dE=-0.169E-02 dE for cont linesearch -0.472E-04
 ZBRENT: increasing intervall
 opt :   1.4717  next Energy=  -673.117084 (dE=-0.407E-03)
 bond charge predicted
       N       E                     dE             d eps       ncg     rms          rms(c)
DAV:   1    -0.658185547933E+03    0.70299E-03   -0.31007E-01   600   0.685E-01    0.246E-01
DAV:   2    -0.658193810303E+03   -0.82624E-02   -0.24541E-02   864   0.210E-01    0.923E-01
DAV:   3    -0.658188209378E+03    0.56009E-02   -0.23115E-02   804   0.139E-01    0.565E-01
DAV:   4    -0.658187490020E+03    0.71936E-03   -0.26893E-03   624   0.489E-02    0.428E-01
DAV:   5    -0.658186836921E+03    0.65310E-03   -0.67894E-04   480   0.302E-02    0.287E-01
DAV:   6    -0.658186287519E+03    0.54940E-03   -0.11075E-03   660   0.372E-02    0.177E-01
DAV:   7    -0.658186223862E+03    0.63658E-04   -0.22510E-04   396   0.253E-02
  29 F= -.67311708E+03 E0= -.67305050E+03  d E =-.397881E-03
 curvature:  -1.59 expect dE=-0.710E-02 dE for cont linesearch -0.584E-04
 ZBRENT: bracketing found
 ZBRENT: interpolating
 opt :   1.0014  next Energy=  -673.117125 (dE=-0.447E-03)
 bond charge predicted
       N       E                     dE             d eps       ncg     rms          rms(c)
DAV:   1    -0.658186076323E+03    0.21120E-03   -0.94363E-02   600   0.377E-01    0.112E-01
DAV:   2    -0.658186535603E+03   -0.45928E-03   -0.38238E-03   852   0.824E-02    0.247E-01
DAV:   3    -0.658186558494E+03   -0.22892E-04   -0.21576E-03   552   0.338E-02    0.247E-01
DAV:   4    -0.658186450639E+03    0.10786E-03   -0.16496E-03   468   0.352E-02    0.198E-01
DAV:   5    -0.658186192044E+03    0.25860E-03   -0.59641E-04   420   0.195E-02    0.624E-02
DAV:   6    -0.658186186716E+03    0.53277E-05   -0.35440E-04   348   0.913E-03
  30 F= -.67311705E+03 E0= -.67305224E+03  d E =-.369257E-03
 curvature:  -2.20 expect dE=-0.491E-02 dE for cont linesearch -0.269E-04
 ZBRENT: interpolating
 opt :   0.8413  next Energy=  -673.117069 (dE=-0.392E-03)
 bond charge predicted
       N       E                     dE             d eps       ncg     rms          rms(c)
DAV:   1    -0.658186165171E+03    0.26873E-04   -0.10631E-02   600   0.126E-01    0.463E-02
DAV:   2    -0.658186248640E+03   -0.83469E-04   -0.12861E-03   552   0.305E-02    0.127E-01
DAV:   3    -0.658186218995E+03    0.29645E-04   -0.15065E-03   384   0.155E-02    0.776E-02
DAV:   4    -0.658186265214E+03   -0.46219E-04   -0.85920E-04   396   0.169E-02
  31 F= -.67311713E+03 E0= -.67305102E+03  d E =-.451062E-03
 curvature:  -1.88 expect dE=-0.283E-02 dE for cont linesearch -0.290E-05
 trial: gam= 1.30835 g(F)=  0.151E-02 g(S)=  0.000E+00 ort = 0.102E-03 (trialstep = 0.158E+00)
 search vector abs. value=  0.133E-01
 bond charge predicted
       N       E                     dE             d eps       ncg     rms          rms(c)
DAV:   1    -0.658186329178E+03   -0.11018E-03   -0.17884E-02   600   0.161E-01    0.581E-02
DAV:   2    -0.658186447781E+03   -0.11860E-03   -0.83915E-04   756   0.433E-02    0.133E-01
DAV:   3    -0.658186581171E+03   -0.13339E-03   -0.77391E-04   444   0.239E-02    0.186E-01
DAV:   4    -0.658186458532E+03    0.12264E-03   -0.56259E-04   420   0.242E-02    0.121E-01
DAV:   5    -0.658186387796E+03    0.70736E-04   -0.64480E-05   324   0.940E-03
  32 F= -.67311728E+03 E0= -.67305322E+03  d E =-.150790E-03
 ZBRENT: can't locate minimum, use default step
 trial-energy change:   -0.000151  1 .order   -0.000232   -0.000259   -0.000205
 step:   0.6321(harm=  0.7605)  dis= 0.00243  next Energy=  -673.117752 (dE=-0.624E-03)
 bond charge predicted
       N       E                     dE             d eps       ncg     rms          rms(c)
DAV:   1    -0.658186342167E+03    0.11636E-03   -0.15849E-01   600   0.478E-01    0.163E-01
DAV:   2    -0.658187407297E+03   -0.10651E-02   -0.61978E-03   852   0.125E-01    0.350E-01
DAV:   3    -0.658188890842E+03   -0.14835E-02   -0.60767E-03   648   0.752E-02    0.737E-01
DAV:   4    -0.658187341400E+03    0.15494E-02   -0.30976E-03   540   0.526E-02    0.236E-01
DAV:   5    -0.658186904445E+03    0.43695E-03   -0.44138E-04   432   0.243E-02    0.186E-01
DAV:   6    -0.658186758902E+03    0.14554E-03   -0.25981E-04   384   0.160E-02    0.697E-02
DAV:   7    -0.658186810267E+03   -0.51364E-04   -0.21449E-04   324   0.145E-02
  33 F= -.67311779E+03 E0= -.67305184E+03  d E =-.659846E-03
 curvature:  -2.94 expect dE=-0.457E-02 dE for cont linesearch -0.106E-03
 ZBRENT: increasing intervall
 opt :   1.5801  next Energy=  -673.117870 (dE=-0.742E-03)
 bond charge predicted
       N       E                     dE             d eps       ncg     rms          rms(c)
DAV:   1    -0.658184806690E+03    0.19522E-02   -0.63297E-01   600   0.955E-01    0.338E-01
DAV:   2    -0.658194221372E+03   -0.94147E-02   -0.42619E-02   900   0.293E-01    0.826E-01
DAV:   3    -0.658189871689E+03    0.43497E-02   -0.41391E-02   828   0.185E-01    0.973E-01
DAV:   4    -0.658188439147E+03    0.14325E-02   -0.72299E-03   684   0.778E-02    0.475E-01
DAV:   5    -0.658187193562E+03    0.12456E-02   -0.90642E-04   576   0.369E-02    0.348E-01
DAV:   6    -0.658186402319E+03    0.79124E-03   -0.10082E-03   552   0.343E-02    0.159E-01
DAV:   7    -0.658186494386E+03   -0.92066E-04   -0.14984E-03   432   0.252E-02    0.269E-01
DAV:   8    -0.658186299529E+03    0.19486E-03   -0.13909E-03   372   0.240E-02    0.127E-01
DAV:   9    -0.658186245836E+03    0.53692E-04   -0.12181E-03   372   0.189E-02    0.161E-01
DAV:  10    -0.658186180331E+03    0.65505E-04   -0.85472E-04   348   0.132E-02
  34 F= -.67311734E+03 E0= -.67305210E+03  d E =-.211990E-03
 curvature:  -2.27 expect dE=-0.241E-01 dE for cont linesearch -0.194E-03
 ZBRENT: bracketing found
 ZBRENT: interpolating
 opt :   1.0060  next Energy=  -673.117918 (dE=-0.789E-03)
 bond charge predicted
       N       E                     dE             d eps       ncg     rms          rms(c)
DAV:   1    -0.658186134605E+03    0.11123E-03   -0.23405E-01   600   0.579E-01    0.196E-01
DAV:   2    -0.658186857462E+03   -0.72286E-03   -0.85933E-03   876   0.137E-01    0.191E-01
DAV:   3    -0.658186946638E+03   -0.89175E-04   -0.42359E-03   516   0.315E-02    0.230E-01
DAV:   4    -0.658186862000E+03    0.84638E-04   -0.44797E-03   408   0.242E-02    0.168E-01
DAV:   5    -0.658186990424E+03   -0.12842E-03   -0.36003E-03   444   0.307E-02    0.229E-01
DAV:   6    -0.658186721393E+03    0.26903E-03   -0.15399E-03   468   0.314E-02    0.117E-01
DAV:   7    -0.658186685808E+03    0.35585E-04   -0.27723E-04   384   0.164E-02
  35 F= -.67311773E+03 E0= -.67305410E+03  d E =-.605783E-03
 curvature:  -1.52 expect dE=-0.614E-02 dE for cont linesearch -0.173E-04
 ZBRENT: interpolating
 opt :   0.8716  next Energy=  -673.117760 (dE=-0.632E-03)
 bond charge predicted
       N       E                     dE             d eps       ncg     rms          rms(c)
DAV:   1    -0.658186645087E+03    0.76306E-04   -0.12675E-02   600   0.136E-01    0.588E-02
DAV:   2    -0.658186732365E+03   -0.87278E-04   -0.49526E-04   672   0.375E-02
  36 F= -.67311776E+03 E0= -.67305421E+03  d E =-.626819E-03
 curvature:  -2.30 expect dE=-0.805E-02 dE for cont linesearch -0.793E-06
 trial: gam= 2.34192 g(F)=  0.350E-02 g(S)=  0.000E+00 ort = 0.677E-04 (trialstep = 0.521E-01)
 search vector abs. value=  0.768E-01
 bond charge predicted
       N       E                     dE             d eps       ncg     rms          rms(c)
DAV:   1    -0.658187029352E+03   -0.38426E-03   -0.11071E-02   612   0.128E-01    0.209E-01
DAV:   2    -0.658202935231E+03   -0.15906E-01   -0.44815E-02   864   0.189E-01    0.109E+00
DAV:   3    -0.658188404898E+03    0.14530E-01   -0.32902E-02   804   0.159E-01    0.347E-01
DAV:   4    -0.658187668062E+03    0.73684E-03   -0.11688E-03   492   0.330E-02    0.325E-01
DAV:   5    -0.658187172708E+03    0.49535E-03   -0.71830E-04   528   0.301E-02    0.165E-01
DAV:   6    -0.658187063238E+03    0.10947E-03   -0.28272E-04   348   0.211E-02    0.168E-01
DAV:   7    -0.658186928217E+03    0.13502E-03   -0.10707E-04   348   0.142E-02    0.733E-02
DAV:   8    -0.658186879262E+03    0.48954E-04   -0.52044E-05   348   0.980E-03
  37 F= -.67311791E+03 E0= -.67305425E+03  d E =-.151977E-03
 ZBRENT: can't locate minimum, use default step
 trial-energy change:   -0.000152  1 .order   -0.000177   -0.000191   -0.000163
 step:   0.2084(harm=  0.3622)  dis= 0.00213  next Energy=  -673.118419 (dE=-0.663E-03)
 bond charge predicted
       N       E                     dE             d eps       ncg     rms          rms(c)
DAV:   1    -0.658186988430E+03   -0.60213E-04   -0.97360E-02   600   0.376E-01    0.122E-01
DAV:   2    -0.658187319211E+03   -0.33078E-03   -0.33403E-03   852   0.873E-02    0.158E-01
DAV:   3    -0.658188516692E+03   -0.11975E-02   -0.35398E-03   588   0.525E-02    0.417E-01
DAV:   4    -0.658187284168E+03    0.12325E-02   -0.18951E-03   480   0.441E-02    0.926E-02
DAV:   5    -0.658187236937E+03    0.47231E-04   -0.10645E-04   348   0.122E-02
  38 F= -.67311828E+03 E0= -.67305461E+03  d E =-.526006E-03
 curvature:  -2.86 expect dE=-0.559E-02 dE for cont linesearch -0.193E-03
 ZBRENT: increasing intervall
 opt :   0.5210  next Energy=  -673.118723 (dE=-0.968E-03)
 bond charge predicted
       N       E                     dE             d eps       ncg     rms          rms(c)
DAV:   1    -0.658186553355E+03    0.73081E-03   -0.38770E-01   600   0.751E-01    0.239E-01
DAV:   2    -0.658187437713E+03   -0.88436E-03   -0.11895E-02   864   0.170E-01    0.146E-01
DAV:   3    -0.658188229022E+03   -0.79131E-03   -0.16465E-03   684   0.551E-02    0.464E-01
DAV:   4    -0.658187574124E+03    0.65490E-03   -0.17442E-03   504   0.410E-02    0.183E-01
DAV:   5    -0.658187503166E+03    0.70958E-04   -0.33123E-04   504   0.232E-02
  39 F= -.67311859E+03 E0= -.67305390E+03  d E =-.830026E-03
 curvature:  -6.56 expect dE=-0.216E-01 dE for cont linesearch -0.324E-04
 trial: gam= 0.97040 g(F)=  0.329E-02 g(S)=  0.000E+00 ort =-0.616E-03 (trialstep = 0.146E+00)
 search vector abs. value=  0.744E-01
 bond charge predicted
       N       E                     dE             d eps       ncg     rms          rms(c)
DAV:   1    -0.658187541795E+03    0.32329E-04   -0.88782E-02   600   0.374E-01    0.116E-01
DAV:   2    -0.658188283395E+03   -0.74160E-03   -0.32526E-03   876   0.872E-02    0.309E-01
DAV:   3    -0.658188253700E+03    0.29696E-04   -0.26534E-03   540   0.511E-02    0.347E-01
DAV:   4    -0.658187779522E+03    0.47418E-03   -0.12055E-03   456   0.332E-02    0.133E-01
DAV:   5    -0.658187661048E+03    0.11847E-03   -0.26327E-04   360   0.175E-02    0.776E-02
DAV:   6    -0.658187657645E+03    0.34027E-05   -0.40912E-04   324   0.120E-02
  40 F= -.67311873E+03 E0= -.67305408E+03  d E =-.149254E-03
 ZBRENT: can't locate minimum, use default step
 trial-energy change:   -0.000149  1 .order   -0.000350   -0.000392   -0.000308
 step:   0.5835(harm=  0.6771)  dis= 0.00528  next Energy=  -673.119496 (dE=-0.911E-03)
 bond charge predicted
       N       E                     dE             d eps       ncg     rms          rms(c)
DAV:   1    -0.658186513431E+03    0.11476E-02   -0.80166E-01   600   0.112E+00    0.310E-01
DAV:   2    -0.658188743508E+03   -0.22301E-02   -0.30701E-02   816   0.229E-01    0.395E-01
DAV:   3    -0.658190546629E+03   -0.18031E-02   -0.25363E-02   744   0.789E-02    0.756E-01
DAV:   4    -0.658190212114E+03    0.33451E-03   -0.20671E-02   636   0.855E-02    0.504E-01
DAV:   5    -0.658188314516E+03    0.18976E-02   -0.52500E-03   684   0.507E-02    0.216E-01
DAV:   6    -0.658188105880E+03    0.20864E-03   -0.28630E-03   456   0.221E-02    0.167E-01
DAV:   7    -0.658188099779E+03    0.61006E-05   -0.13867E-03   492   0.258E-02    0.172E-01
DAV:   8    -0.658187990612E+03    0.10917E-03   -0.45915E-04   408   0.220E-02    0.941E-02
DAV:   9    -0.658187964811E+03    0.25801E-04   -0.79690E-05   348   0.126E-02
  41 F= -.67311903E+03 E0= -.67305383E+03  d E =-.447956E-03
 curvature:  -9.07 expect dE=-0.385E-01 dE for cont linesearch -0.340E-04
 trial: gam= 1.01362 g(F)=  0.425E-02 g(S)=  0.000E+00 ort =-0.528E-03 (trialstep = 0.218E+00)
 search vector abs. value=  0.796E-01
 bond charge predicted
       N       E                     dE             d eps       ncg     rms          rms(c)
DAV:   1    -0.658188202871E+03   -0.21226E-03   -0.22627E-01   600   0.606E-01    0.151E-01
DAV:   2    -0.658189077797E+03   -0.87493E-03   -0.62121E-03   828   0.120E-01    0.326E-01
DAV:   3    -0.658190090362E+03   -0.10126E-02   -0.41848E-03   612   0.610E-02    0.443E-01
DAV:   4    -0.658188854428E+03    0.12359E-02   -0.26106E-03   660   0.534E-02    0.178E-01
DAV:   5    -0.658188835488E+03    0.18940E-04   -0.39981E-04   516   0.218E-02
  42 F= -.67311983E+03 E0= -.67305774E+03  d E =-.797934E-03
 trial-energy change:   -0.000798  1 .order   -0.000624   -0.000810   -0.000438
 step:   0.4752(harm=  0.4752)  dis= 0.00423  next Energy=  -673.119915 (dE=-0.882E-03)
 bond charge predicted
       N       E                     dE             d eps       ncg     rms          rms(c)
DAV:   1    -0.658188435397E+03    0.41903E-03   -0.31436E-01   600   0.715E-01    0.189E-01
DAV:   2    -0.658192735607E+03   -0.43002E-02   -0.12972E-02   852   0.163E-01    0.101E+00
DAV:   3    -0.658190230606E+03    0.25050E-02   -0.83700E-03   744   0.892E-02    0.394E-01
DAV:   4    -0.658189091375E+03    0.11392E-02   -0.83481E-04   588   0.349E-02    0.162E-01
DAV:   5    -0.658188993451E+03    0.97924E-04   -0.38648E-04   540   0.214E-02
  43 F= -.67311991E+03 E0= -.67305733E+03  d E =-.873849E-03
 curvature:  -5.10 expect dE=-0.128E-01 dE for cont linesearch -0.329E-06
 trial: gam= 0.57967 g(F)=  0.251E-02 g(S)=  0.000E+00 ort = 0.717E-04 (trialstep = 0.270E+00)
 search vector abs. value=  0.293E-01
 bond charge predicted
       N       E                     dE             d eps       ncg     rms          rms(c)
DAV:   1    -0.658189210900E+03   -0.11953E-03   -0.13400E-01   600   0.454E-01    0.156E-01
DAV:   2    -0.658189955016E+03   -0.74412E-03   -0.58225E-03   828   0.987E-02    0.349E-01
DAV:   3    -0.658190106223E+03   -0.15121E-03   -0.44621E-03   492   0.321E-02    0.342E-01
DAV:   4    -0.658190081966E+03    0.24257E-04   -0.40108E-03   480   0.391E-02    0.325E-01
DAV:   5    -0.658189521580E+03    0.56039E-03   -0.10933E-03   468   0.280E-02    0.118E-01
DAV:   6    -0.658189466928E+03    0.54652E-04   -0.19979E-04   396   0.150E-02
  44 F= -.67312023E+03 E0= -.67305668E+03  d E =-.325751E-03
 trial-energy change:   -0.000326  1 .order   -0.000512   -0.000687   -0.000338
 step:   0.5304(harm=  0.5304)  dis= 0.00259  next Energy=  -673.120583 (dE=-0.676E-03)
 bond charge predicted
       N       E                     dE             d eps       ncg     rms          rms(c)
DAV:   1    -0.658189308715E+03    0.21286E-03   -0.12457E-01   600   0.439E-01    0.123E-01
DAV:   2    -0.658189870031E+03   -0.56132E-03   -0.46115E-03   840   0.966E-02    0.274E-01
DAV:   3    -0.658190367037E+03   -0.49701E-03   -0.40523E-03   552   0.511E-02    0.352E-01
DAV:   4    -0.658189575665E+03    0.79137E-03   -0.16538E-03   504   0.393E-02    0.106E-01
DAV:   5    -0.658189545865E+03    0.29799E-04   -0.32292E-04   336   0.125E-02
  45 F= -.67312017E+03 E0= -.67305680E+03  d E =-.263463E-03
 curvature:  -3.05 expect dE=-0.108E-01 dE for cont linesearch -0.495E-06
 trial: gam= 1.38271 g(F)=  0.355E-02 g(S)=  0.000E+00 ort =-0.689E-04 (trialstep = 0.159E+00)
 search vector abs. value=  0.594E-01
 bond charge predicted
       N       E                     dE             d eps       ncg     rms          rms(c)
DAV:   1    -0.658189818687E+03   -0.24302E-03   -0.89256E-02   600   0.366E-01    0.123E-01
DAV:   2    -0.658190765241E+03   -0.94655E-03   -0.48104E-03   804   0.915E-02    0.417E-01
DAV:   3    -0.658190792641E+03   -0.27400E-04   -0.46825E-03   600   0.554E-02    0.334E-01
DAV:   4    -0.658190045176E+03    0.74747E-03   -0.96338E-04   504   0.328E-02    0.969E-02
DAV:   5    -0.658190007749E+03    0.37426E-04   -0.27900E-04   348   0.116E-02
  46 F= -.67312058E+03 E0= -.67305706E+03  d E =-.407068E-03
 ZBRENT: can't locate minimum, use default step
 trial-energy change:   -0.000407  1 .order   -0.000492   -0.000548   -0.000436
 step:   0.6350(harm=  0.7752)  dis= 0.00484  next Energy=  -673.121509 (dE=-0.134E-02)
 bond charge predicted
       N       E                     dE             d eps       ncg     rms          rms(c)
DAV:   1    -0.658189155824E+03    0.88935E-03   -0.80584E-01   600   0.110E+00    0.324E-01
DAV:   2    -0.658191222455E+03   -0.20666E-02   -0.25191E-02   828   0.238E-01    0.336E-01
DAV:   3    -0.658196347233E+03   -0.51248E-02   -0.21399E-02   900   0.122E-01    0.748E-01
DAV:   4    -0.658191057245E+03    0.52900E-02   -0.14155E-02   708   0.993E-02    0.216E-01
DAV:   5    -0.658191021385E+03    0.35860E-04   -0.25256E-03   516   0.278E-02    0.256E-01
DAV:   6    -0.658190937393E+03    0.83993E-04   -0.35170E-03   504   0.270E-02    0.193E-01
DAV:   7    -0.658191072220E+03   -0.13483E-03   -0.45281E-03   660   0.339E-02    0.273E-01
DAV:   8    -0.658190775565E+03    0.29666E-03   -0.32502E-03   456   0.285E-02    0.102E-01
DAV:   9    -0.658190760489E+03    0.15076E-04   -0.26339E-03   360   0.161E-02    0.153E-01
DAV:  10    -0.658190675818E+03    0.84671E-04   -0.14627E-03   360   0.127E-02    0.425E-02
DAV:  11    -0.658190692404E+03   -0.16586E-04   -0.86595E-04   348   0.920E-03
  47 F= -.67312110E+03 E0= -.67305717E+03  d E =-.934333E-03
 curvature:  -6.33 expect dE=-0.205E-01 dE for cont linesearch -0.543E-06
 trial: gam= 0.61407 g(F)=  0.324E-02 g(S)=  0.000E+00 ort =-0.715E-04 (trialstep = 0.254E+00)
 search vector abs. value=  0.256E-01
 bond charge predicted
       N       E                     dE             d eps       ncg     rms          rms(c)
DAV:   1    -0.658190785429E+03   -0.10961E-03   -0.10138E-01   600   0.381E-01    0.131E-01
DAV:   2    -0.658192618589E+03   -0.18332E-02   -0.64005E-03   888   0.116E-01    0.458E-01
DAV:   3    -0.658191496538E+03    0.11221E-02   -0.51645E-03   624   0.696E-02    0.314E-01
DAV:   4    -0.658191187072E+03    0.30947E-03   -0.57543E-04   456   0.286E-02    0.158E-01
DAV:   5    -0.658191089340E+03    0.97731E-04   -0.12419E-04   360   0.150E-02
  48 F= -.67312167E+03 E0= -.67305797E+03  d E =-.565495E-03
 trial-energy change:   -0.000565  1 .order   -0.000557   -0.000812   -0.000301
 step:   0.4037(harm=  0.4037)  dis= 0.00223  next Energy=  -673.121750 (dE=-0.645E-03)
 bond charge predicted
       N       E                     dE             d eps       ncg     rms          rms(c)
DAV:   1    -0.658190939158E+03    0.24791E-03   -0.34100E-02   600   0.223E-01    0.120E-01
DAV:   2    -0.658194921573E+03   -0.39824E-02   -0.84862E-03   900   0.112E-01    0.620E-01
DAV:   3    -0.658191038813E+03    0.38828E-02   -0.81376E-03   684   0.854E-02    0.134E-01
DAV:   4    -0.658191017358E+03    0.21455E-04   -0.35435E-04   396   0.209E-02
  49 F= -.67312170E+03 E0= -.67305947E+03  d E =-.593655E-03
 curvature:  -1.61 expect dE=-0.458E-02 dE for cont linesearch -0.120E-04
 trial: gam= 1.08016 g(F)=  0.283E-02 g(S)=  0.000E+00 ort =-0.436E-03 (trialstep = 0.229E+00)
 search vector abs. value=  0.317E-01
 bond charge predicted
       N       E                     dE             d eps       ncg     rms          rms(c)
DAV:   1    -0.658191025648E+03    0.13165E-04   -0.95683E-02   600   0.380E-01    0.138E-01
DAV:   2    -0.658193406036E+03   -0.23804E-02   -0.59829E-03   876   0.113E-01    0.558E-01
DAV:   3    -0.658192017982E+03    0.13881E-02   -0.64606E-03   588   0.763E-02    0.371E-01
DAV:   4    -0.658191559507E+03    0.45848E-03   -0.10867E-03   468   0.334E-02    0.221E-01
DAV:   5    -0.658191363323E+03    0.19618E-03   -0.17881E-04   384   0.162E-02    0.147E-01
DAV:   6    -0.658191244677E+03    0.11865E-03   -0.28135E-04   468   0.214E-02    0.988E-02
DAV:   7    -0.658191253014E+03   -0.83371E-05   -0.13980E-04   324   0.168E-02
  50 F= -.67312215E+03 E0= -.67305702E+03  d E =-.453735E-03
 ZBRENT: can't locate minimum, use default step
 trial-energy change:   -0.000454  1 .order   -0.000500   -0.000541   -0.000459
 step:   0.9154(harm=  1.5033)  dis= 0.00598  next Energy=  -673.123475 (dE=-0.178E-02)
 bond charge predicted
       N       E                     dE             d eps       ncg     rms          rms(c)
DAV:   1    -0.658189359300E+03    0.18854E-02   -0.86796E-01   600   0.114E+00    0.367E-01
DAV:   2    -0.658201122863E+03   -0.11764E-01   -0.54067E-02   888   0.325E-01    0.880E-01
DAV:   3    -0.658194546720E+03    0.65761E-02   -0.48421E-02   828   0.205E-01    0.934E-01
DAV:   4    -0.658193650929E+03    0.89579E-03   -0.78293E-03   732   0.825E-02    0.515E-01
DAV:   5    -0.658192226241E+03    0.14247E-02   -0.97940E-04   600   0.386E-02    0.366E-01
DAV:   6    -0.658191368033E+03    0.85821E-03   -0.12769E-03   612   0.383E-02    0.180E-01
DAV:   7    -0.658191392222E+03   -0.24189E-04   -0.18389E-03   456   0.274E-02    0.260E-01
DAV:   8    -0.658191226885E+03    0.16534E-03   -0.17842E-03   372   0.242E-02    0.138E-01
DAV:   9    -0.658191175814E+03    0.51071E-04   -0.15236E-03   372   0.214E-02    0.172E-01
DAV:  10    -0.658191100269E+03    0.75545E-04   -0.10904E-03   348   0.142E-02    0.829E-02
DAV:  11    -0.658191052415E+03    0.47853E-04   -0.66928E-04   360   0.118E-02
  51 F= -.67312261E+03 E0= -.67305795E+03  d E =-.915172E-03
 curvature:  -7.94 expect dE=-0.480E-01 dE for cont linesearch -0.182E-06
 trial: gam= 1.61229 g(F)=  0.604E-02 g(S)=  0.000E+00 ort = 0.269E-04 (trialstep = 0.131E+00)
 search vector abs. value=  0.886E-01
 bond charge predicted
       N       E                     dE             d eps       ncg     rms          rms(c)
DAV:   1    -0.658191300402E+03   -0.20013E-03   -0.93836E-02   600   0.379E-01    0.112E-01
DAV:   2    -0.658192245517E+03   -0.94511E-03   -0.54905E-03   864   0.942E-02    0.346E-01
DAV:   3    -0.658192137909E+03    0.10761E-03   -0.49098E-03   552   0.570E-02    0.378E-01
DAV:   4    -0.658191667505E+03    0.47040E-03   -0.12115E-03   456   0.324E-02    0.152E-01
DAV:   5    -0.658191552306E+03    0.11520E-03   -0.19995E-04   348   0.140E-02    0.104E-01
DAV:   6    -0.658191504274E+03    0.48031E-04   -0.23923E-04   360   0.131E-02
  52 F= -.67312331E+03 E0= -.67305930E+03  d E =-.693180E-03
 ZBRENT: can't locate minimum, use default step
 trial-energy change:   -0.000693  1 .order   -0.000732   -0.000797   -0.000667
 step:   0.5245(harm=  0.8042)  dis= 0.00556  next Energy=  -673.125058 (dE=-0.244E-02)
 bond charge predicted
       N       E                     dE             d eps       ncg     rms          rms(c)
DAV:   1    -0.658190208242E+03    0.13441E-02   -0.83744E-01   600   0.113E+00    0.320E-01
DAV:   2    -0.658197486032E+03   -0.72778E-02   -0.38453E-02   864   0.278E-01    0.779E-01
DAV:   3    -0.658196236484E+03    0.12495E-02   -0.32696E-02   816   0.164E-01    0.108E+00
DAV:   4    -0.658194246474E+03    0.19900E-02   -0.89209E-03   672   0.849E-02    0.481E-01
DAV:   5    -0.658192645607E+03    0.16009E-02   -0.93230E-04   660   0.384E-02    0.335E-01
DAV:   6    -0.658191989137E+03    0.65647E-03   -0.69920E-04   468   0.315E-02    0.174E-01
DAV:   7    -0.658192099948E+03   -0.11081E-03   -0.88217E-04   516   0.277E-02    0.269E-01
DAV:   8    -0.658191875744E+03    0.22420E-03   -0.50848E-04   396   0.204E-02    0.105E-01
DAV:   9    -0.658191846841E+03    0.28903E-04   -0.56151E-04   360   0.168E-02
  53 F= -.67312438E+03 E0= -.67305866E+03  d E =-.176629E-02
 curvature:  -4.85 expect dE=-0.284E-01 dE for cont linesearch -0.369E-04
 trial: gam= 0.96068 g(F)=  0.586E-02 g(S)=  0.000E+00 ort = 0.822E-03 (trialstep = 0.208E+00)
 search vector abs. value=  0.892E-01
 bond charge predicted
       N       E                     dE             d eps       ncg     rms          rms(c)
DAV:   1    -0.658191775990E+03    0.99754E-04   -0.25332E-01   600   0.628E-01    0.193E-01
DAV:   2    -0.658199433052E+03   -0.76571E-02   -0.24833E-02   912   0.204E-01    0.788E-01
DAV:   3    -0.658192564372E+03    0.68687E-02   -0.17859E-02   780   0.126E-01    0.230E-01
DAV:   4    -0.658192451156E+03    0.11322E-03   -0.68127E-04   552   0.286E-02    0.200E-01
DAV:   5    -0.658192385673E+03    0.65484E-04   -0.30114E-04   468   0.236E-02
  54 F= -.67312540E+03 E0= -.67306175E+03  d E =-.102432E-02
 trial-energy change:   -0.001024  1 .order   -0.001069   -0.001386   -0.000752
 step:   0.4555(harm=  0.4555)  dis= 0.00467  next Energy=  -673.125895 (dE=-0.151E-02)
 bond charge predicted
       N       E                     dE             d eps       ncg     rms          rms(c)
DAV:   1    -0.658191725463E+03    0.72569E-03   -0.35597E-01   600   0.745E-01    0.290E-01
DAV:   2    -0.658209319363E+03   -0.17594E-01   -0.60180E-02   924   0.278E-01    0.103E+00
DAV:   3    -0.658192490475E+03    0.16829E-01   -0.47099E-02   840   0.198E-01    0.279E-01
DAV:   4    -0.658192381386E+03    0.10909E-03   -0.52717E-03   780   0.432E-02    0.266E-01
DAV:   5    -0.658192250944E+03    0.13044E-03   -0.60120E-03   480   0.302E-02    0.187E-01
DAV:   6    -0.658192196493E+03    0.54450E-04   -0.49570E-03   480   0.284E-02    0.184E-01
DAV:   7    -0.658192219190E+03   -0.22697E-04   -0.46797E-03   444   0.267E-02    0.191E-01
DAV:   8    -0.658192193093E+03    0.26098E-04   -0.26490E-03   432   0.297E-02    0.181E-01
DAV:   9    -0.658192034000E+03    0.15909E-03   -0.11105E-03   348   0.161E-02    0.716E-02
DAV:  10    -0.658192012378E+03    0.21622E-04   -0.70080E-04   348   0.105E-02
  55 F= -.67312561E+03 E0= -.67306122E+03  d E =-.123156E-02
 curvature:  -3.05 expect dE=-0.981E-02 dE for cont linesearch -0.328E-05
 trial: gam= 0.60451 g(F)=  0.321E-02 g(S)=  0.000E+00 ort = 0.309E-03 (trialstep = 0.258E+00)
 search vector abs. value=  0.362E-01
 bond charge predicted
       N       E                     dE             d eps       ncg     rms          rms(c)
DAV:   1    -0.658192019136E+03    0.14864E-04   -0.15500E-01   600   0.489E-01    0.133E-01
DAV:   2    -0.658193588503E+03   -0.15694E-02   -0.68338E-03   876   0.119E-01    0.409E-01
DAV:   3    -0.658192992913E+03    0.59559E-03   -0.50239E-03   612   0.687E-02    0.384E-01
DAV:   4    -0.658192520475E+03    0.47244E-03   -0.89234E-04   468   0.325E-02    0.158E-01
DAV:   5    -0.658192401990E+03    0.11849E-03   -0.12713E-04   348   0.159E-02    0.107E-01
DAV:   6    -0.658192368417E+03    0.33572E-04   -0.16590E-04   372   0.162E-02
  56 F= -.67312627E+03 E0= -.67306192E+03  d E =-.657569E-03
 trial-energy change:   -0.000658  1 .order   -0.000714   -0.000876   -0.000553
 step:   0.6979(harm=  0.6979)  dis= 0.00434  next Energy=  -673.126798 (dE=-0.119E-02)
 bond charge predicted
       N       E                     dE             d eps       ncg     rms          rms(c)
DAV:   1    -0.658191147516E+03    0.12545E-02   -0.44907E-01   600   0.833E-01    0.224E-01
DAV:   2    -0.658195237960E+03   -0.40904E-02   -0.18737E-02   864   0.206E-01    0.640E-01
DAV:   3    -0.658194194335E+03    0.10436E-02   -0.13300E-02   780   0.112E-01    0.695E-01
DAV:   4    -0.658193060959E+03    0.11334E-02   -0.33743E-03   600   0.564E-02    0.338E-01
DAV:   5    -0.658192379464E+03    0.68150E-03   -0.51800E-04   540   0.305E-02    0.232E-01
DAV:   6    -0.658192160696E+03    0.21877E-03   -0.43650E-04   492   0.264E-02    0.126E-01
DAV:   7    -0.658192181876E+03   -0.21180E-04   -0.17370E-04   396   0.242E-02
  57 F= -.67312660E+03 E0= -.67306067E+03  d E =-.990226E-03
 curvature:  -3.71 expect dE=-0.231E-01 dE for cont linesearch -0.212E-04
 trial: gam= 2.21581 g(F)=  0.622E-02 g(S)=  0.000E+00 ort =-0.454E-03 (trialstep = 0.688E-01)
 search vector abs. value=  0.182E+00
 bond charge predicted
       N       E                     dE             d eps       ncg     rms          rms(c)
DAV:   1    -0.658192057620E+03    0.10308E-03   -0.52306E-02   600   0.284E-01    0.976E-02
DAV:   2    -0.658194428221E+03   -0.23706E-02   -0.62481E-03   912   0.981E-02    0.520E-01
DAV:   3    -0.658192195468E+03    0.22328E-02   -0.46336E-03   564   0.656E-02    0.138E-01
DAV:   4    -0.658192119555E+03    0.75913E-04   -0.18876E-04   348   0.171E-02
  58 F= -.67312671E+03 E0= -.67306366E+03  d E =-.107993E-03
 ZBRENT: can't locate minimum, use default step
 trial-energy change:   -0.000108  1 .order   -0.000334   -0.000358   -0.000310
 step:   0.2752(harm=  0.5085)  dis= 0.00397  next Energy=  -673.127926 (dE=-0.132E-02)
 bond charge predicted
       N       E                     dE             d eps       ncg     rms          rms(c)
DAV:   1    -0.658191351830E+03    0.84364E-03   -0.47459E-01   600   0.852E-01    0.253E-01
DAV:   2    -0.658192980153E+03   -0.16283E-02   -0.13471E-02   852   0.178E-01    0.385E-01
DAV:   3    -0.658197731519E+03   -0.47514E-02   -0.89764E-03   732   0.948E-02    0.125E+00
DAV:   4    -0.658194227743E+03    0.35038E-02   -0.81770E-03   612   0.811E-02    0.385E-01
DAV:   5    -0.658192685224E+03    0.15425E-02   -0.10337E-03   624   0.407E-02    0.264E-01
DAV:   6    -0.658192358691E+03    0.32653E-03   -0.26403E-04   396   0.207E-02    0.111E-01
DAV:   7    -0.658192459251E+03   -0.10056E-03   -0.39374E-04   432   0.207E-02    0.241E-01
DAV:   8    -0.658192290146E+03    0.16911E-03   -0.43986E-04   348   0.167E-02    0.792E-02
DAV:   9    -0.658192266062E+03    0.24084E-04   -0.38711E-04   360   0.127E-02
  59 F= -.67312737E+03 E0= -.67306192E+03  d E =-.768902E-03
 curvature:  -6.38 expect dE=-0.414E-01 dE for cont linesearch -0.200E-03
 ZBRENT: increasing intervall
 opt :   0.6881  next Energy=  -673.127483 (dE=-0.881E-03)
 bond charge predicted
       N       E                     dE             d eps       ncg     rms          rms(c)
DAV:   1    -0.658187479213E+03    0.48109E-02   -0.19088E+00   600   0.171E+00    0.482E-01
DAV:   2    -0.658192413486E+03   -0.49343E-02   -0.56846E-02   816   0.357E-01    0.423E-01
DAV:   3    -0.658215602695E+03   -0.23189E-01   -0.36216E-02   828   0.186E-01    0.303E+00
DAV:   4    -0.658199124703E+03    0.16478E-01   -0.25419E-02   828   0.144E-01    0.542E-01
DAV:   5    -0.658193345362E+03    0.57793E-02   -0.36597E-03   648   0.647E-02    0.554E-01
DAV:   6    -0.658192062729E+03    0.12826E-02   -0.10301E-03   552   0.389E-02    0.210E-01
DAV:   7    -0.658192150488E+03   -0.87759E-04   -0.10715E-03   612   0.359E-02    0.410E-01
DAV:   8    -0.658191637059E+03    0.51343E-03   -0.45578E-04   504   0.297E-02    0.960E-02
DAV:   9    -0.658191573719E+03    0.63340E-04   -0.27513E-04   372   0.211E-02
  60 F= -.67312772E+03 E0= -.67306141E+03  d E =-.112107E-02
 curvature:  -3.58 expect dE=-0.457E-01 dE for cont linesearch -0.220E-04
 trial: gam= 1.29039 g(F)=  0.127E-01 g(S)=  0.000E+00 ort =-0.106E-02 (trialstep = 0.112E+00)
 search vector abs. value=  0.313E+00
 bond charge predicted
       N       E                     dE             d eps       ncg     rms          rms(c)
DAV:   1    -0.658191496911E+03    0.14015E-03   -0.23222E-01   600   0.595E-01    0.201E-01
DAV:   2    -0.658192761715E+03   -0.12648E-02   -0.12323E-02   828   0.140E-01    0.397E-01
DAV:   3    -0.658195680483E+03   -0.29188E-02   -0.15089E-02   672   0.923E-02    0.102E+00
DAV:   4    -0.658192800234E+03    0.28802E-02   -0.62381E-03   588   0.651E-02    0.268E-01
DAV:   5    -0.658192158677E+03    0.64156E-03   -0.61882E-04   432   0.267E-02    0.217E-01
DAV:   6    -0.658191943622E+03    0.21506E-03   -0.32189E-04   396   0.172E-02    0.700E-02
DAV:   7    -0.658191983026E+03   -0.39404E-04   -0.16935E-04   348   0.161E-02
  61 F= -.67312856E+03 E0= -.67306303E+03  d E =-.837618E-03
 ZBRENT: can't locate minimum, use default step
 trial-energy change:   -0.000838  1 .order   -0.001161   -0.001274   -0.001048
 step:   0.4480(harm=  0.6317)  dis= 0.00894  next Energy=  -673.131316 (dE=-0.359E-02)
 bond charge predicted
       N       E                     dE             d eps       ncg     rms          rms(c)
DAV:   1    -0.658187538356E+03    0.44053E-02   -0.20825E+00   600   0.178E+00    0.520E-01
DAV:   2    -0.658193268796E+03   -0.57304E-02   -0.69555E-02   828   0.383E-01    0.514E-01
DAV:   3    -0.658214931228E+03   -0.21662E-01   -0.56549E-02   816   0.190E-01    0.291E+00
DAV:   4    -0.658199430431E+03    0.15501E-01   -0.37536E-02   840   0.150E-01    0.599E-01
DAV:   5    -0.658193725569E+03    0.57049E-02   -0.47977E-03   648   0.622E-02    0.533E-01
DAV:   6    -0.658192559406E+03    0.11662E-02   -0.30810E-03   576   0.386E-02    0.258E-01
DAV:   7    -0.658192412054E+03    0.14735E-03   -0.14619E-03   648   0.390E-02    0.359E-01
DAV:   8    -0.658191995349E+03    0.41671E-03   -0.52172E-04   516   0.298E-02    0.104E-01
DAV:   9    -0.658191921690E+03    0.73659E-04   -0.30114E-04   372   0.223E-02
  62 F= -.67312980E+03 E0= -.67306351E+03  d E =-.207607E-02
 curvature:  -7.60 expect dE=-0.770E-01 dE for cont linesearch -0.477E-05
 trial: gam= 0.74444 g(F)=  0.101E-01 g(S)=  0.000E+00 ort =-0.443E-03 (trialstep = 0.179E+00)
 search vector abs. value=  0.183E+00
 bond charge predicted
       N       E                     dE             d eps       ncg     rms          rms(c)
DAV:   1    -0.658191843945E+03    0.15140E-03   -0.33663E-01   600   0.723E-01    0.213E-01
DAV:   2    -0.658192971505E+03   -0.11276E-02   -0.12961E-02   840   0.160E-01    0.333E-01
DAV:   3    -0.658195227266E+03   -0.22558E-02   -0.11501E-02   744   0.799E-02    0.577E-01
DAV:   4    -0.658193147038E+03    0.20802E-02   -0.77348E-03   648   0.792E-02    0.324E-01
DAV:   5    -0.658192695383E+03    0.45165E-03   -0.59398E-04   444   0.255E-02    0.163E-01
DAV:   6    -0.658192645788E+03    0.49595E-04   -0.38857E-04   408   0.194E-02
  63 F= -.67313116E+03 E0= -.67306735E+03  d E =-.136082E-02
 ZBRENT: can't locate minimum, use default step
 trial-energy change:   -0.001361  1 .order   -0.001569   -0.001756   -0.001383
 step:   0.7168(harm=  0.8434)  dis= 0.01151  next Energy=  -673.133930 (dE=-0.413E-02)
 bond charge predicted
       N       E                     dE             d eps       ncg     rms          rms(c)
DAV:   1    -0.658185635532E+03    0.70599E-02   -0.30137E+00   600   0.216E+00    0.609E-01
DAV:   2    -0.658192936172E+03   -0.73006E-02   -0.89935E-02   816   0.464E-01    0.433E-01
DAV:   3    -0.658206178374E+03   -0.13242E-01   -0.19513E-02   804   0.183E-01    0.220E+00
DAV:   4    -0.658195266401E+03    0.10912E-01   -0.15427E-02   828   0.127E-01    0.496E-01
DAV:   5    -0.658192241299E+03    0.30251E-02   -0.19680E-03   648   0.477E-02    0.317E-01
DAV:   6    -0.658191972419E+03    0.26888E-03   -0.10268E-03   756   0.404E-02    0.263E-01
DAV:   7    -0.658191886052E+03    0.86367E-04   -0.19504E-03   600   0.285E-02    0.217E-01
DAV:   8    -0.658191772870E+03    0.11318E-03   -0.26190E-03   420   0.222E-02    0.160E-01
DAV:   9    -0.658191634292E+03    0.13858E-03   -0.22175E-03   420   0.203E-02    0.114E-01
DAV:  10    -0.658191604456E+03    0.29837E-04   -0.16709E-03   408   0.157E-02    0.973E-02
DAV:  11    -0.658191554645E+03    0.49811E-04   -0.93352E-04   384   0.127E-02
  64 F= -.67313201E+03 E0= -.67306746E+03  d E =-.220689E-02
 curvature:  -7.58 expect dE=-0.798E-01 dE for cont linesearch -0.296E-03
 ZBRENT: interpolating
 opt :   0.5785  next Energy=  -673.132191 (dE=-0.239E-02)
 bond charge predicted
       N       E                     dE             d eps       ncg     rms          rms(c)
DAV:   1    -0.658191865886E+03   -0.26143E-03   -0.20094E-01   600   0.557E-01    0.172E-01
DAV:   2    -0.658192714919E+03   -0.84903E-03   -0.93511E-03   816   0.126E-01    0.290E-01
DAV:   3    -0.658194277914E+03   -0.15630E-02   -0.98599E-03   684   0.653E-02    0.693E-01
DAV:   4    -0.658192882163E+03    0.13958E-02   -0.54344E-03   600   0.612E-02    0.268E-01
DAV:   5    -0.658192423432E+03    0.45873E-03   -0.90221E-04   420   0.226E-02    0.148E-01
DAV:   6    -0.658192318112E+03    0.10532E-03   -0.74227E-04   384   0.151E-02    0.915E-02
DAV:   7    -0.658192303488E+03    0.14624E-04   -0.39770E-04   360   0.154E-02
  65 F= -.67313225E+03 E0= -.67306696E+03  d E =-.245344E-02
 curvature:  -4.73 expect dE=-0.292E-01 dE for cont linesearch -0.392E-04
 trial: gam= 0.65065 g(F)=  0.618E-02 g(S)=  0.000E+00 ort =-0.123E-02 (trialstep = 0.259E+00)
 search vector abs. value=  0.820E-01
 bond charge predicted
       N       E                     dE             d eps       ncg     rms          rms(c)
DAV:   1    -0.658192099152E+03    0.21896E-03   -0.34543E-01   600   0.730E-01    0.214E-01
DAV:   2    -0.658195705702E+03   -0.36065E-02   -0.16509E-02   852   0.184E-01    0.876E-01
DAV:   3    -0.658195243782E+03    0.46192E-03   -0.12782E-02   768   0.942E-02    0.498E-01
DAV:   4    -0.658193182504E+03    0.20613E-02   -0.21971E-03   636   0.547E-02    0.220E-01
DAV:   5    -0.658192913496E+03    0.26901E-03   -0.41876E-04   456   0.220E-02    0.127E-01
DAV:   6    -0.658192817430E+03    0.96066E-04   -0.49019E-04   492   0.222E-02
  66 F= -.67313352E+03 E0= -.67306829E+03  d E =-.126853E-02
 trial-energy change:   -0.001269  1 .order   -0.001177   -0.001393   -0.000962
 step:   0.8369(harm=  0.8369)  dis= 0.00925  next Energy=  -673.134502 (dE=-0.225E-02)
 bond charge predicted
       N       E                     dE             d eps       ncg     rms          rms(c)
DAV:   1    -0.658188239926E+03    0.46736E-02   -0.17004E+00   600   0.162E+00    0.474E-01
DAV:   2    -0.658200491308E+03   -0.12251E-01   -0.86905E-02   804   0.387E-01    0.161E+00
DAV:   3    -0.658203582771E+03   -0.30915E-02   -0.75906E-02   912   0.203E-01    0.900E-01
DAV:   4    -0.658194293604E+03    0.92892E-02   -0.13679E-02   828   0.117E-01    0.596E-01
DAV:   5    -0.658192418727E+03    0.18749E-02   -0.42620E-03   756   0.474E-02    0.335E-01
DAV:   6    -0.658192075363E+03    0.34336E-03   -0.33441E-03   708   0.466E-02    0.391E-01
DAV:   7    -0.658192047407E+03    0.27957E-04   -0.24829E-03   660   0.549E-02    0.356E-01
DAV:   8    -0.658191844531E+03    0.20288E-03   -0.12105E-03   588   0.381E-02    0.287E-01
DAV:   9    -0.658191474562E+03    0.36997E-03   -0.55984E-04   396   0.208E-02    0.186E-01
DAV:  10    -0.658191308814E+03    0.16575E-03   -0.53508E-04   396   0.183E-02    0.102E-01
DAV:  11    -0.658191272387E+03    0.36427E-04   -0.48611E-04   360   0.132E-02
  67 F= -.67313368E+03 E0= -.67306971E+03  d E =-.142294E-02
 curvature:  -6.38 expect dE=-0.116E+00 dE for cont linesearch -0.616E-03
 ZBRENT: interpolating
 opt :   0.5878  next Energy=  -673.134025 (dE=-0.177E-02)
 bond charge predicted
       N       E                     dE             d eps       ncg     rms          rms(c)
DAV:   1    -0.658191746236E+03   -0.43742E-03   -0.31697E-01   600   0.699E-01    0.201E-01
DAV:   2    -0.658196802350E+03   -0.50561E-02   -0.18569E-02   780   0.196E-01    0.706E-01
DAV:   3    -0.658193275717E+03    0.35266E-02   -0.13221E-02   840   0.109E-01    0.386E-01
DAV:   4    -0.658192972258E+03    0.30346E-03   -0.11048E-03   660   0.417E-02    0.299E-01
DAV:   5    -0.658192719739E+03    0.25252E-03   -0.34011E-04   408   0.212E-02    0.206E-01
DAV:   6    -0.658192502142E+03    0.21760E-03   -0.61122E-04   468   0.292E-02    0.162E-01
DAV:   7    -0.658192404605E+03    0.97537E-04   -0.53098E-04   360   0.169E-02
  68 F= -.67313407E+03 E0= -.67306817E+03  d E =-.181977E-02
 curvature:  -3.63 expect dE=-0.302E-01 dE for cont linesearch -0.297E-04
 trial: gam= 1.37874 g(F)=  0.831E-02 g(S)=  0.000E+00 ort =-0.819E-03 (trialstep = 0.164E+00)
 search vector abs. value=  0.162E+00
 bond charge predicted
       N       E                     dE             d eps       ncg     rms          rms(c)
DAV:   1    -0.658192179143E+03    0.32300E-03   -0.28504E-01   600   0.656E-01    0.185E-01
DAV:   2    -0.658193384516E+03   -0.12054E-02   -0.10707E-02   864   0.150E-01    0.379E-01
DAV:   3    -0.658194966533E+03   -0.15820E-02   -0.86636E-03   660   0.725E-02    0.523E-01
DAV:   4    -0.658193294700E+03    0.16718E-02   -0.52503E-03   612   0.702E-02    0.290E-01
DAV:   5    -0.658192936841E+03    0.35786E-03   -0.43378E-04   396   0.246E-02    0.167E-01
DAV:   6    -0.658192841065E+03    0.95776E-04   -0.20482E-04   396   0.189E-02
  69 F= -.67313533E+03 E0= -.67307151E+03  d E =-.125808E-02
 ZBRENT: can't locate minimum, use default step
 trial-energy change:   -0.001258  1 .order   -0.001233   -0.001181   -0.001284
 step:   0.6579(harm=  0.6579)  dis= 0.01027  next Energy=  -673.139622 (dE=-0.555E-02)
 bond charge predicted
       N       E                     dE             d eps       ncg     rms          rms(c)
DAV:   1    -0.658187719094E+03    0.52177E-02   -0.25298E+00   600   0.196E+00    0.536E-01
DAV:   2    -0.658208826847E+03   -0.21108E-01   -0.92476E-02   780   0.474E-01    0.237E+00
DAV:   3    -0.658204637024E+03    0.41898E-02   -0.48617E-02   936   0.222E-01    0.827E-01
DAV:   4    -0.658196722414E+03    0.79146E-02   -0.54555E-03   744   0.100E-01    0.738E-01
DAV:   5    -0.658194019609E+03    0.27028E-02   -0.28068E-03   816   0.571E-02    0.411E-01
DAV:   6    -0.658195033486E+03   -0.10139E-02   -0.51702E-03   768   0.702E-02    0.801E-01
DAV:   7    -0.658193263282E+03    0.17702E-02   -0.28715E-03   732   0.585E-02    0.281E-01
DAV:   8    -0.658192586011E+03    0.67727E-03   -0.12262E-03   504   0.352E-02    0.154E-01
DAV:   9    -0.658192462126E+03    0.12388E-03   -0.94490E-04   420   0.229E-02    0.146E-01
DAV:  10    -0.658192349640E+03    0.11249E-03   -0.60031E-04   384   0.179E-02    0.974E-02
DAV:  11    -0.658192323812E+03    0.25828E-04   -0.44682E-04   384   0.129E-02
  70 F= -.67313730E+03 E0= -.67307269E+03  d E =-.322658E-02
 curvature: -11.46 expect dE=-0.750E-01 dE for cont linesearch -0.111E-03
 trial: gam= 0.54428 g(F)=  0.654E-02 g(S)=  0.000E+00 ort = 0.125E-02 (trialstep = 0.263E+00)
 search vector abs. value=  0.559E-01
 bond charge predicted
       N       E                     dE             d eps       ncg     rms          rms(c)
DAV:   1    -0.658192343920E+03    0.57204E-05   -0.26766E-01   600   0.617E-01    0.175E-01
DAV:   2    -0.658193524320E+03   -0.11804E-02   -0.88237E-03   852   0.145E-01    0.362E-01
DAV:   3    -0.658194928367E+03   -0.14040E-02   -0.64369E-03   684   0.763E-02    0.496E-01
DAV:   4    -0.658193121139E+03    0.18072E-02   -0.23567E-03   576   0.552E-02    0.135E-01
DAV:   5    -0.658193012720E+03    0.10842E-03   -0.24649E-04   432   0.185E-02    0.127E-01
DAV:   6    -0.658193019503E+03   -0.67831E-05   -0.32291E-04   636   0.237E-02
  71 F= -.67313876E+03 E0= -.67307281E+03  d E =-.145987E-02
 trial-energy change:   -0.001460  1 .order   -0.001341   -0.001901   -0.000780
 step:   0.4461(harm=  0.4461)  dis= 0.00421  next Energy=  -673.138910 (dE=-0.161E-02)
 bond charge predicted
       N       E                     dE             d eps       ncg     rms          rms(c)
DAV:   1    -0.658192506514E+03    0.50621E-03   -0.12969E-01   600   0.431E-01    0.162E-01
DAV:   2    -0.658195125789E+03   -0.26193E-02   -0.84747E-03   864   0.121E-01    0.771E-01
DAV:   3    -0.658194960655E+03    0.16513E-03   -0.99791E-03   672   0.820E-02    0.470E-01
DAV:   4    -0.658193117615E+03    0.18430E-02   -0.23144E-03   564   0.506E-02    0.205E-01
DAV:   5    -0.658192849632E+03    0.26798E-03   -0.30396E-04   396   0.178E-02    0.966E-02
DAV:   6    -0.658192759331E+03    0.90300E-04   -0.25935E-04   396   0.192E-02
  72 F= -.67313903E+03 E0= -.67307417E+03  d E =-.173354E-02
 curvature:  -1.72 expect dE=-0.657E-02 dE for cont linesearch -0.214E-04
 ZBRENT: extrapolating
 opt :   0.5177  next Energy=  -673.139062 (dE=-0.176E-02)
 bond charge predicted
       N       E                     dE             d eps       ncg     rms          rms(c)
DAV:   1    -0.658192566574E+03    0.28306E-03   -0.19203E-02   600   0.167E-01    0.147E-01
DAV:   2    -0.658194893890E+03   -0.23273E-02   -0.71952E-03   804   0.734E-02    0.555E-01
DAV:   3    -0.658193901104E+03    0.99279E-03   -0.11914E-02   684   0.888E-02    0.544E-01
DAV:   4    -0.658192740177E+03    0.11609E-02   -0.26867E-03   504   0.429E-02    0.144E-01
DAV:   5    -0.658192522579E+03    0.21760E-03   -0.94466E-04   372   0.155E-02    0.780E-02
DAV:   6    -0.658192498921E+03    0.23658E-04   -0.66695E-04   348   0.112E-02
  73 F= -.67313898E+03 E0= -.67307475E+03  d E =-.168244E-02
 curvature:  -2.40 expect dE=-0.135E-01 dE for cont linesearch -0.149E-04
 trial: gam= 1.17329 g(F)=  0.565E-02 g(S)=  0.000E+00 ort =-0.589E-03 (trialstep = 0.216E+00)
 search vector abs. value=  0.812E-01
 bond charge predicted
       N       E                     dE             d eps       ncg     rms          rms(c)
DAV:   1    -0.658192021430E+03    0.50115E-03   -0.25789E-01   600   0.612E-01    0.184E-01
DAV:   2    -0.658196721870E+03   -0.47004E-02   -0.14388E-02   864   0.173E-01    0.108E+00
DAV:   3    -0.658194077555E+03    0.26443E-02   -0.88377E-03   732   0.866E-02    0.365E-01
DAV:   4    -0.658192943341E+03    0.11342E-02   -0.74304E-04   588   0.379E-02    0.230E-01
DAV:   5    -0.658192716929E+03    0.22641E-03   -0.33671E-04   420   0.210E-02    0.137E-01
DAV:   6    -0.658192646418E+03    0.70512E-04   -0.43362E-04   468   0.210E-02
  74 F= -.67313982E+03 E0= -.67307494E+03  d E =-.843022E-03
 trial-energy change:   -0.000843  1 .order   -0.000785   -0.001071   -0.000499
 step:   0.4050(harm=  0.4050)  dis= 0.00423  next Energy=  -673.139985 (dE=-0.100E-02)
 bond charge predicted
       N       E                     dE             d eps       ncg     rms          rms(c)
DAV:   1    -0.658191756499E+03    0.96043E-03   -0.19530E-01   600   0.533E-01    0.177E-01
DAV:   2    -0.658192890770E+03   -0.11343E-02   -0.99078E-03   876   0.135E-01    0.403E-01
DAV:   3    -0.658193344636E+03   -0.45387E-03   -0.74911E-03   624   0.498E-02    0.408E-01
DAV:   4    -0.658193195247E+03    0.14939E-03   -0.53399E-03   552   0.584E-02    0.451E-01
DAV:   5    -0.658192432486E+03    0.76276E-03   -0.16356E-03   432   0.322E-02    0.154E-01
DAV:   6    -0.658192252312E+03    0.18017E-03   -0.24642E-04   372   0.183E-02    0.158E-01
DAV:   7    -0.658192190282E+03    0.62030E-04   -0.18796E-04   444   0.189E-02
  75 F= -.67313998E+03 E0= -.67307505E+03  d E =-.998072E-03
 curvature:  -3.32 expect dE=-0.159E-01 dE for cont linesearch -0.925E-06
 trial: gam= 0.41564 g(F)=  0.479E-02 g(S)=  0.000E+00 ort =-0.150E-03 (trialstep = 0.254E+00)
 search vector abs. value=  0.187E-01
 bond charge predicted
       N       E                     dE             d eps       ncg     rms          rms(c)
DAV:   1    -0.658192485277E+03   -0.23297E-03   -0.85214E-02   600   0.348E-01    0.128E-01
DAV:   2    -0.658193171466E+03   -0.68619E-03   -0.32387E-03   840   0.866E-02    0.319E-01
DAV:   3    -0.658193732459E+03   -0.56099E-03   -0.21056E-03   492   0.419E-02    0.465E-01
DAV:   4    -0.658193075108E+03    0.65735E-03   -0.16585E-03   456   0.366E-02    0.211E-01
DAV:   5    -0.658192838578E+03    0.23653E-03   -0.28008E-04   384   0.212E-02    0.169E-01
DAV:   6    -0.658192739799E+03    0.98779E-04   -0.11084E-04   360   0.147E-02
  76 F= -.67314082E+03 E0= -.67307708E+03  d E =-.836620E-03
 trial-energy change:   -0.000837  1 .order   -0.000862   -0.001200   -0.000525
 step:   0.4512(harm=  0.4512)  dis= 0.00228  next Energy=  -673.141045 (dE=-0.107E-02)
 bond charge predicted
       N       E                     dE             d eps       ncg     rms          rms(c)
DAV:   1    -0.658192496351E+03    0.34223E-03   -0.50611E-02   600   0.269E-01    0.111E-01
DAV:   2    -0.658193033627E+03   -0.53728E-03   -0.18858E-03   804   0.622E-02    0.307E-01
DAV:   3    -0.658193233792E+03   -0.20016E-03   -0.12966E-03   492   0.307E-02    0.340E-01
DAV:   4    -0.658192863246E+03    0.37055E-03   -0.11097E-03   444   0.283E-02    0.198E-01
DAV:   5    -0.658192692508E+03    0.17074E-03   -0.21616E-04   348   0.167E-02    0.136E-01
DAV:   6    -0.658192630242E+03    0.62265E-04   -0.87624E-05   348   0.122E-02
  77 F= -.67314093E+03 E0= -.67307729E+03  d E =-.951374E-03
 curvature:  -0.89 expect dE=-0.306E-02 dE for cont linesearch -0.203E-05
 trial: gam= 0.79910 g(F)=  0.343E-02 g(S)=  0.000E+00 ort =-0.206E-03 (trialstep = 0.293E+00)
 search vector abs. value=  0.150E-01
 bond charge predicted
       N       E                     dE             d eps       ncg     rms          rms(c)
DAV:   1    -0.658192751029E+03   -0.58521E-04   -0.88210E-02   600   0.366E-01    0.945E-02
DAV:   2    -0.658193093375E+03   -0.34235E-03   -0.27912E-03   864   0.746E-02    0.191E-01
DAV:   3    -0.658193168542E+03   -0.75167E-04   -0.73972E-04   480   0.227E-02
  78 F= -.67314169E+03 E0= -.67307490E+03  d E =-.757248E-03
 trial-energy change:   -0.000757  1 .order   -0.000650   -0.000957   -0.000342
[...]
 search vector abs. value=  0.143E+00
 bond charge predicted
       N       E                     dE             d eps       ncg     rms          rms(c)
DAV:   1    -0.658143358789E+03    0.46288E-02   -0.18033E+00   600   0.163E+00    0.480E-01
DAV:   2    -0.658149761222E+03   -0.64024E-02   -0.61198E-02   864   0.371E-01    0.573E-01
DAV:   3    -0.658178751476E+03   -0.28990E-01   -0.67588E-02   888   0.263E-01    0.347E+00
DAV:   4    -0.658157167394E+03    0.21584E-01   -0.44412E-02   876   0.201E-01    0.581E-01
DAV:   5    -0.658149234306E+03    0.79331E-02   -0.46804E-03   708   0.764E-02    0.515E-01
DAV:   6    -0.658148017767E+03    0.12165E-02   -0.16109E-03   600   0.440E-02    0.250E-01
DAV:   7    -0.658147898280E+03    0.11949E-03   -0.19417E-03   648   0.399E-02    0.360E-01
DAV:   8    -0.658147554049E+03    0.34423E-03   -0.10802E-03   516   0.357E-02    0.149E-01
DAV:   9    -0.658147448489E+03    0.10556E-03   -0.97691E-04   408   0.254E-02    0.247E-01
DAV:  10    -0.658147279672E+03    0.16882E-03   -0.69570E-04   384   0.153E-02    0.939E-02
DAV:  11    -0.658147256056E+03    0.23616E-04   -0.59663E-04   396   0.133E-02
 319 F= -.67325145E+03 E0= -.67318619E+03  d E =-.845984E-03
 trial-energy change:   -0.000846  1 .order   -0.000938   -0.001653   -0.000223
 step:   0.4940(harm=  0.4940)  dis= 0.00487  next Energy=  -673.251561 (dE=-0.956E-03)
 bond charge predicted
       N       E                     dE             d eps       ncg     rms          rms(c)
DAV:   1    -0.658146858480E+03    0.42119E-03   -0.44110E-02   600   0.255E-01    0.103E-01
DAV:   2    -0.658147987905E+03   -0.11294E-02   -0.35988E-03   900   0.842E-02    0.392E-01
DAV:   3    -0.658147489138E+03    0.49877E-03   -0.43482E-03   648   0.706E-02    0.327E-01
DAV:   4    -0.658147066674E+03    0.42246E-03   -0.58027E-04   468   0.286E-02    0.119E-01
DAV:   5    -0.658147012428E+03    0.54245E-04   -0.21220E-04   360   0.133E-02
 320 F= -.67325145E+03 E0= -.67318721E+03  d E =-.842463E-03
 curvature:  -9.13 expect dE=-0.273E-01 dE for cont linesearch -0.765E-05
 trial: gam= 0.51557 g(F)=  0.299E-02 g(S)=  0.000E+00 ort = 0.346E-03 (trialstep = 0.441E+00)
 search vector abs. value=  0.414E-01
 bond charge predicted
       N       E                     dE             d eps       ncg     rms          rms(c)
DAV:   1    -0.658145770774E+03    0.12959E-02   -0.58088E-01   600   0.933E-01    0.255E-01
DAV:   2    -0.658148848546E+03   -0.30778E-02   -0.20333E-02   864   0.217E-01    0.483E-01
DAV:   3    -0.658151450725E+03   -0.26022E-02   -0.17303E-02   864   0.146E-01    0.111E+00
DAV:   4    -0.658148115672E+03    0.33351E-02   -0.77480E-03   684   0.923E-02    0.332E-01
DAV:   5    -0.658147154303E+03    0.96137E-03   -0.70312E-04   588   0.328E-02    0.185E-01
DAV:   6    -0.658147042683E+03    0.11162E-03   -0.50002E-04   660   0.287E-02    0.164E-01
DAV:   7    -0.658146922968E+03    0.11971E-03   -0.18935E-04   372   0.222E-02    0.923E-02
DAV:   8    -0.658146921253E+03    0.17153E-05   -0.86068E-05   324   0.158E-02
 321 F= -.67325211E+03 E0= -.67318769E+03  d E =-.664364E-03
 trial-energy change:   -0.000664  1 .order   -0.000790   -0.001396   -0.000184
 step:   0.5076(harm=  0.5076)  dis= 0.00283  next Energy=  -673.252251 (dE=-0.804E-03)
 bond charge predicted
       N       E                     dE             d eps       ncg     rms          rms(c)
DAV:   1    -0.658146707600E+03    0.21537E-03   -0.13314E-02   600   0.142E-01    0.675E-02
DAV:   2    -0.658148449689E+03   -0.17421E-02   -0.42602E-03   756   0.790E-02    0.486E-01
DAV:   3    -0.658146893524E+03    0.15562E-02   -0.33627E-03   600   0.633E-02    0.859E-02
DAV:   4    -0.658146812523E+03    0.81002E-04   -0.18218E-04   420   0.176E-02
 322 F= -.67325212E+03 E0= -.67318853E+03  d E =-.671080E-03
 curvature:  -3.31 expect dE=-0.788E-02 dE for cont linesearch -0.298E-05
 trial: gam= 0.91055 g(F)=  0.238E-02 g(S)=  0.000E+00 ort =-0.193E-03 (trialstep = 0.454E+00)
 search vector abs. value=  0.363E-01
 bond charge predicted
       N       E                     dE             d eps       ncg     rms          rms(c)
DAV:   1    -0.658145542976E+03    0.13505E-02   -0.54906E-01   600   0.925E-01    0.245E-01
DAV:   2    -0.658146852876E+03   -0.13099E-02   -0.15364E-02   840   0.196E-01    0.227E-01
DAV:   3    -0.658148653952E+03   -0.18011E-02   -0.42025E-03   780   0.810E-02    0.691E-01
DAV:   4    -0.658147063623E+03    0.15903E-02   -0.46916E-03   696   0.745E-02    0.260E-01
DAV:   5    -0.658146531046E+03    0.53258E-03   -0.46174E-04   468   0.274E-02    0.833E-02
DAV:   6    -0.658146516522E+03    0.14524E-04   -0.53035E-04   504   0.219E-02
 323 F= -.67325248E+03 E0= -.67318919E+03  d E =-.362224E-03
 trial-energy change:   -0.000362  1 .order   -0.000598   -0.001000   -0.000196
 step:   0.5646(harm=  0.5646)  dis= 0.00338  next Energy=  -673.252740 (dE=-0.622E-03)
 bond charge predicted
       N       E                     dE             d eps       ncg     rms          rms(c)
DAV:   1    -0.658146261176E+03    0.26987E-03   -0.32859E-02   600   0.225E-01    0.812E-02
DAV:   2    -0.658146516769E+03   -0.25559E-03   -0.39245E-03   840   0.546E-02    0.214E-01
DAV:   3    -0.658146517288E+03   -0.51939E-06   -0.46049E-03   480   0.258E-02    0.168E-01
DAV:   4    -0.658146437922E+03    0.79366E-04   -0.21444E-03   468   0.269E-02    0.141E-01
DAV:   5    -0.658146331565E+03    0.10636E-03   -0.82144E-04   396   0.148E-02    0.662E-02
DAV:   6    -0.658146318399E+03    0.13166E-04   -0.31787E-04   348   0.918E-03
 324 F= -.67325244E+03 E0= -.67318865E+03  d E =-.325310E-03
 curvature:  -4.66 expect dE=-0.976E-02 dE for cont linesearch -0.829E-05
 trial: gam= 0.56089 g(F)=  0.210E-02 g(S)=  0.000E+00 ort =-0.254E-03 (trialstep = 0.476E+00)
 search vector abs. value=  0.132E-01
 bond charge predicted
       N       E                     dE             d eps       ncg     rms          rms(c)
DAV:   1    -0.658145785037E+03    0.54653E-03   -0.23104E-01   600   0.592E-01    0.181E-01
DAV:   2    -0.658147344863E+03   -0.15598E-02   -0.14375E-02   864   0.138E-01    0.423E-01
DAV:   3    -0.658148374288E+03   -0.10294E-02   -0.15467E-02   756   0.928E-02    0.696E-01
DAV:   4    -0.658146820600E+03    0.15537E-02   -0.70345E-03   660   0.710E-02    0.249E-01
DAV:   5    -0.658146384308E+03    0.43629E-03   -0.18477E-03   444   0.242E-02    0.155E-01
DAV:   6    -0.658146287687E+03    0.96621E-04   -0.15786E-03   384   0.172E-02    0.961E-02
DAV:   7    -0.658146256785E+03    0.30902E-04   -0.99965E-04   408   0.187E-02
 325 F= -.67325281E+03 E0= -.67318850E+03  d E =-.362527E-03
 trial-energy change:   -0.000363  1 .order   -0.000391   -0.000930    0.000149
 step:   0.4104(harm=  0.4104)  dis= 0.00184  next Energy=  -673.252844 (dE=-0.401E-03)
 bond charge predicted
       N       E                     dE             d eps       ncg     rms          rms(c)
DAV:   1    -0.658146298171E+03   -0.10484E-04   -0.51817E-03   600   0.851E-02    0.513E-02
DAV:   2    -0.658146599828E+03   -0.30166E-03   -0.20602E-03   504   0.344E-02    0.229E-01
DAV:   3    -0.658146482086E+03    0.11774E-03   -0.23645E-03   468   0.368E-02    0.166E-01
DAV:   4    -0.658146319136E+03    0.16295E-03   -0.59184E-04   372   0.203E-02    0.634E-02
DAV:   5    -0.658146300203E+03    0.18933E-04   -0.31084E-04   348   0.842E-03
 326 F= -.67325279E+03 E0= -.67318883E+03  d E =-.347107E-03
 curvature:  -1.39 expect dE=-0.140E-02 dE for cont linesearch -0.526E-05
 ZBRENT: interpolating
 opt :   0.3682  next Energy=  -673.252795 (dE=-0.352E-03)
 bond charge predicted
       N       E                     dE             d eps       ncg     rms          rms(c)
DAV:   1    -0.658146326499E+03   -0.73631E-05   -0.18978E-03   588   0.530E-02    0.254E-02
DAV:   2    -0.658146384793E+03   -0.58293E-04   -0.46180E-04   360   0.171E-02
 327 F= -.67325284E+03 E0= -.67318979E+03  d E =-.394041E-03
 curvature:  -1.25 expect dE=-0.104E-02 dE for cont linesearch -0.110E-08
 trial: gam= 0.32090 g(F)=  0.836E-03 g(S)=  0.000E+00 ort = 0.341E-05 (trialstep = 0.455E+00)
 search vector abs. value=  0.220E-02
 bond charge predicted
       N       E                     dE             d eps       ncg     rms          rms(c)
DAV:   1    -0.658146411834E+03   -0.85334E-04   -0.29174E-02   600   0.209E-01    0.112E-01
DAV:   2    -0.658150824618E+03   -0.44128E-02   -0.10226E-02   876   0.120E-01    0.668E-01
DAV:   3    -0.658146710191E+03    0.41144E-02   -0.91275E-03   780   0.103E-01    0.123E-01
DAV:   4    -0.658146600550E+03    0.10964E-03   -0.45810E-04   456   0.221E-02    0.141E-01
DAV:   5    -0.658146522271E+03    0.78279E-04   -0.32084E-04   372   0.194E-02
 328 F= -.67325308E+03 E0= -.67318915E+03  d E =-.247204E-03
 trial-energy change:   -0.000247  1 .order   -0.000258   -0.000380   -0.000135
 step:   0.7039(harm=  0.7039)  dis= 0.00164  next Energy=  -673.253132 (dE=-0.294E-03)
 bond charge predicted
       N       E                     dE             d eps       ncg     rms          rms(c)
DAV:   1    -0.658146436076E+03    0.16447E-03   -0.88576E-03   600   0.115E-01    0.842E-02
DAV:   2    -0.658146720229E+03   -0.28415E-03   -0.24587E-03   612   0.335E-02    0.237E-01
DAV:   3    -0.658146627732E+03    0.92497E-04   -0.31061E-03   456   0.254E-02    0.136E-01
DAV:   4    -0.658146515361E+03    0.11237E-03   -0.14783E-03   432   0.214E-02    0.109E-01
DAV:   5    -0.658146445731E+03    0.69630E-04   -0.75336E-04   384   0.120E-02
 329 F= -.67325307E+03 E0= -.67318900E+03  d E =-.231154E-03
 curvature:  -0.93 expect dE=-0.819E-03 dE for cont linesearch -0.258E-07
 trial: gam= 1.13463 g(F)=  0.885E-03 g(S)=  0.000E+00 ort =-0.783E-05 (trialstep = 0.300E+00)
 search vector abs. value=  0.370E-02
 bond charge predicted
       N       E                     dE             d eps       ncg     rms          rms(c)
DAV:   1    -0.658146498187E+03    0.17174E-04   -0.21494E-02   600   0.181E-01    0.810E-02
DAV:   2    -0.658147930587E+03   -0.14324E-02   -0.42394E-03   804   0.782E-02    0.455E-01
DAV:   3    -0.658146829742E+03    0.11008E-02   -0.44972E-03   624   0.640E-02    0.194E-01
DAV:   4    -0.658146651166E+03    0.17858E-03   -0.51125E-04   372   0.214E-02    0.130E-01
DAV:   5    -0.658146586982E+03    0.64184E-04   -0.23207E-04   372   0.120E-02
 330 F= -.67325329E+03 E0= -.67318967E+03  d E =-.223100E-03
 trial-energy change:   -0.000223  1 .order   -0.000202   -0.000263   -0.000141
 step:   0.6461(harm=  0.6461)  dis= 0.00172  next Energy=  -673.253352 (dE=-0.283E-03)
 bond charge predicted
       N       E                     dE             d eps       ncg     rms          rms(c)
DAV:   1    -0.658146471525E+03    0.17964E-03   -0.28063E-02   600   0.208E-01    0.902E-02
DAV:   2    -0.658147655253E+03   -0.11837E-02   -0.38892E-03   840   0.778E-02    0.392E-01
DAV:   3    -0.658146808332E+03    0.84692E-03   -0.43395E-03   684   0.648E-02    0.221E-01
DAV:   4    -0.658146570205E+03    0.23813E-03   -0.56487E-04   444   0.251E-02    0.938E-02
DAV:   5    -0.658146533863E+03    0.36341E-04   -0.25116E-04   348   0.110E-02
 331 F= -.67325333E+03 E0= -.67318940E+03  d E =-.265213E-03
 curvature:  -1.36 expect dE=-0.951E-03 dE for cont linesearch -0.158E-05
 trial: gam= 0.66597 g(F)=  0.697E-03 g(S)=  0.000E+00 ort = 0.654E-04 (trialstep = 0.369E+00)
 search vector abs. value=  0.243E-02
 bond charge predicted
       N       E                     dE             d eps       ncg     rms          rms(c)
DAV:   1    -0.658146660102E+03   -0.89897E-04   -0.22424E-02   600   0.189E-01    0.710E-02
DAV:   2    -0.658147082607E+03   -0.42250E-03   -0.31561E-03   756   0.517E-02    0.265E-01
DAV:   3    -0.658146999915E+03    0.82691E-04   -0.38743E-03   516   0.454E-02    0.246E-01
DAV:   4    -0.658146743239E+03    0.25668E-03   -0.11222E-03   408   0.267E-02    0.855E-02
DAV:   5    -0.658146711145E+03    0.32094E-04   -0.52591E-04   372   0.977E-03
 332 F= -.67325351E+03 E0= -.67318955E+03  d E =-.175346E-03
 trial-energy change:   -0.000175  1 .order   -0.000204   -0.000273   -0.000135
 step:   0.7282(harm=  0.7282)  dis= 0.00154  next Energy=  -673.253604 (dE=-0.270E-03)
 bond charge predicted
       N       E                     dE             d eps       ncg     rms          rms(c)
DAV:   1    -0.658146692270E+03    0.50969E-04   -0.20930E-02   600   0.183E-01    0.474E-02
DAV:   2    -0.658147017332E+03   -0.32506E-03   -0.11516E-03   744   0.497E-02    0.218E-01
DAV:   3    -0.658146752484E+03    0.26485E-03   -0.82059E-04   504   0.322E-02    0.775E-02
DAV:   4    -0.658146719584E+03    0.32899E-04   -0.72898E-05   360   0.127E-02
 333 F= -.67325352E+03 E0= -.67319000E+03  d E =-.182490E-03
 curvature:  -1.19 expect dE=-0.122E-02 dE for cont linesearch -0.198E-05
 trial: gam= 1.51763 g(F)=  0.103E-02 g(S)=  0.000E+00 ort =-0.635E-04 (trialstep = 0.167E+00)
 search vector abs. value=  0.642E-02
 bond charge predicted
       N       E                     dE             d eps       ncg     rms          rms(c)
DAV:   1    -0.658146857870E+03   -0.10539E-03   -0.11747E-02   600   0.137E-01    0.418E-02
DAV:   2    -0.658146907657E+03   -0.49787E-04   -0.31030E-04   552   0.295E-02
 334 F= -.67325366E+03 E0= -.67318929E+03  d E =-.144989E-03
 trial-energy change:   -0.000145  1 .order   -0.000124   -0.000155   -0.000092
 step:   0.4115(harm=  0.4115)  dis= 0.00135  next Energy=  -673.253708 (dE=-0.192E-03)
 bond charge predicted
       N       E                     dE             d eps       ncg     rms          rms(c)
DAV:   1    -0.658147010582E+03   -0.15271E-03   -0.26025E-02   600   0.204E-01    0.867E-02
DAV:   2    -0.658151664585E+03   -0.46540E-02   -0.68090E-03   816   0.920E-02    0.113E+00
DAV:   3    -0.658147758742E+03    0.39058E-02   -0.62197E-03   708   0.838E-02    0.199E-01
DAV:   4    -0.658147112003E+03    0.64674E-03   -0.49503E-04   456   0.284E-02    0.885E-02
DAV:   5    -0.658147045636E+03    0.66367E-04   -0.97924E-05   360   0.154E-02
 335 F= -.67325374E+03 E0= -.67319012E+03  d E =-.220139E-03
 curvature:  -1.42 expect dE=-0.109E-02 dE for cont linesearch -0.138E-04
 ZBRENT: increasing intervall
 opt :   0.9014  next Energy=  -673.253710 (dE=-0.193E-03)
 bond charge predicted
       N       E                     dE             d eps       ncg     rms          rms(c)
DAV:   1    -0.658146851193E+03    0.26081E-03   -0.10248E-01   600   0.403E-01    0.103E-01
DAV:   2    -0.658147155698E+03   -0.30451E-03   -0.40141E-03   876   0.824E-02    0.176E-01
DAV:   3    -0.658147173367E+03   -0.17669E-04   -0.30458E-03   552   0.251E-02    0.160E-01
DAV:   4    -0.658147257344E+03   -0.83977E-04   -0.22794E-03   492   0.334E-02    0.217E-01
DAV:   5    -0.658147047240E+03    0.21010E-03   -0.90384E-04   444   0.250E-02    0.875E-02
DAV:   6    -0.658147037354E+03    0.98859E-05   -0.33669E-04   372   0.134E-02
 336 F= -.67325360E+03 E0= -.67318962E+03  d E =-.881828E-04
 curvature:   2.77 expect dE= 0.593E-02 dE for cont linesearch  0.257E-03
 ZBRENT: bracketing found
 ZBRENT: interpolating
 opt :   0.5311  next Energy=  -673.253752 (dE=-0.235E-03)
 bond charge predicted
       N       E                     dE             d eps       ncg     rms          rms(c)
DAV:   1    -0.658146940286E+03    0.10695E-03   -0.59334E-02   600   0.306E-01    0.692E-02
DAV:   2    -0.658147073862E+03   -0.13358E-03   -0.17308E-03   840   0.693E-02    0.557E-02
DAV:   3    -0.658147145119E+03   -0.71257E-04   -0.46884E-04   432   0.208E-02
 337 F= -.67325381E+03 E0= -.67319145E+03  d E =-.289189E-03
 curvature:  -0.16 expect dE=-0.155E-03 dE for cont linesearch -0.109E-05
 ZBRENT: interpolating
 opt :   0.4766  next Energy=  -673.253811 (dE=-0.295E-03)
 bond charge predicted
       N       E                     dE             d eps       ncg     rms          rms(c)
DAV:   1    -0.658147147765E+03   -0.73903E-04   -0.18756E-03   672   0.546E-02    0.138E-01
DAV:   2    -0.658155371508E+03   -0.82237E-02   -0.22515E-02   828   0.154E-01    0.847E-01
DAV:   3    -0.658147553585E+03    0.78179E-02   -0.17010E-02   756   0.135E-01    0.172E-01
DAV:   4    -0.658147273079E+03    0.28051E-03   -0.48300E-04   456   0.237E-02    0.179E-01
DAV:   5    -0.658147125927E+03    0.14715E-03   -0.25832E-04   324   0.187E-02    0.771E-02
DAV:   6    -0.658147072668E+03    0.53260E-04   -0.16461E-04   348   0.161E-02
 338 F= -.67325375E+03 E0= -.67318987E+03  d E =-.230579E-03
 curvature:  -0.84 expect dE=-0.764E-03 dE for cont linesearch -0.110E-06
 trial: gam= 0.40141 g(F)=  0.912E-03 g(S)=  0.000E+00 ort = 0.291E-04 (trialstep = 0.229E+00)
 search vector abs. value=  0.197E-02
 bond charge predicted
       N       E                     dE             d eps       ncg     rms          rms(c)
DAV:   1    -0.658147211590E+03   -0.85663E-04   -0.65689E-03   576   0.916E-02    0.337E-02
DAV:   2    -0.658147327565E+03   -0.11598E-03   -0.60586E-04   504   0.286E-02    0.144E-01
DAV:   3    -0.658147261234E+03    0.66331E-04   -0.54170E-04   420   0.238E-02
 339 F= -.67325389E+03 E0= -.67319113E+03  d E =-.145958E-03
 trial-energy change:   -0.000146  1 .order   -0.000152   -0.000211   -0.000092
 step:   0.4064(harm=  0.4064)  dis= 0.00090  next Energy=  -673.253935 (dE=-0.188E-03)
 bond charge predicted
       N       E                     dE             d eps       ncg     rms          rms(c)
DAV:   1    -0.658147301375E+03    0.26191E-04   -0.39815E-03   576   0.711E-02    0.362E-02
DAV:   2    -0.658147435704E+03   -0.13433E-03   -0.55912E-04   492   0.229E-02    0.156E-01
DAV:   3    -0.658147348526E+03    0.87178E-04   -0.67067E-04   420   0.244E-02
 340 F= -.67325395E+03 E0= -.67318877E+03  d E =-.200204E-03
 curvature:  -0.43 expect dE=-0.161E-03 dE for cont linesearch -0.383E-05
 ZBRENT: extrapolating
 opt :   0.4925  next Energy=  -673.253953 (dE=-0.206E-03)
 bond charge predicted
       N       E                     dE             d eps       ncg     rms          rms(c)
DAV:   1    -0.658147344401E+03    0.91303E-04   -0.10329E-03   588   0.370E-02    0.631E-02
DAV:   2    -0.658148857796E+03   -0.15134E-02   -0.20788E-03   540   0.476E-02    0.607E-01
DAV:   3    -0.658147700729E+03    0.11571E-02   -0.29799E-03   540   0.565E-02    0.174E-01
DAV:   4    -0.658147466636E+03    0.23409E-03   -0.25004E-04   372   0.171E-02    0.144E-01
DAV:   5    -0.658147366636E+03    0.10000E-03   -0.67950E-05   348   0.105E-02    0.434E-02
DAV:   6    -0.658147357905E+03    0.87312E-05   -0.43006E-05   348   0.814E-03
 341 F= -.67325394E+03 E0= -.67318962E+03  d E =-.193599E-03
 curvature:  -0.64 expect dE=-0.357E-03 dE for cont linesearch -0.493E-05
 ZBRENT: bracketing found
 ZBRENT: interpolating
 opt :   0.4510  next Energy=  -673.253943 (dE=-0.196E-03)
 bond charge predicted
       N       E                     dE             d eps       ncg     rms          rms(c)
DAV:   1    -0.658147317269E+03    0.49367E-04   -0.23623E-04   396   0.181E-02    0.942E-03
DAV:   2    -0.658147329978E+03   -0.12709E-04   -0.53724E-05   324   0.866E-03
 342 F= -.67325392E+03 E0= -.67319003E+03  d E =-.173379E-03
 curvature:  -0.33 expect dE=-0.154E-03 dE for cont linesearch -0.176E-09
 trial: gam= 0.50521 g(F)=  0.463E-03 g(S)=  0.000E+00 ort = 0.102E-05 (trialstep = 0.273E+00)
 search vector abs. value=  0.967E-03
 bond charge predicted
       N       E                     dE             d eps       ncg     rms          rms(c)
DAV:   1    -0.658147440520E+03   -0.12325E-03   -0.43756E-03   576   0.745E-02    0.280E-02
DAV:   2    -0.658147486557E+03   -0.46037E-04   -0.41187E-04   468   0.215E-02
 343 F= -.67325403E+03 E0= -.67318938E+03  d E =-.108710E-03
 trial-energy change:   -0.000109  1 .order   -0.000085   -0.000127   -0.000043
 step:   0.4137(harm=  0.4137)  dis= 0.00042  next Energy=  -673.254016 (dE=-0.960E-04)
 reached required accuracy - stopping structural energy minimisation
