       N       E                     dE             d eps       ncg     rms          rms(c)
DAV:   1     0.765211226641E+04    0.76521E+04   -0.36403E+05  1209   0.112E+03
DAV:   2    -0.263912344670E+03   -0.79160E+04   -0.76778E+04  1612   0.268E+02
DAV:   3    -0.126317118430E+04   -0.99926E+03   -0.98536E+03  1365   0.102E+02
DAV:   4    -0.132119470491E+04   -0.58024E+02   -0.57696E+02  1807   0.297E+01
DAV:   5    -0.132309049339E+04   -0.18958E+01   -0.18853E+01  1768   0.464E+00    0.169E+02
DAV:   6    -0.127609540410E+04    0.46995E+02   -0.94004E+02  1612   0.274E+01    0.928E+01
DAV:   7    -0.129605729965E+04   -0.19962E+02   -0.11774E+03  1820   0.488E+01    0.553E+01
DAV:   8    -0.123207940353E+04    0.63978E+02   -0.61240E+01  1456   0.773E+00    0.310E+01
DAV:   9    -0.124055892329E+04   -0.84795E+01   -0.19825E+02  1833   0.103E+01    0.337E+01
DAV:  10    -0.122179155733E+04    0.18767E+02   -0.10854E+02  1911   0.193E+01    0.187E+01
DAV:  11    -0.122466440895E+04   -0.28729E+01   -0.24701E+01  1781   0.241E+00    0.157E+01
DAV:  12    -0.122442529077E+04    0.23912E+00   -0.93658E-01  1599   0.533E-01    0.154E+01
DAV:  13    -0.122503444110E+04   -0.60915E+00   -0.76489E+00  1664   0.793E-01    0.227E+01
DAV:  14    -0.122374383716E+04    0.12906E+01   -0.10402E+01  1703   0.249E+00    0.177E+01
DAV:  15    -0.122626218116E+04   -0.25183E+01   -0.17203E+01  1833   0.196E+00    0.239E+01
DAV:  16    -0.122555033699E+04    0.71184E+00   -0.37190E-01  1638   0.739E-01    0.230E+01
DAV:  17    -0.122772700351E+04   -0.21767E+01   -0.11050E+01  1612   0.218E+00    0.190E+01
DAV:  18    -0.122782533514E+04   -0.98332E-01   -0.14274E+00  1417   0.659E-01    0.196E+01
DAV:  19    -0.122739899534E+04    0.42634E+00   -0.15931E+00  1729   0.636E-01    0.187E+01
DAV:  20    -0.122732268656E+04    0.76309E-01   -0.35285E+00  1677   0.269E-01    0.194E+01
DAV:  21    -0.122704216598E+04    0.28052E+00   -0.49071E+00  1742   0.871E-01    0.164E+01
DAV:  22    -0.122696636917E+04    0.75797E-01   -0.55963E+00  1664   0.790E-01    0.159E+01
DAV:  23    -0.122671111449E+04    0.25525E+00   -0.13814E-01  1612   0.431E-01    0.155E+01
DAV:  24    -0.122656415018E+04    0.14696E+00   -0.45519E-02  1677   0.243E-01    0.150E+01
DAV:  25    -0.122612134167E+04    0.44281E+00   -0.64154E-01  1664   0.268E-01    0.155E+01
DAV:  26    -0.122601584962E+04    0.10549E+00   -0.39812E-01  1638   0.248E-01    0.141E+01
DAV:  27    -0.122596463603E+04    0.51214E-01   -0.97338E-01  1703   0.231E-01    0.140E+01
DAV:  28    -0.122573180299E+04    0.23283E+00   -0.35380E-01  1638   0.195E-01    0.145E+01
DAV:  29    -0.122565779171E+04    0.74011E-01   -0.96690E-03  1599   0.934E-02    0.137E+01
DAV:  30    -0.122551134471E+04    0.14645E+00   -0.50789E-02  1612   0.169E-01    0.126E+01
DAV:  31    -0.122520320014E+04    0.30814E+00   -0.43436E-02  1586   0.146E-01    0.122E+01
DAV:  32    -0.122492027237E+04    0.28293E+00   -0.50988E-02  1560   0.136E-01    0.119E+01
DAV:  33    -0.122472705017E+04    0.19322E+00   -0.96507E-02  1625   0.135E-01    0.118E+01
DAV:  34    -0.122455949845E+04    0.16755E+00   -0.38999E-01  1573   0.131E-01    0.108E+01
DAV:  35    -0.122441688794E+04    0.14261E+00   -0.73384E-01  1586   0.141E-01    0.111E+01
DAV:  36    -0.122408733143E+04    0.32956E+00   -0.15173E+00  1664   0.264E-01    0.931E+00
DAV:  37    -0.122390789277E+04    0.17944E+00   -0.22938E+00  1716   0.246E-01    0.100E+01
DAV:  38    -0.122357948272E+04    0.32841E+00   -0.21007E+00  1677   0.302E-01    0.759E+00
DAV:  39    -0.122359637299E+04   -0.16890E-01   -0.31336E+00  1612   0.169E-01    0.867E+00
DAV:  40    -0.122329278056E+04    0.30359E+00   -0.31603E-01  1612   0.259E-01    0.591E+00
DAV:  41    -0.122338759428E+04   -0.94814E-01   -0.28798E+00  1391   0.130E-01    0.757E+00
DAV:  42    -0.122322018153E+04    0.16741E+00   -0.34208E-01  1417   0.152E-01    0.546E+00
DAV:  43    -0.122337227030E+04   -0.15209E+00   -0.40458E+00  1300   0.152E-01    0.721E+00
DAV:  44    -0.122319168226E+04    0.18059E+00   -0.54285E-01  1443   0.159E-01    0.488E+00
DAV:  45    -0.122331782491E+04   -0.12614E+00   -0.34463E+00  1287   0.150E-01    0.688E+00
DAV:  46    -0.122317550323E+04    0.14232E+00   -0.84703E-01  1469   0.157E-01    0.477E+00
DAV:  47    -0.122323702901E+04   -0.61526E-01   -0.19172E+00  1326   0.148E-01    0.637E+00
DAV:  48    -0.122313549659E+04    0.10153E+00   -0.75971E-01  1391   0.124E-01    0.480E+00
DAV:  49    -0.122315123789E+04   -0.15741E-01   -0.18418E+00  1469   0.167E-01    0.578E+00
DAV:  50    -0.122304405206E+04    0.10719E+00   -0.72956E-01  1430   0.113E-01    0.429E+00
DAV:  51    -0.122308074388E+04   -0.36692E-01   -0.39335E+00  1625   0.430E-01    0.794E+00
DAV:  52    -0.122294846937E+04    0.13227E+00   -0.65274E-01  1573   0.203E-01    0.345E+00
DAV:  53    -0.122301680901E+04   -0.68340E-01   -0.31546E+00  1547   0.209E-01    0.505E+00
DAV:  54    -0.122287434193E+04    0.14247E+00   -0.78516E-01  1560   0.254E-01    0.367E+00
DAV:  55    -0.122294986568E+04   -0.75524E-01   -0.25078E+00  1248   0.118E-01    0.486E+00
DAV:  56    -0.122310949086E+04   -0.15963E+00   -0.31702E+00  1612   0.555E-01    0.859E+00
DAV:  57    -0.122310417009E+04    0.53208E-02   -0.20270E+00  1521   0.166E-01    0.903E+00
DAV:  58    -0.122303508968E+04    0.69080E-01   -0.82883E-01  1274   0.986E-02    0.780E+00
DAV:  59    -0.122306704453E+04   -0.31955E-01   -0.17017E+00  1209   0.974E-02    0.872E+00
DAV:  60    -0.122303378723E+04    0.33257E-01   -0.10742E+00  1170   0.878E-02    0.794E+00
DAV:  61    -0.122295298289E+04    0.80804E-01   -0.19253E+00  1599   0.272E-01    0.636E+00
DAV:  62    -0.122286714204E+04    0.85841E-01   -0.69823E-01  1547   0.180E-01    0.425E+00
DAV:  63    -0.122285408825E+04    0.13054E-01   -0.31699E-01  1417   0.114E-01    0.498E+00
DAV:  64    -0.122284188158E+04    0.12207E-01   -0.10776E-01  1573   0.820E-02    0.532E+00
DAV:  65    -0.122283968186E+04    0.21997E-02   -0.75694E-02  1339   0.505E-02    0.546E+00
DAV:  66    -0.122282320996E+04    0.16472E-01   -0.50821E-02  1313   0.469E-02    0.469E+00
DAV:  67    -0.122282378310E+04   -0.57314E-03   -0.35221E-02  1170   0.333E-02    0.474E+00
DAV:  68    -0.122282247272E+04    0.13104E-02   -0.19186E-02   962   0.182E-02    0.469E+00
DAV:  69    -0.122282298125E+04   -0.50853E-03   -0.11367E-02   767   0.134E-02    0.471E+00
DAV:  70    -0.122282015267E+04    0.28286E-02   -0.63434E-03   767   0.117E-02    0.460E+00
DAV:  71    -0.122281922512E+04    0.92755E-03   -0.33594E-03   728   0.126E-02    0.463E+00
DAV:  72    -0.122281867759E+04    0.54753E-03   -0.19044E-03   702   0.752E-03    0.461E+00
DAV:  73    -0.122281720991E+04    0.14677E-02   -0.98929E-04   741   0.683E-03    0.459E+00
DAV:  74    -0.122282368101E+04   -0.64711E-02   -0.46067E-04   754   0.874E-03    0.472E+00
DAV:  75    -0.122282568173E+04   -0.20007E-02   -0.24076E-04   754   0.735E-03    0.475E+00
DAV:  76    -0.122284275878E+04   -0.17077E-01   -0.31104E-03  1352   0.353E-02    0.499E+00
DAV:  77    -0.122284857338E+04   -0.58146E-02   -0.10632E-03  1352   0.390E-02    0.511E+00
DAV:  78    -0.122287058124E+04   -0.22008E-01   -0.30929E-03  1326   0.452E-02    0.529E+00
DAV:  79    -0.122288501834E+04   -0.14437E-01   -0.20696E-03  1391   0.422E-02    0.546E+00
DAV:  80    -0.122288800894E+04   -0.29906E-02   -0.84763E-04  1313   0.368E-02    0.553E+00
DAV:  81    -0.122288735778E+04    0.65117E-03   -0.48912E-03  1326   0.723E-02    0.557E+00
DAV:  82    -0.122285721012E+04    0.30148E-01   -0.28744E-03  1417   0.474E-02    0.545E+00
DAV:  83    -0.122281225157E+04    0.44959E-01   -0.51092E-03  1300   0.445E-02    0.473E+00
DAV:  84    -0.122278697158E+04    0.25280E-01   -0.15223E-03  1352   0.372E-02    0.440E+00
DAV:  85    -0.122276512676E+04    0.21845E-01   -0.17643E-03  1144   0.322E-02    0.390E+00
DAV:  86    -0.122273137301E+04    0.33754E-01   -0.30907E-03  1404   0.550E-02    0.302E+00
DAV:  87    -0.122272250704E+04    0.88660E-02   -0.14644E-03  1365   0.362E-02    0.300E+00
DAV:  88    -0.122271588707E+04    0.66200E-02   -0.54784E-04   962   0.165E-02    0.278E+00
DAV:  89    -0.122271537793E+04    0.50913E-03   -0.36926E-04   793   0.141E-02    0.285E+00
DAV:  90    -0.122271308476E+04    0.22932E-02   -0.29651E-04   676   0.954E-03    0.271E+00
DAV:  91    -0.122271162956E+04    0.14552E-02   -0.23297E-04   819   0.125E-02    0.275E+00
DAV:  92    -0.122271170305E+04   -0.73494E-04   -0.10645E-04   702   0.699E-03
   1 F= -.12532173E+04 E0= -.12531341E+04  d E =-.125322E+04
       N       E                     dE             d eps       ncg     rms          rms(c)
DAV:   1    -0.122271034515E+04    0.12844E-02   -0.11530E+00  1196   0.647E-01    0.286E+00
DAV:   2    -0.122328969849E+04   -0.57935E+00   -0.46210E+00  1716   0.131E+00    0.631E+00
DAV:   3    -0.122278980215E+04    0.49990E+00   -0.29337E+00  1690   0.980E-01    0.193E+00
DAV:   4    -0.122281507421E+04   -0.25272E-01   -0.11439E+00  1729   0.515E-01    0.374E+00
DAV:   5    -0.122279216979E+04    0.22904E-01   -0.73016E-02  1651   0.235E-01    0.175E+00
DAV:   6    -0.122278366394E+04    0.85059E-02   -0.87792E-02  1521   0.139E-01    0.191E+00
DAV:   7    -0.122277235478E+04    0.11309E-01   -0.10406E-01  1703   0.117E-01    0.121E+00
DAV:   8    -0.122277923443E+04   -0.68797E-02   -0.85299E-02  1573   0.963E-02    0.138E+00
DAV:   9    -0.122277290164E+04    0.63328E-02   -0.52601E-02  1482   0.773E-02    0.774E-01
DAV:  10    -0.122277252796E+04    0.37367E-03   -0.24346E-02  1248   0.480E-02    0.599E-01
DAV:  11    -0.122277089272E+04    0.16352E-02   -0.17488E-02  1066   0.321E-02    0.480E-01
DAV:  12    -0.122277072960E+04    0.16312E-03   -0.74780E-03  1040   0.285E-02    0.249E-01
DAV:  13    -0.122277053210E+04    0.19749E-03   -0.43331E-03   832   0.182E-02    0.272E-01
DAV:  14    -0.122277055401E+04   -0.21908E-04   -0.28667E-03   845   0.184E-02    0.212E-01
DAV:  15    -0.122277041015E+04    0.14386E-03   -0.13201E-03   780   0.147E-02    0.138E-01
DAV:  16    -0.122277035995E+04    0.50201E-04   -0.81264E-04   728   0.131E-02
   2 F= -.12532759E+04 E0= -.12532129E+04  d E =-.585726E-01
       N       E                     dE             d eps       ncg     rms          rms(c)
DAV:   1    -0.122278002170E+04   -0.96116E-02   -0.55764E-01  1196   0.435E-01    0.349E-01
DAV:   2    -0.122280909561E+04   -0.29074E-01   -0.47118E-02  1599   0.154E-01    0.336E+00
DAV:   3    -0.122279136602E+04    0.17730E-01   -0.38553E-02  1508   0.126E-01    0.640E-01
DAV:   4    -0.122278645567E+04    0.49103E-02   -0.14926E-02  1378   0.524E-02    0.891E-01
DAV:   5    -0.122278262267E+04    0.38330E-02   -0.11682E-02  1118   0.433E-02    0.377E-01
DAV:   6    -0.122278195072E+04    0.67195E-03   -0.49303E-03   975   0.255E-02    0.430E-01
DAV:   7    -0.122278108693E+04    0.86379E-03   -0.33299E-03  1027   0.229E-02    0.119E-01
DAV:   8    -0.122278103699E+04    0.49941E-04   -0.22321E-03   806   0.147E-02    0.254E-01
DAV:   9    -0.122278076168E+04    0.27531E-03   -0.17729E-03   754   0.127E-02    0.845E-02
DAV:  10    -0.122278073257E+04    0.29102E-04   -0.84423E-04   741   0.886E-03
   3 F= -.12532863E+04 E0= -.12532214E+04  d E =-.690002E-01
       N       E                     dE             d eps       ncg     rms          rms(c)
DAV:   1    -0.122278132660E+04   -0.56493E-03   -0.17440E-02  1144   0.760E-02    0.489E-02
DAV:   2    -0.122278146029E+04   -0.13368E-03   -0.13040E-03   923   0.151E-02    0.144E-01
DAV:   3    -0.122278141205E+04    0.48240E-04   -0.10356E-03   832   0.119E-02    0.906E-02
DAV:   4    -0.122278145441E+04   -0.42363E-04   -0.46562E-04   819   0.119E-02
   4 F= -.12532871E+04 E0= -.12532210E+04  d E =-.697334E-01
       N       E                     dE             d eps       ncg     rms          rms(c)
DAV:   1    -0.122278167917E+04   -0.26713E-03   -0.94214E-03  1105   0.569E-02    0.840E-02
DAV:   2    -0.122278243004E+04   -0.75087E-03   -0.84607E-04  1040   0.213E-02    0.415E-01
DAV:   3    -0.122278228382E+04    0.14623E-03   -0.24063E-03  1014   0.322E-02    0.274E-01
DAV:   4    -0.122278180972E+04    0.47409E-03   -0.78197E-04   871   0.159E-02    0.131E-01
DAV:   5    -0.122278169851E+04    0.11122E-03   -0.99570E-05   741   0.587E-03    0.530E-02
DAV:   6    -0.122278168934E+04    0.91694E-05   -0.46789E-05   676   0.579E-03
   5 F= -.12532873E+04 E0= -.12532228E+04  d E =-.699771E-01
       N       E                     dE             d eps       ncg     rms          rms(c)
DAV:   1    -0.122278175793E+04   -0.59421E-04   -0.23132E-03   962   0.283E-02    0.499E-02
DAV:   2    -0.122278187792E+04   -0.11999E-03   -0.11988E-04   819   0.725E-03    0.156E-01
DAV:   3    -0.122278186278E+04    0.15134E-04   -0.21541E-04   793   0.930E-03
   6 F= -.12532875E+04 E0= -.12532253E+04  d E =-.701551E-01
       N       E                     dE             d eps       ncg     rms          rms(c)
DAV:   1    -0.122278181419E+04    0.63729E-04   -0.75988E-04   884   0.169E-02    0.728E-02
DAV:   2    -0.122278267008E+04   -0.85589E-03   -0.10363E-03  1001   0.221E-02    0.395E-01
DAV:   3    -0.122278222157E+04    0.44850E-03   -0.24021E-03  1001   0.312E-02    0.264E-01
DAV:   4    -0.122278193891E+04    0.28266E-03   -0.53003E-04   780   0.123E-02    0.146E-01
DAV:   5    -0.122278180801E+04    0.13091E-03   -0.10611E-04   715   0.548E-03    0.514E-02
DAV:   6    -0.122278180755E+04    0.45823E-06   -0.72436E-05   676   0.514E-03
   7 F= -.12532874E+04 E0= -.12532237E+04  d E =-.701022E-01
       N       E                     dE             d eps       ncg     rms          rms(c)
DAV:   1    -0.122278177633E+04    0.31677E-04   -0.19220E-04   845   0.813E-03    0.154E-02
DAV:   2    -0.122278185033E+04   -0.74005E-04   -0.19751E-04   754   0.874E-03
   8 F= -.12532875E+04 E0= -.12532218E+04  d E =-.701461E-01
       N       E                     dE             d eps       ncg     rms          rms(c)
DAV:   1    -0.122278178109E+04   -0.47599E-05   -0.17559E-04   793   0.879E-03    0.334E-02
DAV:   2    -0.122278230886E+04   -0.52777E-03   -0.71610E-04   949   0.187E-02    0.343E-01
DAV:   3    -0.122278183440E+04    0.47446E-03   -0.79111E-04   910   0.190E-02    0.814E-02
DAV:   4    -0.122278178946E+04    0.44948E-04   -0.70679E-05   728   0.566E-03
   9 F= -.12532874E+04 E0= -.12532235E+04  d E =-.700857E-01
       N       E                     dE             d eps       ncg     rms          rms(c)
DAV:   1    -0.122278179298E+04    0.41424E-04   -0.57693E-05   676   0.409E-03    0.556E-02
DAV:   2    -0.122278219555E+04   -0.40257E-03   -0.53445E-04   871   0.146E-02    0.301E-01
DAV:   3    -0.122278208664E+04    0.10891E-03   -0.13597E-03   936   0.240E-02    0.203E-01
DAV:   4    -0.122278184029E+04    0.24635E-03   -0.30096E-04   715   0.982E-03    0.779E-02
DAV:   5    -0.122278180896E+04    0.31329E-04   -0.75326E-05   715   0.368E-03
  10 F= -.12532874E+04 E0= -.12532238E+04  d E =-.701055E-01
       N       E                     dE             d eps       ncg     rms          rms(c)
DAV:   1    -0.122278178572E+04    0.54568E-04   -0.67010E-05   676   0.388E-03    0.167E-02
DAV:   2    -0.122278183322E+04   -0.47502E-04   -0.14327E-04   676   0.310E-03
  11 F= -.12532875E+04 E0= -.12532243E+04  d E =-.701300E-01
       N       E                     dE             d eps       ncg     rms          rms(c)
DAV:   1    -0.122278179439E+04   -0.86675E-05   -0.18458E-04   702   0.584E-03    0.511E-02
DAV:   2    -0.122278326130E+04   -0.14669E-02   -0.31818E-03  1027   0.354E-02    0.451E-01
DAV:   3    -0.122278186004E+04    0.14013E-02   -0.26089E-03   988   0.323E-02    0.710E-02
DAV:   4    -0.122278184157E+04    0.18471E-04   -0.22023E-04   741   0.693E-03
  12 F= -.12532875E+04 E0= -.12532242E+04  d E =-.701384E-01
       N       E                     dE             d eps       ncg     rms          rms(c)
DAV:   1    -0.122278178790E+04    0.72138E-04   -0.11155E-04   676   0.465E-03    0.197E-02
DAV:   2    -0.122278189626E+04   -0.10836E-03   -0.25034E-04   780   0.936E-03    0.139E-01
DAV:   3    -0.122278179039E+04    0.10587E-03   -0.26153E-04   793   0.108E-02    0.531E-02
DAV:   4    -0.122278178645E+04    0.39382E-05   -0.34625E-05   676   0.272E-03
  13 F= -.12532874E+04 E0= -.12532234E+04  d E =-.700834E-01
       N       E                     dE             d eps       ncg     rms          rms(c)
DAV:   1    -0.122278178011E+04    0.10288E-04   -0.22379E-05   624   0.102E-03    0.234E-02
DAV:   2    -0.122278184355E+04   -0.63443E-04   -0.10420E-04   741   0.652E-03
  14 F= -.12532875E+04 E0= -.12532217E+04  d E =-.701405E-01
       N       E                     dE             d eps       ncg     rms          rms(c)
DAV:   1    -0.122278182960E+04   -0.49497E-04   -0.23135E-04   780   0.103E-02    0.867E-02
DAV:   2    -0.122278832111E+04   -0.64915E-02   -0.85214E-03  1287   0.598E-02    0.143E+00
DAV:   3    -0.122278287016E+04    0.54510E-02   -0.73476E-03  1209   0.557E-02    0.235E-01
DAV:   4    -0.122278195649E+04    0.91366E-03   -0.77757E-04  1001   0.188E-02    0.117E-01
DAV:   5    -0.122278181894E+04    0.13755E-03   -0.10592E-04   728   0.876E-03    0.586E-02
DAV:   6    -0.122278181006E+04    0.88801E-05   -0.38608E-05   676   0.446E-03
  15 F= -.12532874E+04 E0= -.12532231E+04  d E =-.701070E-01
       N       E                     dE             d eps       ncg     rms          rms(c)
DAV:   1    -0.122278178465E+04    0.34292E-04   -0.17602E-05   650   0.356E-03    0.190E-02
DAV:   2    -0.122278185460E+04   -0.69944E-04   -0.72106E-05   676   0.417E-03
  16 F= -.12532875E+04 E0= -.12532220E+04  d E =-.701515E-01
       N       E                     dE             d eps       ncg     rms          rms(c)
DAV:   1    -0.122278180648E+04   -0.21832E-04   -0.13203E-04   702   0.786E-03    0.626E-02
DAV:   2    -0.122278505722E+04   -0.32507E-02   -0.44378E-03  1053   0.432E-02    0.954E-01
DAV:   3    -0.122278224337E+04    0.28138E-02   -0.38235E-03  1040   0.406E-02    0.155E-01
DAV:   4    -0.122278190080E+04    0.34256E-03   -0.35965E-04   858   0.131E-02    0.115E-01
DAV:   5    -0.122278179289E+04    0.10792E-03   -0.60226E-05   728   0.698E-03    0.276E-02
DAV:   6    -0.122278181405E+04   -0.21160E-04   -0.26104E-05   650   0.359E-03
  17 F= -.12532874E+04 E0= -.12532229E+04  d E =-.701110E-01
       N       E                     dE             d eps       ncg     rms          rms(c)
DAV:   1    -0.122278177841E+04    0.14482E-04   -0.13420E-05   650   0.305E-03    0.991E-03
DAV:   2    -0.122278181155E+04   -0.33146E-04   -0.78620E-05   728   0.531E-03
  18 F= -.12532874E+04 E0= -.12532242E+04  d E =-.701085E-01
       N       E                     dE             d eps       ncg     rms          rms(c)
DAV:   1    -0.122278177429E+04    0.41192E-05   -0.54170E-05   676   0.462E-03    0.137E-02
DAV:   2    -0.122278179911E+04   -0.24825E-04   -0.33223E-05   676   0.311E-03
  19 F= -.12532874E+04 E0= -.12532241E+04  d E =-.700960E-01
       N       E                     dE             d eps       ncg     rms          rms(c)
DAV:   1    -0.122278179539E+04   -0.21099E-04   -0.86751E-05   702   0.545E-03    0.507E-02
DAV:   2    -0.122278317973E+04   -0.13843E-02   -0.29814E-03  1027   0.351E-02    0.432E-01
DAV:   3    -0.122278184360E+04    0.13361E-02   -0.25064E-03   988   0.326E-02    0.782E-02
DAV:   4    -0.122278181195E+04    0.31651E-04   -0.14680E-04   741   0.640E-03
  20 F= -.12532874E+04 E0= -.12532240E+04  d E =-.701089E-01
