 vasp.5.4.4.18Apr17-6-g9f103f2a35 (build Oct 28 2020 13:00:36) gamma-only       
  
 executed on             LinuxIFC date 2020.12.03  21:33:07
 running on   52 total cores
 distrk:  each k-point on   52 cores,    1 groups
 distr:  one band on NCORES_PER_BAND=   4 cores,   13 groups


--------------------------------------------------------------------------------------------------------


 INCAR:
 POTCAR:    PAW_PBE C 08Apr2002                   
 POTCAR:    PAW_PBE Cr 06Sep2000                  
 POTCAR:    PAW_PBE H 15Jun2001                   
 POTCAR:    PAW_PBE Mo 08Apr2002                  
 POTCAR:    PAW_PBE S 06Sep2000                   
 POTCAR:    PAW_PBE C 08Apr2002                   
   VRHFIN =C: s2p2                                                              
   LEXCH  = PE                                                                  
   EATOM  =   147.1560 eV,   10.8157 Ry                                         
                                                                                
   TITEL  = PAW_PBE C 08Apr2002                                                 
   LULTRA =        F    use ultrasoft PP ?                                      
   IUNSCR =        1    unscreen: 0-lin 1-nonlin 2-no                           
   RPACOR =    1.200    partial core radius                                     
   POMASS =   12.011; ZVAL   =    4.000    mass and valenz                      
   RCORE  =    1.500    outmost cutoff radius                                   
   RWIGS  =    1.630; RWIGS  =    0.863    wigner-seitz radius (au A)           
   ENMAX  =  400.000; ENMIN  =  300.000 eV                                      
   ICORE  =        2    local potential                                         
   LCOR   =        T    correct aug charges                                     
   LPAW   =        T    paw PP                                                  
   EAUG   =  644.873                                                            
   DEXC   =    0.000                                                            
   RMAX   =    1.529    core radius for proj-oper                               
   RAUG   =    1.300    factor for augmentation sphere                          
   RDEP   =    1.501    radius for radial grids                                 
   RDEPT  =    1.300    core radius for aug-charge                              
                                                                                
   Atomic configuration                                                         
    4 entries                                                                   
     n  l   j            E        occ.                                          
     1  0  0.50      -273.3789   2.0000                                         
     2  0  0.50       -13.7508   2.0000                                         
     2  1  0.50        -5.2854   2.0000                                         
     3  2  1.50        -5.4423   0.0000                                         
   Description                                                                  
     l       E           TYP  RCUT    TYP  RCUT                                 
     0    -13.7508458     23  1.200                                             
     0     -8.2022199     23  1.200                                             
     1     -5.2854383     23  1.500                                             
     1     34.0145650     23  1.500                                             
     2     -5.4423304      7  1.500                                             
  local pseudopotential read in
  partial core-charges read in
  partial kinetic energy density read in
  atomic valenz-charges read in
  non local Contribution for L=           0  read in
    real space projection operators read in
  non local Contribution for L=           0  read in
    real space projection operators read in
  non local Contribution for L=           1  read in
    real space projection operators read in
  non local Contribution for L=           1  read in
    real space projection operators read in
    PAW grid and wavefunctions read in
 
   number of l-projection  operators is LMAX  =           4
   number of lm-projection operators is LMMAX =           8
 
 POTCAR:    PAW_PBE Cr 06Sep2000                  
   VRHFIN =Cr : d5 s1                                                           
   LEXCH  = PE                                                                  
   EATOM  =   276.8859 eV,   20.3505 Ry                                         
                                                                                
   TITEL  = PAW_PBE Cr 06Sep2000                                                
   LULTRA =        F    use ultrasoft PP ?                                      
   IUNSCR =        1    unscreen: 0-lin 1-nonlin 2-no                           
   RPACOR =    2.080    partial core radius                                     
   POMASS =   51.996; ZVAL   =    6.000    mass and valenz                      
   RCORE  =    2.500    outmost cutoff radius                                   
   RWIGS  =    2.500; RWIGS  =    1.323    wigner-seitz radius (au A)           
   ENMAX  =  227.080; ENMIN  =  170.310 eV                                      
   RCLOC  =    1.721    cutoff for local pot                                    
   LCOR   =        T    correct aug charges                                     
   LPAW   =        T    paw PP                                                  
   EAUG   =  402.108                                                            
   DEXC   =    0.000                                                            
   RMAX   =    2.552    core radius for proj-oper                               
   RAUG   =    1.300    factor for augmentation sphere                          
   RDEP   =    2.609    radius for radial grids                                 
   RDEPT  =    2.065    core radius for aug-charge                              
                                                                                
   Atomic configuration                                                         
    9 entries                                                                   
     n  l   j            E        occ.                                          
     1  0  0.50     -5880.4963   2.0000                                         
     2  0  0.50      -667.0865   2.0000                                         
     2  1  1.50      -560.6250   6.0000                                         
     3  0  0.50       -73.9860   2.0000                                         
     3  1  1.50       -45.4378   6.0000                                         
     3  2  2.50        -2.9137   5.0000                                         
     4  0  0.50        -4.0071   1.0000                                         
     4  1  0.50        -1.2789   0.0000                                         
     4  3  2.50        -1.3606   0.0000                                         
   Description                                                                  
     l       E           TYP  RCUT    TYP  RCUT                                 
     2     -2.9136677     23  2.500                                             
     2     -4.2742503     23  2.500                                             
     0     -4.0071322     23  2.500                                             
     0      9.4498801     23  2.500                                             
     1     -5.4423304     23  2.500                                             
     1     27.2116520     23  2.500                                             
  local pseudopotential read in
  partial core-charges read in
  partial kinetic energy density read in
  atomic valenz-charges read in
  non local Contribution for L=           2  read in
    real space projection operators read in
  non local Contribution for L=           2  read in
    real space projection operators read in
  non local Contribution for L=           0  read in
    real space projection operators read in
  non local Contribution for L=           0  read in
    real space projection operators read in
  non local Contribution for L=           1  read in
    real space projection operators read in
  non local Contribution for L=           1  read in
    real space projection operators read in
    PAW grid and wavefunctions read in
 
   number of l-projection  operators is LMAX  =           6
   number of lm-projection operators is LMMAX =          18
 
 POTCAR:    PAW_PBE H 15Jun2001                   
   VRHFIN =H: ultrasoft test                                                    
   LEXCH  = PE                                                                  
   EATOM  =    12.4884 eV,    0.9179 Ry                                         
                                                                                
   TITEL  = PAW_PBE H 15Jun2001                                                 
   LULTRA =        F    use ultrasoft PP ?                                      
   IUNSCR =        0    unscreen: 0-lin 1-nonlin 2-no                           
   RPACOR =    0.000    partial core radius                                     
   POMASS =    1.000; ZVAL   =    1.000    mass and valenz                      
   RCORE  =    1.100    outmost cutoff radius                                   
   RWIGS  =    0.700; RWIGS  =    0.370    wigner-seitz radius (au A)           
   ENMAX  =  250.000; ENMIN  =  200.000 eV                                      
   RCLOC  =    0.701    cutoff for local pot                                    
   LCOR   =        T    correct aug charges                                     
   LPAW   =        T    paw PP                                                  
   EAUG   =  400.000                                                            
   RMAX   =    1.123    core radius for proj-oper                               
   RAUG   =    1.200    factor for augmentation sphere                          
   RDEP   =    1.112    radius for radial grids                                 
   RDEPT  =    0.926    core radius for aug-charge                              
                                                                                
   Atomic configuration                                                         
    2 entries                                                                   
     n  l   j            E        occ.                                          
     1  0  0.50        -6.4927   1.0000                                         
     2  1  0.50        -3.4015   0.0000                                         
   Description                                                                  
     l       E           TYP  RCUT    TYP  RCUT                                 
     0     -6.4927494     23  1.100                                             
     0      6.8029130     23  1.100                                             
     1     -4.0817478     23  1.100                                             
  local pseudopotential read in
  atomic valenz-charges read in
  non local Contribution for L=           0  read in
    real space projection operators read in
  non local Contribution for L=           0  read in
    real space projection operators read in
  non local Contribution for L=           1  read in
    real space projection operators read in
    PAW grid and wavefunctions read in
 
   number of l-projection  operators is LMAX  =           3
   number of lm-projection operators is LMMAX =           5
 
 POTCAR:    PAW_PBE Mo 08Apr2002                  
   VRHFIN =Mo: 4p5s4d                                                           
   LEXCH  = PE                                                                  
   EATOM  =   217.5176 eV,   15.9871 Ry                                         
                                                                                
   TITEL  = PAW_PBE Mo 08Apr2002                                                
   LULTRA =        F    use ultrasoft PP ?                                      
   IUNSCR =        1    unscreen: 0-lin 1-nonlin 2-no                           
   RPACOR =    2.200    partial core radius                                     
   POMASS =   95.940; ZVAL   =    6.000    mass and valenz                      
   RCORE  =    2.750    outmost cutoff radius                                   
   RWIGS  =    2.750; RWIGS  =    1.455    wigner-seitz radius (au A)           
   ENMAX  =  224.584; ENMIN  =  168.438 eV                                      
   RCLOC  =    2.111    cutoff for local pot                                    
   LCOR   =        T    correct aug charges                                     
   LPAW   =        T    paw PP                                                  
   EAUG   =  345.278                                                            
   DEXC   =    0.000                                                            
   RMAX   =    2.821    core radius for proj-oper                               
   RAUG   =    1.300    factor for augmentation sphere                          
   RDEP   =    2.815    radius for radial grids                                 
   RDEPT  =    2.211    core radius for aug-charge                              
                                                                                
   Atomic configuration                                                         
   12 entries                                                                   
     n  l   j            E        occ.                                          
     1  0  0.50    -19819.0341   2.0000                                         
     2  0  0.50     -2799.0127   2.0000                                         
     2  1  1.50     -2502.0276   6.0000                                         
     3  0  0.50      -476.4448   2.0000                                         
     3  1  1.50      -379.1496   6.0000                                         
     3  2  2.50      -220.9367  10.0000                                         
     4  0  0.50       -64.3378   2.0000                                         
     4  1  1.50       -38.4773   6.0000                                         
     4  2  2.50        -3.7535   5.0000                                         
     5  0  0.50        -4.0862   1.0000                                         
     5  1  0.50        -2.7701   0.0000                                         
     4  3  2.50        -1.3606   0.0000                                         
   Description                                                                  
     l       E           TYP  RCUT    TYP  RCUT                                 
     2     -3.7534765     23  2.500                                             
     2     -5.1140591     23  2.500                                             
     0     -4.0861560     23  2.600                                             
     0     13.6058260     23  2.600                                             
     1      5.4423304     23  2.750                                             
     1     27.2116520     23  2.750                                             
  local pseudopotential read in
  partial core-charges read in
  partial kinetic energy density read in
  atomic valenz-charges read in
  non local Contribution for L=           2  read in
    real space projection operators read in
  non local Contribution for L=           2  read in
    real space projection operators read in
  non local Contribution for L=           0  read in
    real space projection operators read in
  non local Contribution for L=           0  read in
    real space projection operators read in
  non local Contribution for L=           1  read in
    real space projection operators read in
  non local Contribution for L=           1  read in
    real space projection operators read in
    PAW grid and wavefunctions read in
 
   number of l-projection  operators is LMAX  =           6
   number of lm-projection operators is LMMAX =          18
 
 POTCAR:    PAW_PBE S 06Sep2000                   
   VRHFIN =S : s2p4                                                             
   LEXCH  = PE                                                                  
   EATOM  =   276.8230 eV,   20.3459 Ry                                         
                                                                                
   TITEL  = PAW_PBE S 06Sep2000                                                 
   LULTRA =        F    use ultrasoft PP ?                                      
   IUNSCR =        1    unscreen: 0-lin 1-nonlin 2-no                           
   RPACOR =    1.500    partial core radius                                     
   POMASS =   32.066; ZVAL   =    6.000    mass and valenz                      
   RCORE  =    1.900    outmost cutoff radius                                   
   RWIGS  =    2.200; RWIGS  =    1.164    wigner-seitz radius (au A)           
   ENMAX  =  258.689; ENMIN  =  194.016 eV                                      
   ICORE  =        2    local potential                                         
   LCOR   =        T    correct aug charges                                     
   LPAW   =        T    paw PP                                                  
   EAUG   =  335.092                                                            
   DEXC   =    0.000                                                            
   RMAX   =    1.942    core radius for proj-oper                               
   RAUG   =    1.300    factor for augmentation sphere                          
   RDEP   =    1.954    radius for radial grids                                 
   RDEPT  =    1.744    core radius for aug-charge                              
                                                                                
   Atomic configuration                                                         
    6 entries                                                                   
     n  l   j            E        occ.                                          
     1  0  0.50     -2405.8406   2.0000                                         
     2  0  0.50      -211.7007   2.0000                                         
     2  1  1.50      -156.4958   6.0000                                         
     3  0  0.50       -17.2562   2.0000                                         
     3  1  0.50        -7.0085   4.0000                                         
     3  2  1.50        -6.8029   0.0000                                         
   Description                                                                  
     l       E           TYP  RCUT    TYP  RCUT                                 
     0    -17.2561641     23  1.900                                             
     0    -15.8743224     23  1.900                                             
     1     -7.0085400     23  1.900                                             
     1     -2.7779785     23  1.900                                             
     2     -6.8029130     23  1.900                                             
  local pseudopotential read in
  partial core-charges read in
  partial kinetic energy density read in
  atomic valenz-charges read in
  non local Contribution for L=           0  read in
    real space projection operators read in
  non local Contribution for L=           0  read in
    real space projection operators read in
  non local Contribution for L=           1  read in
    real space projection operators read in
  non local Contribution for L=           1  read in
    real space projection operators read in
    PAW grid and wavefunctions read in
 
   number of l-projection  operators is LMAX  =           4
   number of lm-projection operators is LMMAX =           8
 
 Optimization of the real space projectors (new method)

 maximal supplied QI-value         = 25.13
 optimisation between [QCUT,QGAM] = [ 10.05, 20.36] = [ 28.30,116.06] Ry 
 Optimized for a Real-space Cutoff    1.51 Angstroem

   l    n(q)    QCUT    max X(q) W(low)/X(q) W(high)/X(q)  e(spline) 
   0      9    10.053   115.676    0.19E-03    0.21E-03    0.38E-06
   0      9    10.053    87.132    0.19E-03    0.21E-03    0.38E-06
   1      9    10.053     4.429    0.87E-04    0.11E-03    0.39E-06
   1      9    10.053     2.733    0.59E-04    0.62E-04    0.43E-06
 Optimization of the real space projectors (new method)

 maximal supplied QI-value         = 15.12
 optimisation between [QCUT,QGAM] = [ 10.13, 20.41] = [ 28.73,116.64] Ry 
 Optimized for a Real-space Cutoff    1.55 Angstroem

   l    n(q)    QCUT    max X(q) W(low)/X(q) W(high)/X(q)  e(spline) 
   2      9    10.129    94.395    0.23E-03    0.29E-03    0.30E-06
   2      9    10.129    88.078    0.23E-03    0.29E-03    0.30E-06
   0      9    10.129    50.173    0.57E-04    0.58E-04    0.11E-06
   0      9    10.129    24.906    0.50E-04    0.51E-04    0.96E-07
   1      9    10.129    12.133    0.24E-03    0.21E-04    0.16E-06
   1      9    10.129     7.290    0.17E-03    0.12E-04    0.12E-06
 Optimization of the real space projectors (new method)

 maximal supplied QI-value         = 34.20
 optimisation between [QCUT,QGAM] = [  9.92, 20.18] = [ 27.55,114.04] Ry 
 Optimized for a Real-space Cutoff    1.34 Angstroem

   l    n(q)    QCUT    max X(q) W(low)/X(q) W(high)/X(q)  e(spline) 
   0      8     9.919    19.460    0.16E-03    0.20E-03    0.36E-06
   0      8     9.919    12.209    0.16E-03    0.20E-03    0.35E-06
   1      8     9.919     4.655    0.19E-03    0.46E-03    0.40E-06
 Optimization of the real space projectors (new method)

 maximal supplied QI-value         = 13.61
 optimisation between [QCUT,QGAM] = [ 10.20, 20.41] = [ 29.16,116.64] Ry 
 Optimized for a Real-space Cutoff    1.65 Angstroem

   l    n(q)    QCUT    max X(q) W(low)/X(q) W(high)/X(q)  e(spline) 
   2      9    10.205    80.908    0.21E-03    0.30E-03    0.60E-06
   2      9    10.205    79.000    0.21E-03    0.30E-03    0.60E-06
   0     10    10.205    52.066    0.39E-04    0.38E-04    0.19E-06
   0     10    10.205    24.514    0.33E-04    0.32E-04    0.16E-06
   1     10    10.205    16.033    0.64E-04    0.17E-03    0.19E-06
   1     10    10.205    11.179    0.49E-04    0.13E-03    0.15E-06
 Optimization of the real space projectors (new method)

 maximal supplied QI-value         = 19.84
 optimisation between [QCUT,QGAM] = [ 10.12, 20.44] = [ 28.68,116.96] Ry 
 Optimized for a Real-space Cutoff    1.42 Angstroem

   l    n(q)    QCUT    max X(q) W(low)/X(q) W(high)/X(q)  e(spline) 
   0      9    10.119   187.594    0.52E-04    0.93E-04    0.64E-07
   0      9    10.119   164.243    0.51E-04    0.92E-04    0.63E-07
   1      8    10.119    67.533    0.16E-03    0.17E-03    0.23E-06
   1      8    10.119    50.729    0.16E-03    0.16E-03    0.23E-06
  PAW_PBE C 08Apr2002                   :
 energy of atom  1       EATOM= -147.1560
 kinetic energy error for atom=    0.0288 (will be added to EATOM!!)
  PAW_PBE Cr 06Sep2000                  :
 energy of atom  2       EATOM= -276.8859
 kinetic energy error for atom=    0.0018 (will be added to EATOM!!)
  PAW_PBE H 15Jun2001                   :
 energy of atom  3       EATOM=  -12.4884
 kinetic energy error for atom=    0.0098 (will be added to EATOM!!)
  PAW_PBE Mo 08Apr2002                  :
 energy of atom  4       EATOM= -217.5176
 kinetic energy error for atom=    0.0025 (will be added to EATOM!!)
  PAW_PBE S 06Sep2000                   :
 energy of atom  5       EATOM= -276.8230
 kinetic energy error for atom=    0.0046 (will be added to EATOM!!)
 
 
 POSCAR:  C Cr  H Mo  S                          
  positions in cartesian coordinates
  No initial velocities read in
 exchange correlation table for  LEXCH =        8
   RHO(1)=    0.500       N(1)  =     2000
   RHO(2)=  100.500       N(2)  =     4000
 


--------------------------------------------------------------------------------------------------------


 ion  position               nearest neighbor table
   1  0.451  0.430  0.507-  18 1.09   2 1.42   3 1.43  11 2.20
   2  0.494  0.524  0.489-  17 1.09   1 1.42   5 1.43  11 2.18
   3  0.505  0.385  0.493-  19 1.09   1 1.43   4 1.44  11 2.15
   4  0.583  0.454  0.467-  20 1.09   3 1.44   5 1.44  11 2.09
   5  0.575  0.541  0.465-  12 1.09   2 1.43   4 1.44  11 2.11
   6  0.332  0.411  0.405-  14 1.09  10 1.44   8 1.44  11 2.11
   7  0.458  0.399  0.373-  15 1.09   9 1.43   8 1.44  11 2.15
   8  0.422  0.464  0.382-  13 1.09   7 1.44   6 1.44  11 2.10
   9  0.392  0.307  0.391-  16 1.09  10 1.42   7 1.43  11 2.20
  10  0.315  0.314  0.410-  21 1.09   9 1.42   6 1.44  11 2.18
  11  0.451  0.421  0.439-   4 2.09   8 2.10   5 2.11   6 2.11   3 2.15   7 2.15  10 2.18   2 2.18
                             1 2.20   9 2.20
  12  0.623  0.607  0.448-   5 1.09
  13  0.454  0.539  0.372-   8 1.09
  14  0.286  0.438  0.416-   6 1.09
  15  0.525  0.418  0.357-   7 1.09
  16  0.402  0.244  0.391-   9 1.09
  17  0.467  0.575  0.493-   2 1.09
  18  0.386  0.395  0.525-   1 1.09
  19  0.490  0.313  0.500-   3 1.09
  20  0.639  0.443  0.452-   4 1.09
  21  0.255  0.255  0.427-  10 1.09
  22  0.600  0.600  0.657-  97 2.43 148 2.43 144 2.43  98 2.43 149 2.43 145 2.43  56 3.18  27 3.18
                            61 3.18  44 3.18  38 3.18  47 3.18
  23  0.200  0.800  0.219- 126 2.43 162 2.43 121 2.43 139 2.43 163 2.43 122 2.43  26 3.18  49 3.18
                            51 3.18  64 3.18  54 3.18  70 3.18
  24  0.200  0.600  0.657- 164 2.43 127 2.43 123 2.43 128 2.43 165 2.43 124 2.43  46 3.18  33 3.18
                            47 3.18  63 3.18  34 3.18  66 3.18
  25  0.600  0.800  0.219-  92 2.43 146 2.43 112 2.43  94 2.43 147 2.43 143 2.43  35 3.18  58 3.18
                            29 3.18  36 3.18  50 3.18  49 3.18
  26  0.200  0.600  0.219- 166 2.43 129 2.43 126 2.43 130 2.43 167 2.43 139 2.43  49 3.18  36 3.18
                            23 3.18  62 3.18  28 3.18  64 3.18
  27  0.600  0.800  0.657-  96 2.43 144 2.43 110 2.43  93 2.43 145 2.43 170 2.43  22 3.18  56 3.18
                            31 3.18  47 3.18  48 3.18  46 3.18
  28  0.200  0.400  0.219- 133 2.43 142 2.43 129 2.43 141 2.43 134 2.43 130 2.43  32 3.18  42 3.18
                            36 3.18  59 3.18  26 3.18  62 3.18
  29  0.800  0.000  0.219-  72 2.43  84 2.43  92 2.43  94 2.43 108 2.43  86 2.43  50 3.18  25 3.18
                            59 3.18  58 3.18  52 3.18  55 3.18
  30  0.200  0.200  0.657- 140 2.43 135 2.43 131 2.43 136 2.43 125 2.43 132 2.43  44 3.18  41 3.18
                            34 3.18  57 3.18  53 3.18  60 3.18
  31  0.800  0.000  0.657-  80 2.43  85 2.43  96 2.43  93 2.43  82 2.43  81 2.43  48 3.18  27 3.18
                            60 3.18  56 3.18  71 3.18  57 3.18
  32  0.200  0.200  0.219- 113 2.43 137 2.43 133 2.43 114 2.43 138 2.43 134 2.43  42 3.18  39 3.18
                            28 3.18  55 3.18  54 3.18  59 3.18
  33  0.200  0.800  0.657- 123 2.43 160 2.43 119 2.43 124 2.43 161 2.43 120 2.43  24 3.18  46 3.18
                            37 3.18  66 3.18  53 3.18  69 3.18
  34  0.200  0.400  0.657- 131 2.43 168 2.43 127 2.43 132 2.43 169 2.43 128 2.43  30 3.18  44 3.18
                            47 3.18  60 3.18  24 3.18  63 3.18
  35  0.600  0.600  0.219- 100 2.43 150 2.43 146 2.43 102 2.43 151 2.43 147 2.43  58 3.18  25 3.18
                            67 3.18  42 3.18  40 3.18  36 3.18
  36  0.400  0.600  0.219- 166 2.43 146 2.43 142 2.43 167 2.43 141 2.43 147 2.43  26 3.18  49 3.18
                            28 3.18  25 3.18  42 3.18  35 3.18
  37  0.400  0.000  0.657- 115 2.43 156 2.43 160 2.43 111 2.43 161 2.43 116 2.43  53 3.18  33 3.18
                            43 3.18  46 3.18  41 3.18  48 3.18
  38  0.600  0.400  0.657- 105 2.43 152 2.43 148 2.43 106 2.43 153 2.43 149 2.43  43 3.18  65 3.18
                            61 3.18  41 3.18  22 3.18  44 3.18
  39  0.400  0.200  0.219- 113 2.43 154 2.43 117 2.43 114 2.43 118 2.43 155 2.43  32 3.18  42 3.18
                            54 3.18  40 3.18  51 3.18  45 3.18
  40  0.600  0.400  0.219-  91 2.43 154 2.43 150 2.43  90 2.43 155 2.43 151 2.43  45 3.18  68 3.18
                            67 3.18  39 3.18  35 3.18  42 3.18
  41  0.400  0.200  0.657- 140 2.43 152 2.43 115 2.43 125 2.43 116 2.43 153 2.43  30 3.18  44 3.18
                            53 3.18  38 3.18  37 3.18  43 3.18
  42  0.400  0.400  0.219- 113 2.43 142 2.43 150 2.43 114 2.43 151 2.43 141 2.43  32 3.18  28 3.18
                            39 3.18  35 3.18  36 3.18  40 3.18
  43  0.600  0.200  0.657-  73 2.43 156 2.43 152 2.43  74 2.43 111 2.43 153 2.43  65 3.18  38 3.18
                            71 3.18  37 3.18  48 3.18  41 3.18
  44  0.400  0.400  0.657- 140 2.43 148 2.43 168 2.43 149 2.43 125 2.43 169 2.43  30 3.18  34 3.18
                            41 3.18  22 3.18  47 3.18  38 3.18
  45  0.600  0.200  0.219-  77 2.43 158 2.43 154 2.43  78 2.43 159 2.43 155 2.43  68 3.18  52 3.18
                            40 3.18  51 3.18  50 3.18  39 3.18
  46  0.400  0.800  0.657- 110 2.43 160 2.43 164 2.43 165 2.43 170 2.43 161 2.43  24 3.18  33 3.18
                            47 3.18  48 3.18  37 3.18  27 3.18
  47  0.400  0.600  0.657- 164 2.43 144 2.43 168 2.43 165 2.43 145 2.43 169 2.43  24 3.18  46 3.18
                            34 3.18  27 3.18  44 3.18  22 3.18
  48  0.600  0.000  0.657-  80 2.43 110 2.43 156 2.43  81 2.43 170 2.43 111 2.43  31 3.18  71 3.18
                            46 3.18  27 3.18  43 3.18  37 3.18
  49  0.400  0.800  0.219- 112 2.43 162 2.43 166 2.43 143 2.43 167 2.43 163 2.43  26 3.18  23 3.18
                            36 3.18  50 3.18  51 3.18  25 3.18
  50  0.600  0.000  0.219-  84 2.43 112 2.43 158 2.43 143 2.43  86 2.43 159 2.43  29 3.18  52 3.18
                            49 3.18  25 3.18  45 3.18  51 3.18
  51  0.400  0.000  0.219- 117 2.43 158 2.43 162 2.43 159 2.43 163 2.43 118 2.43  54 3.18  23 3.18
                            45 3.18  49 3.18  39 3.18  50 3.18
  52  0.800  0.200  0.219-  77 2.43  87 2.43  84 2.43  78 2.43  86 2.43 104 2.43  45 3.18  68 3.18
                            50 3.18  62 3.18  29 3.18  59 3.18
  53  0.200  0.000  0.657- 115 2.43 119 2.43 135 2.43 120 2.43 116 2.43 136 2.43  37 3.18  41 3.18
                            69 3.18  33 3.18  30 3.18  57 3.18
  54  0.200  0.000  0.219- 117 2.43 121 2.43 137 2.43 122 2.43 118 2.43 138 2.43  51 3.18  39 3.18
                            70 3.18  32 3.18  23 3.18  55 3.18
  55  0.000  0.000  0.219-  83 2.43 137 2.43  72 2.43  89 2.43 138 2.43 108 2.43  32 3.18  58 3.18
                            59 3.18  70 3.18  54 3.18  29 3.18
  56  0.800  0.800  0.657-  96 2.43  97 2.43 171 2.43  98 2.43  93 2.43 157 2.43  22 3.18  27 3.18
                            61 3.18  57 3.18  31 3.18  69 3.18
  57  0.000  0.000  0.657- 135 2.43 171 2.43  85 2.43 157 2.43 136 2.43  82 2.43  30 3.18  56 3.18
                            60 3.18  69 3.18  53 3.18  31 3.18
  58  0.800  0.800  0.219-  92 2.43 100 2.43  83 2.43 102 2.43  94 2.43  89 2.43  35 3.18  25 3.18
                            67 3.18  55 3.18  29 3.18  70 3.18
  59  0.000  0.200  0.219- 133 2.43  72 2.43  87 2.43 108 2.43 134 2.43 104 2.43  62 3.18  28 3.18
                            29 3.18  55 3.18  32 3.18  52 3.18
  60  0.000  0.200  0.657- 131 2.43  85 2.43 103 2.43  82 2.43 132 2.43  88 2.43  63 3.18  34 3.18
                            31 3.18  57 3.18  30 3.18  71 3.18
  61  0.800  0.600  0.657-  97 2.43 105 2.43  76 2.43  98 2.43 106 2.43  75 2.43  22 3.18  56 3.18
                            38 3.18  69 3.18  65 3.18  66 3.18
  62  0.000  0.400  0.219-  87 2.43  95 2.43 129 2.43 104 2.43 130 2.43  79 2.43  59 3.18  52 3.18
                            26 3.18  64 3.18  28 3.18  68 3.18
  63  0.000  0.400  0.657- 101 2.43 103 2.43 127 2.43  88 2.43 128 2.43  99 2.43  60 3.18  71 3.18
                            24 3.18  66 3.18  34 3.18  65 3.18
  64  0.000  0.600  0.219- 109 2.43 126 2.43  95 2.43 107 2.43  79 2.43 139 2.43  70 3.18  23 3.18
                            68 3.18  62 3.18  26 3.18  67 3.18
  65  0.800  0.400  0.657-  73 2.43 105 2.43 101 2.43  74 2.43 106 2.43  99 2.43  43 3.18  38 3.18
                            71 3.18  66 3.18  61 3.18  63 3.18
  66  0.000  0.600  0.657-  76 2.43 123 2.43 101 2.43  75 2.43  99 2.43 124 2.43  69 3.18  33 3.18
                            65 3.18  63 3.18  61 3.18  24 3.18
  67  0.800  0.600  0.219- 100 2.43  91 2.43 109 2.43 102 2.43  90 2.43 107 2.43  35 3.18  58 3.18
                            40 3.18  70 3.18  68 3.18  64 3.18
  68  0.800  0.400  0.219-  77 2.43  91 2.43  95 2.43  78 2.43  90 2.43  79 2.43  45 3.18  40 3.18
                            52 3.18  64 3.18  67 3.18  62 3.18
  69  0.000  0.800  0.657-  76 2.43 119 2.43 171 2.43 120 2.43  75 2.43 157 2.43  66 3.18  61 3.18
                            53 3.18  57 3.18  56 3.18  33 3.18
  70  0.000  0.800  0.219-  83 2.43 109 2.43 121 2.43 107 2.43 122 2.43  89 2.43  64 3.18  67 3.18
                            54 3.18  55 3.18  23 3.18  58 3.18
  71  0.800  0.200  0.657-  73 2.43 103 2.43  80 2.43  74 2.43  88 2.43  81 2.43  43 3.18  65 3.18
                            48 3.18  63 3.18  31 3.18  60 3.18
  72  0.933  0.067  0.170-  29 2.43  59 2.43  55 2.43
  73  0.733  0.267  0.608-  71 2.43  43 2.43  65 2.43
  74  0.733  0.267  0.707-  71 2.43  65 2.43  43 2.43
  75  0.933  0.667  0.707-  66 2.43  69 2.43  61 2.43
  76  0.933  0.667  0.608-  66 2.43  69 2.43  61 2.43
  77  0.733  0.267  0.170-  52 2.43  45 2.43  68 2.43
  78  0.733  0.267  0.268-  52 2.43  45 2.43  68 2.43
  79  0.933  0.467  0.268-  64 2.43  62 2.43  68 2.43
  80  0.733  0.067  0.608-  31 2.43  48 2.43  71 2.43
  81  0.733  0.067  0.707-  48 2.43  71 2.43  31 2.43
  82  0.933  0.067  0.707-  31 2.43  60 2.43  57 2.43
  83  0.933  0.867  0.170-  55 2.43  70 2.43  58 2.43
  84  0.733  0.067  0.170-  29 2.43  50 2.43  52 2.43
  85  0.933  0.067  0.608-  31 2.43  60 2.43  57 2.43
  86  0.733  0.067  0.268-  50 2.43  52 2.43  29 2.43
  87  0.933  0.267  0.170-  52 2.43  62 2.43  59 2.43
  88  0.933  0.267  0.707-  63 2.43  71 2.43  60 2.43
  89  0.933  0.867  0.268-  55 2.43  70 2.43  58 2.43
  90  0.733  0.467  0.268-  40 2.43  67 2.43  68 2.43
  91  0.733  0.467  0.170-  40 2.43  67 2.43  68 2.43
  92  0.733  0.867  0.170-  25 2.43  29 2.43  58 2.43
  93  0.733  0.867  0.707-  27 2.43  31 2.43  56 2.43
  94  0.733  0.867  0.268-  25 2.43  29 2.43  58 2.43
  95  0.933  0.467  0.170-  62 2.43  64 2.43  68 2.43
  96  0.733  0.867  0.608-  27 2.43  31 2.43  56 2.43
  97  0.733  0.667  0.608-  61 2.43  22 2.43  56 2.43
  98  0.733  0.667  0.707-  61 2.43  56 2.43  22 2.43
  99  0.933  0.467  0.707-  66 2.43  63 2.43  65 2.43
 100  0.733  0.667  0.170-  67 2.43  35 2.43  58 2.43
 101  0.933  0.467  0.608-  63 2.43  66 2.43  65 2.43
 102  0.733  0.667  0.268-  67 2.43  58 2.43  35 2.43
 103  0.933  0.267  0.608-  71 2.43  63 2.43  60 2.43
 104  0.933  0.267  0.268-  52 2.43  62 2.43  59 2.43
 105  0.733  0.467  0.608-  38 2.43  61 2.43  65 2.43
 106  0.733  0.467  0.707-  38 2.43  61 2.43  65 2.43
 107  0.933  0.667  0.268-  64 2.43  70 2.43  67 2.43
 108  0.933  0.067  0.268-  29 2.43  59 2.43  55 2.43
 109  0.933  0.667  0.170-  64 2.43  70 2.43  67 2.43
 110  0.533  0.867  0.608-  46 2.43  48 2.43  27 2.43
 111  0.533  0.067  0.707-  37 2.43  43 2.43  48 2.43
 112  0.533  0.867  0.170-  49 2.43  50 2.43  25 2.43
 113  0.333  0.267  0.170-  39 2.43  32 2.43  42 2.43
 114  0.333  0.267  0.268-  39 2.43  32 2.43  42 2.43
 115  0.333  0.067  0.608-  37 2.43  41 2.43  53 2.43
 116  0.333  0.067  0.707-  41 2.43  53 2.43  37 2.43
 117  0.333  0.067  0.170-  39 2.43  51 2.43  54 2.43
 118  0.333  0.067  0.268-  39 2.43  54 2.43  51 2.43
 119  0.133  0.867  0.608-  53 2.43  69 2.43  33 2.43
 120  0.133  0.867  0.707-  53 2.43  69 2.43  33 2.43
 121  0.133  0.867  0.170-  54 2.43  70 2.43  23 2.43
 122  0.133  0.867  0.268-  54 2.43  70 2.43  23 2.43
 123  0.133  0.667  0.608-  66 2.43  33 2.43  24 2.43
 124  0.133  0.667  0.707-  33 2.43  66 2.43  24 2.43
 125  0.333  0.267  0.707-  41 2.43  30 2.43  44 2.43
 126  0.133  0.667  0.170-  64 2.43  23 2.43  26 2.43
 127  0.133  0.467  0.608-  24 2.43  63 2.43  34 2.43
 128  0.133  0.467  0.707-  24 2.43  63 2.43  34 2.43
 129  0.133  0.467  0.170-  26 2.43  62 2.43  28 2.43
 130  0.133  0.467  0.268-  26 2.43  62 2.43  28 2.43
 131  0.133  0.267  0.608-  60 2.43  34 2.43  30 2.43
 132  0.133  0.267  0.707-  34 2.43  60 2.43  30 2.43
 133  0.133  0.267  0.170-  59 2.43  28 2.43  32 2.43
 134  0.133  0.267  0.268-  28 2.43  59 2.43  32 2.43
 135  0.133  0.067  0.608-  30 2.43  57 2.43  53 2.43
 136  0.133  0.067  0.707-  30 2.43  57 2.43  53 2.43
 137  0.133  0.067  0.170-  32 2.43  55 2.43  54 2.43
 138  0.133  0.067  0.268-  32 2.43  55 2.43  54 2.43
 139  0.133  0.667  0.268-  23 2.43  64 2.43  26 2.43
 140  0.333  0.267  0.608-  41 2.43  30 2.43  44 2.43
 141  0.333  0.467  0.268-  28 2.43  36 2.43  42 2.43
 142  0.333  0.467  0.170-  28 2.43  36 2.43  42 2.43
 143  0.533  0.867  0.268-  49 2.43  50 2.43  25 2.43
 144  0.533  0.667  0.608-  47 2.43  27 2.43  22 2.43
 145  0.533  0.667  0.707-  27 2.43  47 2.43  22 2.43
 146  0.533  0.667  0.170-  36 2.43  25 2.43  35 2.43
 147  0.533  0.667  0.268-  25 2.43  36 2.43  35 2.43
 148  0.533  0.467  0.608-  22 2.43  44 2.43  38 2.43
 149  0.533  0.467  0.707-  22 2.43  44 2.43  38 2.43
 150  0.533  0.467  0.170-  35 2.43  42 2.43  40 2.43
 151  0.533  0.467  0.268-  35 2.43  42 2.43  40 2.43
 152  0.533  0.267  0.608-  41 2.43  38 2.43  43 2.43
 153  0.533  0.267  0.707-  38 2.43  41 2.43  43 2.43
 154  0.533  0.267  0.170-  39 2.43  40 2.43  45 2.43
 155  0.533  0.267  0.268-  39 2.43  40 2.43  45 2.43
 156  0.533  0.067  0.608-  37 2.43  43 2.43  48 2.43
 157  0.933  0.867  0.707-  57 2.43  69 2.43  56 2.43
 158  0.533  0.067  0.170-  45 2.43  51 2.43  50 2.43
 159  0.533  0.067  0.268-  45 2.43  51 2.43  50 2.43
 160  0.333  0.867  0.608-  33 2.43  37 2.43  46 2.43
 161  0.333  0.867  0.707-  33 2.43  37 2.43  46 2.43
 162  0.333  0.867  0.170-  23 2.43  49 2.43  51 2.43
 163  0.333  0.867  0.268-  23 2.43  51 2.43  49 2.43
 164  0.333  0.667  0.608-  47 2.43  24 2.43  46 2.43
 165  0.333  0.667  0.707-  47 2.43  46 2.43  24 2.43
 166  0.333  0.667  0.170-  36 2.43  26 2.43  49 2.43
 167  0.333  0.667  0.268-  36 2.43  26 2.43  49 2.43
 168  0.333  0.467  0.608-  34 2.43  44 2.43  47 2.43
 169  0.333  0.467  0.707-  34 2.43  47 2.43  44 2.43
 170  0.533  0.867  0.707-  46 2.43  48 2.43  27 2.43
 171  0.933  0.867  0.608-  57 2.43  69 2.43  56 2.43
 
  LATTYP: Found a hexagonal cell.
 ALAT       =    15.9000000000
 C/A-ratio  =     2.0364779874
  
  Lattice vectors:
  
 A1 = (  15.9000000000,   0.0000000000,   0.0000000000)
 A2 = (  -7.9500000000,  13.7698039202,   0.0000000000)
 A3 = (   0.0000000000,   0.0000000000,  32.3800000000)


Analysis of symmetry for initial positions (statically):
=====================================================================
 Subroutine PRICEL returns:
 Original cell was already a primitive cell.
 

 Routine SETGRP: Setting up the symmetry group for a 
 hexagonal supercell.


 Subroutine GETGRP returns: Found  1 space group operations
 (whereof  1 operations were pure point group operations)
 out of a pool of 24 trial point group operations.


The static configuration has the point symmetry C_1 .


Analysis of symmetry for dynamics (positions and initial velocities):
=====================================================================
 Subroutine PRICEL returns:
 Original cell was already a primitive cell.
 

 Routine SETGRP: Setting up the symmetry group for a 
 hexagonal supercell.


 Subroutine GETGRP returns: Found  1 space group operations
 (whereof  1 operations were pure point group operations)
 out of a pool of 24 trial point group operations.


The dynamic configuration has the point symmetry C_1 .


Analysis of constrained symmetry for selective dynamics:
=====================================================================
 Subroutine PRICEL returns:
 Original cell was already a primitive cell.
 

 Routine SETGRP: Setting up the symmetry group for a 
 hexagonal supercell.


 Subroutine GETGRP returns: Found  1 space group operations
 (whereof  1 operations were pure point group operations)
 out of a pool of 24 trial point group operations.


The constrained configuration has the point symmetry C_1 .


 Subroutine INISYM returns: Found  1 space group operations
 (whereof  1 operations are pure point group operations),
 and found     1 'primitive' translations

 
 
 KPOINTS: Gamma-point only                        
  k-points in reciprocal lattice
Space group operators:
 irot       det(A)        alpha          n_x          n_y          n_z        tau_x        tau_y        tau_z
    1     1.000000     0.000000     1.000000     0.000000     0.000000     0.000000     0.000000     0.000000


--------------------------------------------------------------------------------------------------------




 Dimension of arrays:
   k-points           NKPTS =      1   k-points in BZ     NKDIM =      1   number of bands    NBANDS=    585
   number of dos      NEDOS =    301   number of ions     NIONS =    171
   non local maximal  LDIM  =      6   non local SUM 2l+1 LMDIM =     18
   total plane-waves  NPLWV = ******
   max r-space proj   IRMAX =   6718   max aug-charges    IRDMAX=  23014
   dimension x,y,z NGX =   108 NGY =  108 NGZ =  216
   dimension x,y,z NGXF=   216 NGYF=  216 NGZF=  432
   support grid    NGXF=   216 NGYF=  216 NGZF=  432
   ions per type =              10   1  10  50 100
   NGX,Y,Z   is equivalent  to a cutoff of  11.29, 11.29, 11.09 a.u.
   NGXF,Y,Z  is equivalent  to a cutoff of  22.58, 22.58, 22.18 a.u.

 SYSTEM =  basalPlane                              
 POSCAR =   C Cr  H Mo  S                          

 Startparameter for this run:
   NWRITE =      2    write-flag & timer
   PREC   = accura    normal or accurate (medium, high low for compatibility)
   ISTART =      0    job   : 0-new  1-cont  2-samecut
   ICHARG =      2    charge: 1-file 2-atom 10-const
   ISPIN  =      1    spin polarized calculation?
   LNONCOLLINEAR =      F non collinear calculations
   LSORBIT =      F    spin-orbit coupling
   INIWAV =      1    electr: 0-lowe 1-rand  2-diag
   LASPH  =      F    aspherical Exc in radial PAW
   METAGGA=      F    non-selfconsistent MetaGGA calc.

 Electronic Relaxation 1
   ENCUT  =  400.0 eV  29.40 Ry    5.42 a.u.  25.93 25.93 52.80*2*pi/ulx,y,z
   ENINI  =  400.0     initial cutoff
   ENAUG  =  645.0 eV  augmentation charge cutoff
   NELM   =    200;   NELMIN=  2; NELMDL= -5     # of ELM steps 
   EDIFF  = 0.1E-03   stopping-criterion for ELM
   LREAL  =      T    real-space projection
   NLSPLINE    = F    spline interpolate recip. space projectors
   LCOMPAT=      F    compatible to vasp.4.4
   GGA_COMPAT  = T    GGA compatible to vasp.4.4-vasp.4.6
   LMAXPAW     = -100 max onsite density
   LMAXMIX     =    2 max onsite mixed and CHGCAR
   VOSKOWN=      0    Vosko Wilk Nusair interpolation
   ROPT   =   -0.00025  -0.00025  -0.00025  -0.00025
   ROPT   =   -0.00025
 Ionic relaxation
   EDIFFG = -.2E-01   stopping-criterion for IOM
   NSW    =  10000    number of steps for IOM
   NBLOCK =      1;   KBLOCK =  10000    inner block; outer block 
   IBRION =      2    ionic relax: 0-MD 1-quasi-New 2-CG
   NFREE  =      1    steps in history (QN), initial steepest desc. (CG)
   ISIF   =      2    stress and relaxation
   IWAVPR =     11    prediction:  0-non 1-charg 2-wave 3-comb
   ISYM   =      2    0-nonsym 1-usesym 2-fastsym
   LCORR  =      T    Harris-Foulkes like correction to forces

   POTIM  = 0.5000    time-step for ionic-motion
   TEIN   =    0.0    initial temperature
   TEBEG  =    0.0;   TEEND  =   0.0 temperature during run
   SMASS  =  -3.00    Nose mass-parameter (am)
   estimated Nose-frequenzy (Omega)   =  0.10E-29 period in steps =****** mass=  -0.578E-26a.u.
   SCALEE = 1.0000    scale energy and forces
   NPACO  =    256;   APACO  = 16.0  distance and # of slots for P.C.
   PSTRESS=    0.0 pullay stress

  Mass of Ions in am
   POMASS =  12.01 52.00  1.00 95.94 32.07
  Ionic Valenz
   ZVAL   =   4.00  6.00  1.00  6.00  6.00
  Atomic Wigner-Seitz radii
   RWIGS  =  -1.00 -1.00 -1.00 -1.00 -1.00
  virtual crystal weights 
   VCA    =   1.00  1.00  1.00  1.00  1.00
   NELECT =     956.0000    total number of electrons
   NUPDOWN=      -1.0000    fix difference up-down

 DOS related values:
   EMIN   =  10.00;   EMAX   =-10.00  energy-range for DOS
   EFERMI =   0.00
   ISMEAR =     0;   SIGMA  =   0.10  broadening in eV -4-tet -1-fermi 0-gaus

 Electronic relaxation 2 (details)
   IALGO  =     38    algorithm
   LDIAG  =      T    sub-space diagonalisation (order eigenvalues)
   LSUBROT=      F    optimize rotation matrix (better conditioning)
   TURBO    =      0    0=normal 1=particle mesh
   IRESTART =      0    0=no restart 2=restart with 2 vectors
   NREBOOT  =      0    no. of reboots
   NMIN     =      0    reboot dimension
   EREF     =   0.00    reference energy to select bands
   IMIX   =      4    mixing-type and parameters
     AMIX     =   0.40;   BMIX     =  1.00
     AMIX_MAG =   1.60;   BMIX_MAG =  1.00
     AMIN     =   0.10
     WC   =   100.;   INIMIX=   1;  MIXPRE=   1;  MAXMIX= -45

 Intra band minimization:
   WEIMIN = 0.0010     energy-eigenvalue tresh-hold
   EBREAK =  0.43E-07  absolut break condition
   DEPER  =   0.30     relativ break condition  

   TIME   =   0.40     timestep for ELM

  volume/ion in A,a.u.               =      41.46       279.77
  Fermi-wavevector in a.u.,A,eV,Ry     =   0.839512  1.586448  9.589119  0.704780
  Thomas-Fermi vector in A             =   1.953743
 
 Write flags
   LWAVE        =      F    write WAVECAR
   LDOWNSAMPLE  =      F    k-point downsampling of WAVECAR
   LCHARG       =      F    write CHGCAR
   LVTOT        =      F    write LOCPOT, total local potential
   LVHAR        =      F    write LOCPOT, Hartree potential only
   LELF         =      F    write electronic localiz. function (ELF)
   LORBIT       =      0    0 simple, 1 ext, 2 COOP (PROOUT), +10 PAW based schemes


 Dipole corrections
   LMONO  =      F    monopole corrections only (constant potential shift)
   LDIPOL =      F    correct potential (dipole corrections)
   IDIPOL =      0    1-x, 2-y, 3-z, 4-all directions 
   EPSILON=  1.0000000 bulk dielectric constant

 Exchange correlation treatment:
   GGA     =    --    GGA type
   LEXCH   =     8    internal setting for exchange type
   VOSKOWN=      0    Vosko Wilk Nusair interpolation
   LHFCALC =     F    Hartree Fock is set to
   LHFONE  =     F    Hartree Fock one center treatment
   AEXX    =    0.0000 exact exchange contribution

 Linear response parameters
   LEPSILON=     F    determine dielectric tensor
   LRPA    =     F    only Hartree local field effects (RPA)
   LNABLA  =     F    use nabla operator in PAW spheres
   LVEL    =     F    velocity operator in full k-point grid
   LINTERFAST=   F  fast interpolation
   KINTER  =     0    interpolate to denser k-point grid
   CSHIFT  =0.1000    complex shift for real part using Kramers Kronig
   OMEGAMAX=  -1.0    maximum frequency
   DEG_THRESHOLD= 0.2000000E-02 threshold for treating states as degnerate
   RTIME   =   -0.100 relaxation time in fs
  (WPLASMAI=    0.000 imaginary part of plasma frequency in eV, 0.658/RTIME)
   DFIELD  = 0.0000000 0.0000000 0.0000000 field for delta impulse in time
 
 Orbital magnetization related:
   ORBITALMAG=     F  switch on orbital magnetization
   LCHIMAG   =     F  perturbation theory with respect to B field
   DQ        =  0.001000  dq finite difference perturbation B field
   LLRAUG    =     F  two centre corrections for induced B field



--------------------------------------------------------------------------------------------------------


 conjugate gradient relaxation of ions
   using selective dynamics as specified on POSCAR
   WARNING: If single coordinates had been selected the selection of coordinates
            is made according to the corresponding   d i r e c t   coordinates!
            Don't support selection of single cartesian coordinates -- sorry ...
  !
 charge density and potential will be updated during run
 non-spin polarized calculation
 Variant of blocked Davidson
 Davidson routine will perform the subspace rotation
 perform sub-space diagonalisation
    after iterative eigenvector-optimisation
 modified Broyden-mixing scheme, WC =      100.0
 initial mixing is a Kerker type mixing with AMIX =  0.4000 and BMIX =      1.0000
 Hartree-type preconditioning will be used
 using additional bands          107
 real space projection scheme for non local part
 use partial core corrections
 calculate Harris-corrections to forces 
   (improved forces if not selfconsistent)
 use gradient corrections 
 use of overlap-Matrix (Vanderbilt PP)
 Gauss-broadening in eV      SIGMA  =   0.10


--------------------------------------------------------------------------------------------------------


  energy-cutoff  :      400.00
  volume of cell :     7089.27
      direct lattice vectors                 reciprocal lattice vectors
    15.900000000  0.000000000  0.000000000     0.062893082  0.036311338  0.000000000
    -7.950000000 13.769803920  0.000000000     0.000000000  0.072622675  0.000000000
     0.000000000  0.000000000 32.380000000     0.000000000  0.000000000  0.030883261

  length of vectors
    15.900000000 15.900000000 32.380000000     0.072622675  0.072622675  0.030883261


 
 k-points in units of 2pi/SCALE and weight: Gamma-point only                        
   0.00000000  0.00000000  0.00000000       1.000
 
 k-points in reciprocal lattice and weights: Gamma-point only                        
   0.00000000  0.00000000  0.00000000       1.000
 
 position of ions in fractional coordinates (direct lattice) 
   0.45125804  0.42960378  0.50658859
   0.49354424  0.52449021  0.48941099
   0.50530841  0.38545764  0.49271820
   0.58271125  0.45398087  0.46660076
   0.57491983  0.54059489  0.46457359
   0.33241934  0.41058899  0.40497647
   0.45776495  0.39930938  0.37336863
   0.42153176  0.46428162  0.38184597
   0.39186235  0.30705447  0.39083205
   0.31506644  0.31353856  0.41034032
   0.45098820  0.42106497  0.43863525
   0.62297940  0.60675895  0.44778358
   0.45391487  0.53927417  0.37165048
   0.28560244  0.43783289  0.41560230
   0.52454712  0.41759907  0.35705550
   0.40152657  0.24395114  0.39117611
   0.46651299  0.57476779  0.49327034
   0.38586588  0.39492263  0.52543042
   0.49000776  0.31253120  0.50037112
   0.63856549  0.44349699  0.45219031
   0.25510547  0.25547923  0.42734137
   0.60000000  0.60000000  0.65735022
   0.20000000  0.80000000  0.21911674
   0.20000000  0.60000000  0.65735022
   0.60000000  0.80000000  0.21911674
   0.20000000  0.60000000  0.21911674
   0.60000000  0.80000000  0.65735022
   0.20000000  0.40000000  0.21911674
   0.80000000  0.00000000  0.21911674
   0.20000000  0.20000000  0.65735022
   0.80000000  0.00000000  0.65735022
   0.20000000  0.20000000  0.21911674
   0.20000000  0.80000000  0.65735022
   0.20000000  0.40000000  0.65735022
   0.60000000  0.60000000  0.21911674
   0.40000000  0.60000000  0.21911674
   0.40000000  0.00000000  0.65735022
   0.60000000  0.40000000  0.65735022
   0.40000000  0.20000000  0.21911674
   0.60000000  0.40000000  0.21911674
   0.40000000  0.20000000  0.65735022
   0.40000000  0.40000000  0.21911674
   0.60000000  0.20000000  0.65735022
   0.40000000  0.40000000  0.65735022
   0.60000000  0.20000000  0.21911674
   0.40000000  0.80000000  0.65735022
   0.40000000  0.60000000  0.65735022
   0.60000000  0.00000000  0.65735022
   0.40000000  0.80000000  0.21911674
   0.60000000  0.00000000  0.21911674
   0.40000000  0.00000000  0.21911674
   0.80000000  0.20000000  0.21911674
   0.20000000  0.00000000  0.65735022
   0.20000000  0.00000000  0.21911674
   0.00000000  0.00000000  0.21911674
   0.80000000  0.80000000  0.65735022
   0.00000000  0.00000000  0.65735022
   0.80000000  0.80000000  0.21911674
   0.00000000  0.20000000  0.21911674
   0.00000000  0.20000000  0.65735022
   0.80000000  0.60000000  0.65735022
   0.00000000  0.40000000  0.21911674
   0.00000000  0.40000000  0.65735022
   0.00000000  0.60000000  0.21911674
   0.80000000  0.40000000  0.65735022
   0.00000000  0.60000000  0.65735022
   0.80000000  0.60000000  0.21911674
   0.80000000  0.40000000  0.21911674
   0.00000000  0.80000000  0.65735022
   0.00000000  0.80000000  0.21911674
   0.80000000  0.20000000  0.65735022
   0.93333333  0.06666667  0.16985794
   0.73333333  0.26666667  0.60809141
   0.73333333  0.26666667  0.70660902
   0.93333333  0.66666667  0.70660902
   0.93333333  0.66666667  0.60809141
   0.73333333  0.26666667  0.16985794
   0.73333333  0.26666667  0.26837554
   0.93333333  0.46666667  0.26837554
   0.73333333  0.06666667  0.60809141
   0.73333333  0.06666667  0.70660902
   0.93333333  0.06666667  0.70660902
   0.93333333  0.86666667  0.16985794
   0.73333333  0.06666667  0.16985794
   0.93333333  0.06666667  0.60809141
   0.73333333  0.06666667  0.26837554
   0.93333333  0.26666667  0.16985794
   0.93333333  0.26666667  0.70660902
   0.93333333  0.86666667  0.26837554
   0.73333333  0.46666667  0.26837554
   0.73333333  0.46666667  0.16985794
   0.73333333  0.86666667  0.16985794
   0.73333333  0.86666667  0.70660902
   0.73333333  0.86666667  0.26837554
   0.93333333  0.46666667  0.16985794
   0.73333333  0.86666667  0.60809141
   0.73333333  0.66666667  0.60809141
   0.73333333  0.66666667  0.70660902
   0.93333333  0.46666667  0.70660902
   0.73333333  0.66666667  0.16985794
   0.93333333  0.46666667  0.60809141
   0.73333333  0.66666667  0.26837554
   0.93333333  0.26666667  0.60809141
   0.93333333  0.26666667  0.26837554
   0.73333333  0.46666667  0.60809141
   0.73333333  0.46666667  0.70660902
   0.93333333  0.66666667  0.26837554
   0.93333333  0.06666667  0.26837554
   0.93333333  0.66666667  0.16985794
   0.53333333  0.86666667  0.60809141
   0.53333333  0.06666667  0.70660902
   0.53333333  0.86666667  0.16985794
   0.33333333  0.26666667  0.16985794
   0.33333333  0.26666667  0.26837554
   0.33333333  0.06666667  0.60809141
   0.33333333  0.06666667  0.70660902
   0.33333333  0.06666667  0.16985794
   0.33333333  0.06666667  0.26837554
   0.13333333  0.86666667  0.60809141
   0.13333333  0.86666667  0.70660902
   0.13333333  0.86666667  0.16985794
   0.13333333  0.86666667  0.26837554
   0.13333333  0.66666667  0.60809141
   0.13333333  0.66666667  0.70660902
   0.33333333  0.26666667  0.70660902
   0.13333333  0.66666667  0.16985794
   0.13333333  0.46666667  0.60809141
   0.13333333  0.46666667  0.70660902
   0.13333333  0.46666667  0.16985794
   0.13333333  0.46666667  0.26837554
   0.13333333  0.26666667  0.60809141
   0.13333333  0.26666667  0.70660902
   0.13333333  0.26666667  0.16985794
   0.13333333  0.26666667  0.26837554
   0.13333333  0.06666667  0.60809141
   0.13333333  0.06666667  0.70660902
   0.13333333  0.06666667  0.16985794
   0.13333333  0.06666667  0.26837554
   0.13333333  0.66666667  0.26837554
   0.33333333  0.26666667  0.60809141
   0.33333333  0.46666667  0.26837554
   0.33333333  0.46666667  0.16985794
   0.53333333  0.86666667  0.26837554
   0.53333333  0.66666667  0.60809141
   0.53333333  0.66666667  0.70660902
   0.53333333  0.66666667  0.16985794
   0.53333333  0.66666667  0.26837554
   0.53333333  0.46666667  0.60809141
   0.53333333  0.46666667  0.70660902
   0.53333333  0.46666667  0.16985794
   0.53333333  0.46666667  0.26837554
   0.53333333  0.26666667  0.60809141
   0.53333333  0.26666667  0.70660902
   0.53333333  0.26666667  0.16985794
   0.53333333  0.26666667  0.26837554
   0.53333333  0.06666667  0.60809141
   0.93333333  0.86666667  0.70660902
   0.53333333  0.06666667  0.16985794
   0.53333333  0.06666667  0.26837554
   0.33333333  0.86666667  0.60809141
   0.33333333  0.86666667  0.70660902
   0.33333333  0.86666667  0.16985794
   0.33333333  0.86666667  0.26837554
   0.33333333  0.66666667  0.60809141
   0.33333333  0.66666667  0.70660902
   0.33333333  0.66666667  0.16985794
   0.33333333  0.66666667  0.26837554
   0.33333333  0.46666667  0.60809141
   0.33333333  0.46666667  0.70660902
   0.53333333  0.86666667  0.70660902
   0.93333333  0.86666667  0.60809141
 
 position of ions in cartesian coordinates  (Angst):
   3.75965278  5.91555988 16.40333860
   3.67765619  7.22212739 15.84712793
   4.97001557  5.30767605 15.95421532
   5.65596090  6.25122760 15.10853246
   4.84349595  7.44388561 15.04289294
   2.02128502  5.65372983 13.11313806
   4.10395321  5.49841183 12.08967608
   3.01131615  6.39306693 12.36417240
   3.78952834  4.22807980 12.65514166
   2.51692490  4.31736444 13.28681953
   3.82324586  5.79798201 14.20300948
   5.08163878  8.35495182 14.49923224
   2.93001685  7.42569953 12.03404238
   1.06030727  6.02887302 13.45720250
   5.02038668  5.75025726 11.56145701
   4.44486097  3.35915938 12.66628248
   2.84815261  7.91443974 15.97209366
   2.99563260  5.43800713 17.01343714
   5.30650031  4.30349340 16.20201698
   6.62739023  6.10686653 14.64192210
   2.02511716  3.51789885 13.83731353
   4.77000000  8.26188235 21.28500000
  -3.18000000 11.01584314  7.09500000
  -1.59000000  8.26188235 21.28500000
   3.18000000 11.01584314  7.09500000
  -1.59000000  8.26188235  7.09500000
   3.18000000 11.01584314 21.28500000
   0.00000000  5.50792157  7.09500000
  12.72000000  0.00000000  7.09500000
   1.59000000  2.75396078 21.28500000
  12.72000000  0.00000000 21.28500000
   1.59000000  2.75396078  7.09500000
  -3.18000000 11.01584314 21.28500000
   0.00000000  5.50792157 21.28500000
   4.77000000  8.26188235  7.09500000
   1.59000000  8.26188235  7.09500000
   6.36000000  0.00000000 21.28500000
   6.36000000  5.50792157 21.28500000
   4.77000000  2.75396078  7.09500000
   6.36000000  5.50792157  7.09500000
   4.77000000  2.75396078 21.28500000
   3.18000000  5.50792157  7.09500000
   7.95000000  2.75396078 21.28500000
   3.18000000  5.50792157 21.28500000
   7.95000000  2.75396078  7.09500000
  -0.00000000 11.01584314 21.28500000
   1.59000000  8.26188235 21.28500000
   9.54000000  0.00000000 21.28500000
  -0.00000000 11.01584314  7.09500000
   9.54000000  0.00000000  7.09500000
   6.36000000  0.00000000  7.09500000
  11.13000000  2.75396078  7.09500000
   3.18000000  0.00000000 21.28500000
   3.18000000  0.00000000  7.09500000
   0.00000000  0.00000000  7.09500000
   6.36000000 11.01584314 21.28500000
   0.00000000  0.00000000 21.28500000
   6.36000000 11.01584314  7.09500000
  -1.59000000  2.75396078  7.09500000
  -1.59000000  2.75396078 21.28500000
   7.95000000  8.26188235 21.28500000
  -3.18000000  5.50792157  7.09500000
  -3.18000000  5.50792157 21.28500000
  -4.77000000  8.26188235  7.09500000
   9.54000000  5.50792157 21.28500000
  -4.77000000  8.26188235 21.28500000
   7.95000000  8.26188235  7.09500000
   9.54000000  5.50792157  7.09500000
  -6.36000000 11.01584314 21.28500000
  -6.36000000 11.01584314  7.09500000
  11.13000000  2.75396078 21.28500000
  14.31000000  0.91798693  5.50000000
   9.54000000  3.67194771 19.69000000
   9.54000000  3.67194771 22.88000000
   9.54000000  9.17986928 22.88000000
   9.54000000  9.17986928 19.69000000
   9.54000000  3.67194771  5.50000000
   9.54000000  3.67194771  8.69000000
  11.13000000  6.42590850  8.69000000
  11.13000000  0.91798693 19.69000000
  11.13000000  0.91798693 22.88000000
  14.31000000  0.91798693 22.88000000
   7.95000000 11.93383006  5.50000000
  11.13000000  0.91798693  5.50000000
  14.31000000  0.91798693 19.69000000
  11.13000000  0.91798693  8.69000000
  12.72000000  3.67194771  5.50000000
  12.72000000  3.67194771 22.88000000
   7.95000000 11.93383006  8.69000000
   7.95000000  6.42590850  8.69000000
   7.95000000  6.42590850  5.50000000
   4.77000000 11.93383006  5.50000000
   4.77000000 11.93383006 22.88000000
   4.77000000 11.93383006  8.69000000
  11.13000000  6.42590850  5.50000000
   4.77000000 11.93383006 19.69000000
   6.36000000  9.17986928 19.69000000
   6.36000000  9.17986928 22.88000000
  11.13000000  6.42590850 22.88000000
   6.36000000  9.17986928  5.50000000
  11.13000000  6.42590850 19.69000000
   6.36000000  9.17986928  8.69000000
  12.72000000  3.67194771 19.69000000
  12.72000000  3.67194771  8.69000000
   7.95000000  6.42590850 19.69000000
   7.95000000  6.42590850 22.88000000
   9.54000000  9.17986928  8.69000000
  14.31000000  0.91798693  8.69000000
   9.54000000  9.17986928  5.50000000
   1.59000000 11.93383006 19.69000000
   7.95000000  0.91798693 22.88000000
   1.59000000 11.93383006  5.50000000
   3.18000000  3.67194771  5.50000000
   3.18000000  3.67194771  8.69000000
   4.77000000  0.91798693 19.69000000
   4.77000000  0.91798693 22.88000000
   4.77000000  0.91798693  5.50000000
   4.77000000  0.91798693  8.69000000
  -4.77000000 11.93383006 19.69000000
  -4.77000000 11.93383006 22.88000000
  -4.77000000 11.93383006  5.50000000
  -4.77000000 11.93383006  8.69000000
  -3.18000000  9.17986928 19.69000000
  -3.18000000  9.17986928 22.88000000
   3.18000000  3.67194771 22.88000000
  -3.18000000  9.17986928  5.50000000
  -1.59000000  6.42590850 19.69000000
  -1.59000000  6.42590850 22.88000000
  -1.59000000  6.42590850  5.50000000
  -1.59000000  6.42590850  8.69000000
  -0.00000000  3.67194771 19.69000000
  -0.00000000  3.67194771 22.88000000
  -0.00000000  3.67194771  5.50000000
  -0.00000000  3.67194771  8.69000000
   1.59000000  0.91798693 19.69000000
   1.59000000  0.91798693 22.88000000
   1.59000000  0.91798693  5.50000000
   1.59000000  0.91798693  8.69000000
  -3.18000000  9.17986928  8.69000000
   3.18000000  3.67194771 19.69000000
   1.59000000  6.42590850  8.69000000
   1.59000000  6.42590850  5.50000000
   1.59000000 11.93383006  8.69000000
   3.18000000  9.17986928 19.69000000
   3.18000000  9.17986928 22.88000000
   3.18000000  9.17986928  5.50000000
   3.18000000  9.17986928  8.69000000
   4.77000000  6.42590850 19.69000000
   4.77000000  6.42590850 22.88000000
   4.77000000  6.42590850  5.50000000
   4.77000000  6.42590850  8.69000000
   6.36000000  3.67194771 19.69000000
   6.36000000  3.67194771 22.88000000
   6.36000000  3.67194771  5.50000000
   6.36000000  3.67194771  8.69000000
   7.95000000  0.91798693 19.69000000
   7.95000000 11.93383006 22.88000000
   7.95000000  0.91798693  5.50000000
   7.95000000  0.91798693  8.69000000
  -1.59000000 11.93383006 19.69000000
  -1.59000000 11.93383006 22.88000000
  -1.59000000 11.93383006  5.50000000
  -1.59000000 11.93383006  8.69000000
   0.00000000  9.17986928 19.69000000
   0.00000000  9.17986928 22.88000000
   0.00000000  9.17986928  5.50000000
   0.00000000  9.17986928  8.69000000
   1.59000000  6.42590850 19.69000000
   1.59000000  6.42590850 22.88000000
   1.59000000 11.93383006 22.88000000
   7.95000000 11.93383006 19.69000000
 


--------------------------------------------------------------------------------------------------------


 use parallel FFT for orbitals z direction half grid
 k-point  1 :   0.0000 0.0000 0.0000  plane waves:   64319

 maximum and minimum number of plane-waves per node :     16081    16079

 maximum number of plane-waves:     64319
 maximum index in each direction: 
   IXMAX=   25   IYMAX=   25   IZMAX=   52
   IXMIN=  -25   IYMIN=  -25   IZMIN=    0


 real space projection operators:
  total allocation   :      76635.66 KBytes
  max/ min on nodes  :      19166.55      19148.95


 parallel 3D FFT for wavefunctions:
    minimum data exchange during FFTs selected (reduces bandwidth)
 parallel 3D FFT for charge:
    minimum data exchange during FFTs selected (reduces bandwidth)


 total amount of memory used by VASP MPI-rank0   156601. kBytes
=======================================================================

   base      :      30000. kBytes
   nonlr-proj:      23548. kBytes
   fftplans  :      28265. kBytes
   grid      :      62703. kBytes
   one-center:        334. kBytes
   wavefun   :      11751. kBytes
 
     INWAV:  cpu time    0.0000: real time    0.0000
 Broyden mixing: mesh for mixing (old mesh)
   NGX = 51   NGY = 51   NGZ =105
  (NGX  =216   NGY  =216   NGZ  =432)
  gives a total of 273105 points

 initial charge density was supplied:
 charge density of overlapping atoms calculated
 number of electron     956.0000000 magnetization 
 keeping initial charge density in first step


--------------------------------------------------------------------------------------------------------


 Maximum index for non-local projection operator         1630
 Maximum index for augmentation-charges         1579 (set IRDMAX)


--------------------------------------------------------------------------------------------------------


 First call to EWALD:  gamma=   0.092
 Maximum number of real-space cells 4x 4x 2
 Maximum number of reciprocal cells 2x 2x 4

    FEWALD:  cpu time    0.0069: real time    0.0070


--------------------------------------- Iteration      1(   1)  ---------------------------------------


    POTLOK:  cpu time    0.3870: real time    0.7119
    SETDIJ:  cpu time    0.0167: real time    0.0168
     EDDAV:  cpu time   11.2377: real time   11.3867
       DOS:  cpu time    0.0006: real time    0.0006
    --------------------------------------------
      LOOP:  cpu time   11.6420: real time   12.1160

 eigenvalue-minimisations  :  1209
 total energy-change (2. order) : 0.7652112E+04  (-0.3640307E+05)
 number of electron     956.0000000 magnetization 
 augmentation part      956.0000000 magnetization 

 Free energy of the ion-electron system (eV)
  ---------------------------------------------------
  alpha Z        PSCENC =      1150.89500911
  Ewald energy   TEWEN  =     87653.65269597
  -Hartree energ DENC   =   -125626.99329795
  -exchange      EXHF   =         0.00000000
  -V(xc)+E(xc)   XCENC  =     -1684.38354555
  PAW double counting   =     36411.78182824   -32520.45026120
  entropy T*S    EENTRO =        -0.34864501
  eigenvalues    EBANDS =      1837.41852773
  atomic energy  EATOM  =     40430.53995508
  Solvation  Ediel_sol  =         0.00000000
  ---------------------------------------------------
  free energy    TOTEN  =      7652.11226641 eV

  energy without entropy =     7652.46091143  energy(sigma->0) =     7652.28658892


--------------------------------------------------------------------------------------------------------




--------------------------------------- Iteration      1(   2)  ---------------------------------------


     EDDAV:  cpu time   13.5445: real time   13.7619
       DOS:  cpu time    0.0005: real time    0.0005
    --------------------------------------------
      LOOP:  cpu time   13.5450: real time   13.7624

 eigenvalue-minimisations  :  1612
 total energy-change (2. order) :-0.7916025E+04  (-0.7677818E+04)
 number of electron     956.0000000 magnetization 
 augmentation part      956.0000000 magnetization 

 Free energy of the ion-electron system (eV)
  ---------------------------------------------------
  alpha Z        PSCENC =      1150.89500911
  Ewald energy   TEWEN  =     87653.65269597
  -Hartree energ DENC   =   -125626.99329795
  -exchange      EXHF   =         0.00000000
  -V(xc)+E(xc)   XCENC  =     -1684.38354555
  PAW double counting   =     36411.78182824   -32520.45026120
  entropy T*S    EENTRO =        -0.08286501
  eigenvalues    EBANDS =     -6078.87186336
  atomic energy  EATOM  =     40430.53995508
  Solvation  Ediel_sol  =         0.00000000
  ---------------------------------------------------
  free energy    TOTEN  =      -263.91234467 eV

  energy without entropy =     -263.82947966  energy(sigma->0) =     -263.87091217


--------------------------------------------------------------------------------------------------------




--------------------------------------- Iteration      1(   3)  ---------------------------------------


     EDDAV:  cpu time   11.7848: real time   12.2818
       DOS:  cpu time    0.0004: real time    0.0004
    --------------------------------------------
      LOOP:  cpu time   11.7852: real time   12.2822

 eigenvalue-minimisations  :  1365
 total energy-change (2. order) :-0.9992588E+03  (-0.9853602E+03)
 number of electron     956.0000000 magnetization 
 augmentation part      956.0000000 magnetization 

 Free energy of the ion-electron system (eV)
  ---------------------------------------------------
  alpha Z        PSCENC =      1150.89500911
  Ewald energy   TEWEN  =     87653.65269597
  -Hartree energ DENC   =   -125626.99329795
  -exchange      EXHF   =         0.00000000
  -V(xc)+E(xc)   XCENC  =     -1684.38354555
  PAW double counting   =     36411.78182824   -32520.45026120
  entropy T*S    EENTRO =        -0.00000018
  eigenvalues    EBANDS =     -7078.21356782
  atomic energy  EATOM  =     40430.53995508
  Solvation  Ediel_sol  =         0.00000000
  ---------------------------------------------------
  free energy    TOTEN  =     -1263.17118430 eV

  energy without entropy =    -1263.17118412  energy(sigma->0) =    -1263.17118421


--------------------------------------------------------------------------------------------------------




--------------------------------------- Iteration      1(   4)  ---------------------------------------


     EDDAV:  cpu time   14.8004: real time   15.9544
       DOS:  cpu time    0.0003: real time    0.0003
    --------------------------------------------
      LOOP:  cpu time   14.8007: real time   15.9547

 eigenvalue-minimisations  :  1807
 total energy-change (2. order) :-0.5802352E+02  (-0.5769639E+02)
 number of electron     956.0000000 magnetization 
 augmentation part      956.0000000 magnetization 

 Free energy of the ion-electron system (eV)
  ---------------------------------------------------
  alpha Z        PSCENC =      1150.89500911
  Ewald energy   TEWEN  =     87653.65269597
  -Hartree energ DENC   =   -125626.99329795
  -exchange      EXHF   =         0.00000000
  -V(xc)+E(xc)   XCENC  =     -1684.38354555
  PAW double counting   =     36411.78182824   -32520.45026120
  entropy T*S    EENTRO =        -0.00000000
  eigenvalues    EBANDS =     -7136.23708861
  atomic energy  EATOM  =     40430.53995508
  Solvation  Ediel_sol  =         0.00000000
  ---------------------------------------------------
  free energy    TOTEN  =     -1321.19470491 eV

  energy without entropy =    -1321.19470491  energy(sigma->0) =    -1321.19470491


--------------------------------------------------------------------------------------------------------




--------------------------------------- Iteration      1(   5)  ---------------------------------------


     EDDAV:  cpu time   14.5280: real time   15.2551
       DOS:  cpu time    0.0004: real time    0.0004
    CHARGE:  cpu time    1.0359: real time    1.0438
    MIXING:  cpu time    0.0105: real time    0.0191
    --------------------------------------------
      LOOP:  cpu time   15.5748: real time   16.3184

 eigenvalue-minimisations  :  1768
 total energy-change (2. order) :-0.1895788E+01  (-0.1885267E+01)
 number of electron     955.9999996 magnetization 
 augmentation part      -44.9037033 magnetization 

 Broyden mixing:
  rms(total) = 0.16949E+02    rms(broyden)= 0.16949E+02
  rms(prec ) = 0.17052E+02
  weight for this iteration     100.00

 Free energy of the ion-electron system (eV)
  ---------------------------------------------------
  alpha Z        PSCENC =      1150.89500911
  Ewald energy   TEWEN  =     87653.65269597
  -Hartree energ DENC   =   -125626.99329795
  -exchange      EXHF   =         0.00000000
  -V(xc)+E(xc)   XCENC  =     -1684.38354555
  PAW double counting   =     36411.78182824   -32520.45026120
  entropy T*S    EENTRO =        -0.00000000
  eigenvalues    EBANDS =     -7138.13287709
  atomic energy  EATOM  =     40430.53995508
  Solvation  Ediel_sol  =         0.00000000
  ---------------------------------------------------
  free energy    TOTEN  =     -1323.09049339 eV

  energy without entropy =    -1323.09049339  energy(sigma->0) =    -1323.09049339


--------------------------------------------------------------------------------------------------------




--------------------------------------- Iteration      1(   6)  ---------------------------------------


    POTLOK:  cpu time    0.3874: real time    0.4676
    SETDIJ:  cpu time    0.0206: real time    0.0208
     EDDAV:  cpu time   13.5355: real time   13.6457
       DOS:  cpu time    0.0006: real time    0.0006
    CHARGE:  cpu time    1.0319: real time    1.0400
    MIXING:  cpu time    0.0101: real time    0.0320
    --------------------------------------------
      LOOP:  cpu time   14.9861: real time   15.2067

 eigenvalue-minimisations  :  1612
 total energy-change (2. order) : 0.4699509E+02  (-0.9400360E+02)
 number of electron     955.9999990 magnetization 
 augmentation part      -10.3722187 magnetization 

 Broyden mixing:
  rms(total) = 0.92848E+01    rms(broyden)= 0.92845E+01
  rms(prec ) = 0.94617E+01
  weight for this iteration     100.00

 eigenvalues of (default mixing * dielectric matrix)
  average eigenvalue GAMMA=   0.9510
  0.9510

 Free energy of the ion-electron system (eV)
  ---------------------------------------------------
  alpha Z        PSCENC =      1150.89500911
  Ewald energy   TEWEN  =     87653.65269597
  -Hartree energ DENC   =   -125641.21528124
  -exchange      EXHF   =         0.00000000
  -V(xc)+E(xc)   XCENC  =     -1634.98266528
  PAW double counting   =     51800.09021782   -47948.58141841
  entropy T*S    EENTRO =        -0.15362197
  eigenvalues    EBANDS =     -7086.34029517
  atomic energy  EATOM  =     40430.53995508
  Solvation  Ediel_sol  =         0.00000000
  ---------------------------------------------------
  free energy    TOTEN  =     -1276.09540410 eV

  energy without entropy =    -1275.94178213  energy(sigma->0) =    -1276.01859311


--------------------------------------------------------------------------------------------------------




--------------------------------------- Iteration      1(   7)  ---------------------------------------


    POTLOK:  cpu time    0.3929: real time    0.7094
    SETDIJ:  cpu time    0.0207: real time    0.0208
     EDDAV:  cpu time   14.9513: real time   15.0732
       DOS:  cpu time    0.0007: real time    0.0008
    CHARGE:  cpu time    1.1443: real time    1.1532
    MIXING:  cpu time    0.0101: real time    0.0102
    --------------------------------------------
      LOOP:  cpu time   16.5201: real time   16.9675

 eigenvalue-minimisations  :  1820
 total energy-change (2. order) :-0.1996190E+02  (-0.1177394E+03)
 number of electron     955.9999995 magnetization 
 augmentation part      -30.0838592 magnetization 

 Broyden mixing:
  rms(total) = 0.55253E+01    rms(broyden)= 0.55251E+01
  rms(prec ) = 0.57078E+01
  weight for this iteration     100.00

 eigenvalues of (default mixing * dielectric matrix)
  average eigenvalue GAMMA=   1.1152
  1.6952  0.5353

 Free energy of the ion-electron system (eV)
  ---------------------------------------------------
  alpha Z        PSCENC =      1150.89500911
  Ewald energy   TEWEN  =     87653.65269597
  -Hartree energ DENC   =   -126035.63383468
  -exchange      EXHF   =         0.00000000
  -V(xc)+E(xc)   XCENC  =     -1644.49311616
  PAW double counting   =     64538.98762386   -60719.60907883
  entropy T*S    EENTRO =        -0.43000637
  eigenvalues    EBANDS =     -6669.96654764
  atomic energy  EATOM  =     40430.53995508
  Solvation  Ediel_sol  =         0.00000000
  ---------------------------------------------------
  free energy    TOTEN  =     -1296.05729965 eV

  energy without entropy =    -1295.62729328  energy(sigma->0) =    -1295.84229647


--------------------------------------------------------------------------------------------------------




--------------------------------------- Iteration      1(   8)  ---------------------------------------


    POTLOK:  cpu time    0.6023: real time    1.2774
    SETDIJ:  cpu time    0.0212: real time    0.0213
     EDDAV:  cpu time   12.3907: real time   12.5045
       DOS:  cpu time    0.0006: real time    0.0006
    CHARGE:  cpu time    1.1273: real time    1.1367
    MIXING:  cpu time    0.0103: real time    0.0104
    --------------------------------------------
      LOOP:  cpu time   14.1525: real time   14.9509

 eigenvalue-minimisations  :  1456
 total energy-change (2. order) : 0.6397790E+02  (-0.6123986E+01)
 number of electron     955.9999995 magnetization 
 augmentation part      -30.0675125 magnetization 

 Broyden mixing:
  rms(total) = 0.31044E+01    rms(broyden)= 0.31043E+01
  rms(prec ) = 0.32324E+01
  weight for this iteration     100.00

 eigenvalues of (default mixing * dielectric matrix)
  average eigenvalue GAMMA=   1.1473
  2.0873  0.6773  0.6773

 Free energy of the ion-electron system (eV)
  ---------------------------------------------------
  alpha Z        PSCENC =      1150.89500911
  Ewald energy   TEWEN  =     87653.65269597
  -Hartree energ DENC   =   -126075.53311831
  -exchange      EXHF   =         0.00000000
  -V(xc)+E(xc)   XCENC  =     -1633.90243831
  PAW double counting   =     76833.55593869   -73023.29615988
  entropy T*S    EENTRO =        -0.21709534
  eigenvalues    EBANDS =     -6567.77419055
  atomic energy  EATOM  =     40430.53995508
  Solvation  Ediel_sol  =         0.00000000
  ---------------------------------------------------
  free energy    TOTEN  =     -1232.07940353 eV

  energy without entropy =    -1231.86230819  energy(sigma->0) =    -1231.97085586


--------------------------------------------------------------------------------------------------------




--------------------------------------- Iteration      1(   9)  ---------------------------------------


    POTLOK:  cpu time    0.7186: real time    3.1084
    SETDIJ:  cpu time    0.0212: real time    0.0212
     EDDAV:  cpu time   14.9003: real time   15.0350
       DOS:  cpu time    0.0007: real time    0.0007
    CHARGE:  cpu time    1.0274: real time    1.0363
    MIXING:  cpu time    0.0100: real time    0.0106
    --------------------------------------------
      LOOP:  cpu time   16.6782: real time   19.2123

 eigenvalue-minimisations  :  1833
 total energy-change (2. order) :-0.8479520E+01  (-0.1982507E+02)
 number of electron     955.9999991 magnetization 
 augmentation part      -21.0249079 magnetization 

 Broyden mixing:
  rms(total) = 0.33674E+01    rms(broyden)= 0.33671E+01
  rms(prec ) = 0.36369E+01
  weight for this iteration     100.00

 eigenvalues of (default mixing * dielectric matrix)
  average eigenvalue GAMMA=   0.9568
  2.1680  0.6522  0.5035  0.5035

 Free energy of the ion-electron system (eV)
  ---------------------------------------------------
  alpha Z        PSCENC =      1150.89500911
  Ewald energy   TEWEN  =     87653.65269597
  -Hartree energ DENC   =   -126124.70636582
  -exchange      EXHF   =         0.00000000
  -V(xc)+E(xc)   XCENC  =     -1623.73842585
  PAW double counting   =     81974.09478974   -78165.70055598
  entropy T*S    EENTRO =        -0.21190743
  eigenvalues    EBANDS =     -6535.38411811
  atomic energy  EATOM  =     40430.53995508
  Solvation  Ediel_sol  =         0.00000000
  ---------------------------------------------------
  free energy    TOTEN  =     -1240.55892329 eV

[...]
   0.442E+02 -.178E+02 -.201E+03   -.442E+02 0.178E+02 0.206E+03   0.132E-01 -.203E-02 -.517E+01   -.349E-02 0.875E-03 -.167E-01
   0.801E+01 -.329E+01 0.711E+03   -.801E+01 0.329E+01 -.716E+03   0.254E-02 -.397E-03 0.510E+01   -.634E-03 0.259E-03 -.376E-02
   0.431E+01 -.178E+02 -.285E+03   -.431E+01 0.178E+02 0.290E+03   -.780E-03 0.116E-02 -.507E+01   -.376E-03 0.173E-02 -.104E-01
   0.141E+02 -.497E+02 0.231E+03   -.141E+02 0.497E+02 -.236E+03   -.402E-03 -.951E-02 0.508E+01   -.794E-03 0.355E-02 0.143E-01
   0.291E+01 -.102E+02 -.706E+03   -.290E+01 0.102E+02 0.710E+03   -.467E-02 -.385E-02 -.510E+01   -.270E-03 0.756E-03 0.299E-02
   0.129E+01 -.105E+02 0.704E+03   -.129E+01 0.105E+02 -.709E+03   0.186E-02 -.323E-02 0.510E+01   0.413E-05 0.918E-03 -.321E-02
   0.563E+01 -.489E+02 -.240E+03   -.563E+01 0.489E+02 0.245E+03   -.209E-02 -.708E-02 -.501E+01   -.432E-03 0.404E-02 -.146E-01
   -.214E+02 -.124E+02 0.167E+03   0.215E+02 0.124E+02 -.172E+03   -.259E-01 -.169E-01 0.531E+01   0.120E-02 0.967E-03 0.181E-01
   -.326E+01 -.187E+01 -.716E+03   0.327E+01 0.187E+01 0.720E+03   -.584E-02 -.413E-02 -.509E+01   0.150E-03 0.986E-04 0.375E-02
   -.510E+01 -.358E+01 0.714E+03   0.510E+01 0.358E+01 -.718E+03   0.177E-02 -.986E-03 0.509E+01   0.547E-03 0.313E-03 -.391E-02
   -.307E+02 -.226E+02 -.181E+03   0.307E+02 0.226E+02 0.186E+03   -.853E-02 -.124E-01 -.516E+01   0.216E-02 0.122E-02 -.185E-01
   -.358E+02 0.373E+02 0.231E+03   0.358E+02 -.373E+02 -.236E+03   -.866E-02 0.761E-02 0.505E+01   0.271E-02 -.247E-02 0.149E-01
   -.739E+01 0.761E+01 -.706E+03   0.740E+01 -.761E+01 0.710E+03   -.629E-02 -.212E-02 -.510E+01   0.512E-03 -.589E-03 0.307E-02
   -.869E+01 0.610E+01 0.705E+03   0.869E+01 -.610E+01 -.710E+03   -.212E-02 0.409E-02 0.510E+01   0.790E-03 -.463E-03 -.322E-02
   -.420E+02 0.292E+02 -.235E+03   0.421E+02 -.292E+02 0.239E+03   -.915E-02 0.135E-01 -.503E+01   0.308E-02 -.245E-02 -.145E-01
   -.131E+02 0.156E+02 0.284E+03   0.131E+02 -.156E+02 -.288E+03   -.777E-03 -.223E-02 0.507E+01   0.125E-02 -.132E-02 0.106E-01
   -.204E+01 -.252E+01 -.692E+03   0.204E+01 0.251E+01 0.696E+03   0.107E-02 0.671E-03 -.510E+01   0.157E-03 0.225E-03 0.198E-02
   -.435E+01 0.398E+01 0.693E+03   0.435E+01 -.398E+01 -.697E+03   0.523E-03 0.675E-03 0.510E+01   0.379E-03 -.302E-03 -.219E-02
   -.152E+02 0.144E+02 -.284E+03   0.152E+02 -.144E+02 0.289E+03   0.759E-03 -.574E-03 -.507E+01   0.127E-02 -.122E-02 -.104E-01
   0.409E+01 0.248E+01 0.291E+03   -.409E+01 -.248E+01 -.295E+03   -.706E-03 0.630E-03 0.507E+01   -.312E-03 -.269E-03 0.100E-01
   0.137E+01 0.808E+00 -.690E+03   -.137E+01 -.809E+00 0.695E+03   0.373E-03 0.995E-03 -.510E+01   -.735E-04 -.649E-04 0.189E-02
   0.831E+00 0.991E+00 0.691E+03   -.831E+00 -.991E+00 -.695E+03   -.282E-03 0.151E-03 0.510E+01   -.101E-03 -.529E-04 -.203E-02
   0.252E+01 0.317E+01 -.290E+03   -.252E+01 -.317E+01 0.295E+03   -.946E-03 -.270E-03 -.507E+01   -.380E-03 -.199E-03 -.982E-02
   0.288E+02 -.219E+02 0.271E+03   -.288E+02 0.219E+02 -.275E+03   -.251E-02 0.309E-02 0.505E+01   -.221E-02 0.179E-02 0.118E-01
   0.741E+01 -.560E+01 -.697E+03   -.741E+01 0.560E+01 0.701E+03   0.104E-02 0.924E-03 -.510E+01   -.515E-03 0.406E-03 0.239E-02
   0.668E+01 -.641E+01 0.697E+03   -.668E+01 0.641E+01 -.702E+03   -.783E-03 -.102E-02 0.510E+01   -.600E-03 0.596E-03 -.264E-02
   0.264E+02 -.256E+02 -.269E+03   -.264E+02 0.256E+02 0.274E+03   -.344E-03 -.107E-02 -.506E+01   -.244E-02 0.216E-02 -.117E-01
   0.514E+02 -.824E+01 0.211E+03   -.514E+02 0.825E+01 -.216E+03   0.263E-01 -.546E-02 0.500E+01   -.320E-02 0.618E-03 0.161E-01
   0.942E+01 -.156E+01 -.710E+03   -.943E+01 0.156E+01 0.714E+03   0.553E-02 0.297E-03 -.510E+01   -.684E-03 0.997E-04 0.335E-02
   0.190E+01 -.532E+01 -.693E+03   -.189E+01 0.532E+01 0.697E+03   -.117E-02 0.491E-03 -.510E+01   -.126E-03 0.395E-03 0.206E-02
   -.695E+01 -.872E+01 0.287E+03   0.694E+01 0.872E+01 -.291E+03   0.214E-02 0.408E-05 0.508E+01   0.479E-03 0.621E-03 0.100E-01
 -----------------------------------------------------------------------------------------------
   0.970E+00 0.246E+01 -.136E+01   0.415E-12 -.609E-12 -.101E-10   -.970E+00 -.247E+01 0.136E+01   -.153E-03 0.751E-02 -.305E-02
 
 
 POSITION                                       TOTAL-FORCE (eV/Angst)
 -----------------------------------------------------------------------------------
      3.75965      5.91556     16.40334         0.025249      0.014643      0.008083
      3.67766      7.22213     15.84713         0.013757     -0.015057      0.025316
      4.97002      5.30768     15.95422        -0.009933      0.019465      0.014392
      5.65596      6.25123     15.10853        -0.007230      0.006208      0.030497
      4.84350      7.44389     15.04289        -0.004271      0.000635      0.029096
      2.02129      5.65373     13.11314         0.007968     -0.016826     -0.014785
      4.10395      5.49841     12.08968        -0.002149     -0.044762      0.012852
      3.01132      6.39307     12.36417         0.009694     -0.019094     -0.021558
      3.78953      4.22808     12.65514        -0.030463     -0.000564     -0.011984
      2.51692      4.31736     13.28682         0.008407     -0.005561     -0.052361
      3.82325      5.79798     14.20301        -0.007399      0.010082     -0.015162
      5.08164      8.35495     14.49923        -0.007141     -0.002657     -0.001782
      2.93002      7.42570     12.03404         0.007566      0.012791     -0.013041
      1.06031      6.02887     13.45720         0.008255      0.005012     -0.001080
      5.02039      5.75026     11.56146        -0.001193     -0.003416      0.007120
      4.44486      3.35916     12.66628        -0.010563      0.004756     -0.009769
      2.84815      7.91444     15.97209        -0.007126      0.000308      0.015188
      2.99563      5.43801     17.01344        -0.007413     -0.010898      0.018271
      5.30650      4.30349     16.20202         0.004611     -0.002432      0.013133
      6.62739      6.10687     14.64192        -0.004855      0.004099     -0.004563
      2.02512      3.51790     13.83731         0.000256      0.012054     -0.004495
      4.77000      8.26188     21.28500        -0.001057     -0.007052      0.000600
     -3.18000     11.01584      7.09500        -0.001952      0.000326      0.002746
     -1.59000      8.26188     21.28500         0.002066      0.001003     -0.003123
      3.18000     11.01584      7.09500         0.001569      0.006684      0.001018
     -1.59000      8.26188      7.09500        -0.000378     -0.000648      0.002918
      3.18000     11.01584     21.28500        -0.002381      0.002280      0.001108
      0.00000      5.50792      7.09500         0.002534      0.000111      0.001262
     12.72000      0.00000      7.09500        -0.000608     -0.000504      0.002719
      1.59000      2.75396     21.28500        -0.004365      0.000361      0.004161
     12.72000      0.00000     21.28500        -0.001696      0.001551     -0.000173
      1.59000      2.75396      7.09500         0.003569      0.003429      0.000211
     -3.18000     11.01584     21.28500         0.000362      0.000828     -0.002287
      0.00000      5.50792     21.28500        -0.001317     -0.005230      0.003836
      4.77000      8.26188      7.09500         0.004243     -0.008616     -0.008654
      1.59000      8.26188      7.09500        -0.000433     -0.009253      0.002246
      6.36000     -0.00000     21.28500        -0.004453     -0.001332     -0.002954
      6.36000      5.50792     21.28500        -0.011355      0.002533     -0.000615
      4.77000      2.75396      7.09500        -0.010940      0.006493      0.005842
      6.36000      5.50792      7.09500        -0.007613      0.006250     -0.000712
      4.77000      2.75396     21.28500         0.004976      0.002237     -0.004899
      3.18000      5.50792      7.09500         0.003636      0.000721      0.027097
      7.95000      2.75396     21.28500         0.000493     -0.001712      0.001003
      3.18000      5.50792     21.28500         0.014997      0.007219     -0.017303
      7.95000      2.75396      7.09500         0.005828      0.001045     -0.001552
     -0.00000     11.01584     21.28500        -0.000483     -0.000008     -0.002989
      1.59000      8.26188     21.28500         0.005878      0.005032     -0.004760
      9.54000      0.00000     21.28500         0.006144     -0.000403     -0.002379
     -0.00000     11.01584      7.09500         0.000309     -0.000038      0.001878
      9.54000      0.00000      7.09500        -0.000555     -0.000290      0.000453
      6.36000      0.00000      7.09500         0.001840     -0.000992     -0.000327
     11.13000      2.75396      7.09500         0.001573     -0.000468      0.004168
      3.18000      0.00000     21.28500        -0.000077      0.001099     -0.001878
      3.18000      0.00000      7.09500        -0.000827     -0.000945      0.003507
      0.00000      0.00000      7.09500        -0.000025     -0.001158     -0.006488
      6.36000     11.01584     21.28500         0.001140     -0.000860      0.001174
     -0.00000      0.00000     21.28500         0.000076     -0.000663     -0.006580
      6.36000     11.01584      7.09500        -0.001086      0.002245      0.002732
     -1.59000      2.75396      7.09500         0.000177      0.001308      0.000377
     -1.59000      2.75396     21.28500        -0.003818     -0.001511     -0.001162
      7.95000      8.26188     21.28500        -0.002286      0.002115     -0.004397
     -3.18000      5.50792      7.09500        -0.001293      0.001579     -0.000234
     -3.18000      5.50792     21.28500         0.002290     -0.005287     -0.001808
     -4.77000      8.26188      7.09500        -0.000143     -0.000197      0.000629
      9.54000      5.50792     21.28500        -0.001532     -0.000601      0.000151
     -4.77000      8.26188     21.28500        -0.002006      0.006191     -0.001643
      7.95000      8.26188      7.09500        -0.001233      0.003113      0.005157
      9.54000      5.50792      7.09500         0.001303     -0.004277      0.001961
     -6.36000     11.01584     21.28500         0.000698     -0.000229     -0.000256
     -6.36000     11.01584      7.09500         0.000583     -0.001876      0.003014
     11.13000      2.75396     21.28500         0.003091     -0.002771     -0.002095
     14.31000      0.91799      5.50000        -0.000000     -0.000121      0.587104
      9.54000      3.67195     19.69000        -0.001456      0.001279      0.585664
      9.54000      3.67195     22.88000        -0.000771     -0.000471     -0.587938
      9.54000      9.17987     22.88000        -0.000020      0.000022     -0.586720
      9.54000      9.17987     19.69000        -0.001848     -0.000986      0.586159
      9.54000      3.67195      5.50000        -0.000311      0.000480      0.588202
      9.54000      3.67195      8.69000         0.000891     -0.000837     -0.587310
     11.13000      6.42591      8.69000         0.000350     -0.000323     -0.587269
     11.13000      0.91799     19.69000         0.000184     -0.000071      0.587016
     11.13000      0.91799     22.88000        -0.000363     -0.000238     -0.586546
     14.31000      0.91799     22.88000         0.000080      0.000573     -0.587472
      7.95000     11.93383      5.50000        -0.000135      0.000147      0.586991
     11.13000      0.91799      5.50000         0.000098     -0.000093      0.587231
     14.31000      0.91799     19.69000        -0.000677     -0.000323      0.587247
     11.13000      0.91799      8.69000         0.000925      0.000488     -0.587316
     12.72000      3.67195      5.50000         0.000016      0.000148      0.587026
     12.72000      3.67195     22.88000         0.000607     -0.000110     -0.587005
      7.95000     11.93383      8.69000         0.000432      0.000332     -0.586718
      7.95000      6.42591      8.69000        -0.001410      0.001911     -0.580392
      7.95000      6.42591      5.50000        -0.001011     -0.000918      0.587206
      4.77000     11.93383      5.50000         0.000443     -0.000123      0.588036
      4.77000     11.93383     22.88000        -0.000511     -0.000356     -0.587580
      4.77000     11.93383      8.69000         0.001060      0.001092     -0.587719
     11.13000      6.42591      5.50000        -0.000474     -0.000274      0.586969
      4.77000     11.93383     19.69000         0.000324     -0.002387      0.585682
      6.36000      9.17987     19.69000        -0.002921     -0.005998      0.575500
      6.36000      9.17987     22.88000        -0.000294     -0.000309     -0.586746
     11.13000      6.42591     22.88000        -0.000182     -0.000019     -0.586883
      6.36000      9.17987      5.50000        -0.001443     -0.000494      0.587485
     11.13000      6.42591     19.69000        -0.002415      0.000058      0.586276
      6.36000      9.17987      8.69000         0.000137     -0.001286     -0.581798
     12.72000      3.67195     19.69000        -0.000427     -0.000340      0.586918
     12.72000      3.67195      8.69000         0.002004     -0.000328     -0.586102
      7.95000      6.42591     19.69000        -0.006610      0.001123      0.575130
      7.95000      6.42591     22.88000        -0.000295     -0.000010     -0.587015
      9.54000      9.17987      8.69000         0.000559      0.000431     -0.587870
     14.31000      0.91799      8.69000         0.000425      0.002071     -0.586292
      9.54000      9.17987      5.50000         0.000011     -0.000228      0.587434
      1.59000     11.93383     19.69000         0.001865     -0.000765      0.585893
      7.95000      0.91799     22.88000         0.000157      0.000887     -0.586867
      1.59000     11.93383      5.50000         0.000310      0.000191      0.587241
      3.18000      3.67195      5.50000         0.000031      0.001077      0.584871
      3.18000      3.67195      8.69000        -0.002470      0.004634     -0.560582
      4.77000      0.91799     19.69000         0.000541     -0.000858      0.585555
      4.77000      0.91799     22.88000        -0.000019      0.000836     -0.586804
      4.77000      0.91799      5.50000         0.000014     -0.000053      0.587560
      4.77000      0.91799      8.69000        -0.002593      0.003690     -0.582163
     -4.77000     11.93383     19.69000        -0.000548     -0.000925      0.587171
     -4.77000     11.93383     22.88000        -0.000159     -0.000252     -0.586837
     -4.77000     11.93383      5.50000        -0.000315      0.000655      0.587347
     -4.77000     11.93383      8.69000        -0.000988      0.000894     -0.587729
     -3.18000      9.17987     19.69000        -0.001498      0.000228      0.587346
     -3.18000      9.17987     22.88000        -0.000693      0.000064     -0.586843
      3.18000      3.67195     22.88000         0.000971      0.001111     -0.585342
     -3.18000      9.17987      5.50000         0.000136     -0.000173      0.587091
     -1.59000      6.42591     19.69000        -0.000701      0.000050      0.586344
     -1.59000      6.42591     22.88000         0.000101     -0.000390     -0.587421
     -1.59000      6.42591      5.50000         0.000242     -0.000450      0.587336
     -1.59000      6.42591      8.69000         0.003718     -0.001432     -0.583742
     -0.00000      3.67195     19.69000         0.000007     -0.000196      0.583148
     -0.00000      3.67195     22.88000         0.000614      0.000177     -0.588460
     -0.00000      3.67195      5.50000         0.000461      0.000111      0.588149
     -0.00000      3.67195      8.69000         0.005623      0.001444     -0.578067
      1.59000      0.91799     19.69000        -0.000203     -0.000806      0.586201
      1.59000      0.91799     22.88000         0.000081      0.000377     -0.587580
      1.59000      0.91799      5.50000        -0.000127      0.000172      0.587493
      1.59000      0.91799      8.69000         0.001649      0.004673     -0.583009
     -3.18000      9.17987      8.69000        -0.000067     -0.000171     -0.587405
      3.18000      3.67195     19.69000         0.003441      0.005679      0.564398
      1.59000      6.42591      8.69000         0.004512     -0.005423     -0.564044
      1.59000      6.42591      5.50000         0.000661     -0.000293      0.584698
      1.59000     11.93383      8.69000        -0.000028      0.000256     -0.586610
      3.18000      9.17987     19.69000         0.004261     -0.005524      0.568751
      3.18000      9.17987     22.88000        -0.000458     -0.001026     -0.587350
      3.18000      9.17987      5.50000         0.000848     -0.000975      0.588021
      3.18000      9.17987      8.69000        -0.001873     -0.008183     -0.571128
      4.77000      6.42591     19.69000         0.014859      0.010161      0.588803
      4.77000      6.42591     22.88000        -0.000844     -0.000831     -0.580312
      4.77000      6.42591      5.50000         0.000777     -0.000124      0.582877
      4.77000      6.42591      8.69000        -0.001271      0.014599     -0.623736
      6.36000      3.67195     19.69000        -0.003782      0.006569      0.567857
      6.36000      3.67195     22.88000        -0.001573     -0.000109     -0.587608
      6.36000      3.67195      5.50000        -0.000444      0.001353      0.587633
      6.36000      3.67195      8.69000        -0.008825     -0.000113     -0.569955
      7.95000      0.91799     19.69000         0.000313      0.001498      0.585819
      7.95000     11.93383     22.88000        -0.000035     -0.000181     -0.587225
      7.95000      0.91799      5.50000         0.000038      0.000494      0.587432
      7.95000      0.91799      8.69000        -0.000331      0.000800     -0.586447
     -1.59000     11.93383     19.69000        -0.000546      0.000228      0.588190
     -1.59000     11.93383     22.88000         0.000044      0.000465     -0.587133
     -1.59000     11.93383      5.50000        -0.000325      0.000111      0.587013
     -1.59000     11.93383      8.69000        -0.000491      0.000066     -0.587290
      0.00000      9.17987     19.69000         0.000554      0.000500      0.584528
      0.00000      9.17987     22.88000         0.000920     -0.000390     -0.585913
      0.00000      9.17987      5.50000        -0.000029     -0.000243      0.588099
      0.00000      9.17987      8.69000         0.001224     -0.003390     -0.583395
      1.59000      6.42591     19.69000         0.004744      0.000539      0.567669
      1.59000      6.42591     22.88000         0.001408     -0.000267     -0.585585
      1.59000     11.93383     22.88000         0.000722     -0.000101     -0.586908
      7.95000     11.93383     19.69000        -0.001074     -0.002072      0.586299
 -----------------------------------------------------------------------------------
    total drift:                                0.000172     -0.000456     -0.004556


--------------------------------------------------------------------------------------------------------



  FREE ENERGIE OF THE ION-ELECTRON SYSTEM (eV)
  ---------------------------------------------------
  free  energy   TOTEN  =     -1253.28743053 eV

  energy  without entropy=    -1253.16049916  energy(sigma->0) =    -1253.22396484
 
 d Force = 0.1413015E-06[ 0.170E-06, 0.112E-06]  d Energy = 0.1288026E-04-0.127E-04
 d Force =-0.3574797E-02[-0.357E-02,-0.357E-02]  d Ewald  =-0.3574796E-02-0.873E-10


--------------------------------------------------------------------------------------------------------


    POTLOK:  cpu time    0.4225: real time    0.4252


--------------------------------------------------------------------------------------------------------


