<?xml version="1.0" encoding="ISO-8859-1"?>
<modeling>
 <generator>
  <i name="program" type="string">vasp </i>
  <i name="version" type="string">5.4.4.18Apr17-6-g9f103f2a35  </i>
  <i name="subversion" type="string">(build Oct 28 2020 13:00:36) gamma-only         parallel </i>
  <i name="platform" type="string">LinuxIFC </i>
  <i name="date" type="string">2020 12 03 </i>
  <i name="time" type="string">21:33:07 </i>
 </generator>
 <incar>
  <i type="string" name="SYSTEM"> basalPlane</i>
  <i type="int" name="ISTART">     0</i>
  <i type="string" name="PREC">accurate  !=accurate, max(enmax) no wra</i>
  <i type="string" name="ALGO"> Normal    !=Normal, blocked Davidson it</i>
  <i type="int" name="NSIM">     4</i>
  <i type="int" name="ISPIN">     1</i>
  <i type="int" name="ICHARG">     2</i>
  <i type="int" name="INIWAV">     1</i>
  <i type="int" name="NELM">   200</i>
  <i type="int" name="NELMDL">    -5</i>
  <i type="int" name="NELMIN">     2</i>
  <i type="int" name="IBRION">     2</i>
  <i name="EDIFF">      0.00010000</i>
  <i name="EDIFFG">     -0.02000000</i>
  <i type="int" name="NSW"> 10000</i>
  <i type="int" name="ISIF">     2</i>
  <i type="int" name="ISYM">     2</i>
  <i name="ENCUT">    400.00000000</i>
  <i name="ENAUG">    645.00000000</i>
  <i type="string" name="LREAL"> Auto     !=Auto projection operators ev</i>
  <i type="logical" name="LPLANE"> T  </i>
  <i type="int" name="ISMEAR">     0</i>
  <i name="SIGMA">      0.10000000</i>
  <i type="int" name="NWRITE">     2</i>
  <i type="logical" name="LWAVE"> F  </i>
  <i type="logical" name="LCHARG"> F  </i>
  <i type="int" name="LORBIT">     0</i>
  <i type="logical" name="LELF"> F  </i>
  <i type="logical" name="LSCALU"> F  </i>
  <v type="int" name="KPOINT_BSE">    -1     0     0     0</v>
  <i type="int" name="NELM">   200</i>
 </incar>
 <structure name="primitive_cell" >
  <crystal>
   <varray name="basis" >
    <v>      15.90000000       0.00000000       0.00000000 </v>
    <v>      -7.95000000      13.76980392       0.00000000 </v>
    <v>       0.00000000       0.00000000      32.38000000 </v>
   </varray>
   <i name="volume">   7089.27338987 </i>
   <varray name="rec_basis" >
    <v>       0.06289308       0.03631134       0.00000000 </v>
    <v>       0.00000000       0.07262268       0.00000000 </v>
    <v>       0.00000000       0.00000000       0.03088326 </v>
   </varray>
  </crystal>
  <varray name="positions" >
   <v>       0.45125804       0.42960378      -0.49341141 </v>
   <v>       0.38586588       0.39492263      -0.47456958 </v>
   <v>       0.49354424      -0.47550979       0.48941099 </v>
   <v>      -0.49469159       0.38545764       0.49271820 </v>
   <v>       0.45098820       0.42106497       0.43863525 </v>
   <v>       0.46651299      -0.42523221       0.49327034 </v>
   <v>       0.49000776       0.31253120      -0.49962888 </v>
   <v>      -0.42508017      -0.45940511       0.46457359 </v>
   <v>      -0.41728875       0.45398087       0.46660076 </v>
   <v>      -0.37702060      -0.39324105       0.44778358 </v>
   <v>      -0.36143451       0.44349699       0.45219031 </v>
   <v>      -0.46666667       0.46666667      -0.39190859 </v>
   <v>       0.31506644       0.31353856       0.41034032 </v>
   <v>       0.33241934       0.41058899       0.40497647 </v>
   <v>       0.25510547       0.25547923       0.42734137 </v>
   <v>       0.33333333       0.46666667      -0.39190859 </v>
   <v>       0.28560244       0.43783289       0.41560230 </v>
   <v>       0.33333333       0.26666667      -0.39190859 </v>
   <v>       0.39186235       0.30705447       0.39083205 </v>
   <v>       0.42153176       0.46428162       0.38184597 </v>
   <v>       0.45776495       0.39930938       0.37336863 </v>
   <v>       0.40152657       0.24395114       0.39117611 </v>
   <v>      -0.46666667      -0.33333333      -0.39190859 </v>
   <v>       0.45391487      -0.46072583       0.37165048 </v>
   <v>      -0.46666667       0.26666667      -0.39190859 </v>
   <v>       0.40000000       0.40000000      -0.34264978 </v>
   <v>      -0.47545288       0.41759907       0.35705550 </v>
   <v>      -0.26666667      -0.33333333      -0.39190859 </v>
   <v>      -0.26666667       0.46666667      -0.39190859 </v>
   <v>       0.13333333       0.26666667      -0.39190859 </v>
   <v>      -0.40000000      -0.40000000      -0.34264978 </v>
   <v>      -0.40000000       0.40000000      -0.34264978 </v>
   <v>       0.40000000      -0.40000000      -0.34264978 </v>
   <v>       0.40000000       0.20000000      -0.34264978 </v>
   <v>       0.33333333      -0.33333333      -0.39190859 </v>
   <v>       0.33333333       0.06666667      -0.39190859 </v>
   <v>       0.20000000       0.40000000      -0.34264978 </v>
   <v>       0.20000000       0.20000000      -0.34264978 </v>
   <v>       0.13333333       0.46666667      -0.39190859 </v>
   <v>       0.13333333       0.06666667      -0.39190859 </v>
   <v>      -0.46666667       0.46666667      -0.29339098 </v>
   <v>      -0.20000000      -0.40000000      -0.34264978 </v>
   <v>       0.33333333       0.46666667      -0.29339098 </v>
   <v>       0.33333333       0.26666667      -0.29339098 </v>
   <v>      -0.26666667      -0.13333333      -0.39190859 </v>
   <v>      -0.26666667       0.26666667      -0.39190859 </v>
   <v>      -0.40000000      -0.20000000      -0.34264978 </v>
   <v>      -0.40000000       0.20000000      -0.34264978 </v>
   <v>      -0.46666667      -0.13333333      -0.39190859 </v>
   <v>      -0.46666667      -0.33333333      -0.29339098 </v>
   <v>      -0.46666667       0.06666667      -0.39190859 </v>
   <v>      -0.46666667       0.26666667      -0.29339098 </v>
   <v>      -0.06666667      -0.33333333      -0.39190859 </v>
   <v>      -0.20000000      -0.20000000      -0.34264978 </v>
   <v>      -0.20000000       0.40000000      -0.34264978 </v>
   <v>       0.20000000      -0.40000000      -0.34264978 </v>
   <v>       0.20000000       0.00000000      -0.34264978 </v>
   <v>      -0.26666667      -0.33333333      -0.29339098 </v>
   <v>      -0.26666667       0.46666667      -0.29339098 </v>
   <v>      -0.46666667       0.46666667       0.26837554 </v>
   <v>       0.13333333       0.26666667      -0.29339098 </v>
   <v>       0.00000000       0.20000000      -0.34264978 </v>
   <v>       0.40000000      -0.20000000      -0.34264978 </v>
   <v>      -0.06666667       0.26666667      -0.39190859 </v>
   <v>      -0.06666667       0.06666667      -0.39190859 </v>
   <v>       0.33333333       0.46666667       0.26837554 </v>
   <v>      -0.06666667      -0.13333333      -0.39190859 </v>
   <v>       0.33333333       0.26666667       0.26837554 </v>
   <v>      -0.06666667       0.46666667      -0.39190859 </v>
   <v>       0.40000000       0.00000000      -0.34264978 </v>
   <v>       0.33333333      -0.33333333      -0.29339098 </v>
   <v>       0.33333333       0.06666667      -0.29339098 </v>
   <v>       0.13333333      -0.33333333      -0.39190859 </v>
   <v>      -0.46666667      -0.33333333       0.26837554 </v>
   <v>       0.13333333       0.46666667      -0.29339098 </v>
   <v>       0.13333333      -0.13333333      -0.39190859 </v>
   <v>      -0.46666667       0.26666667       0.26837554 </v>
   <v>       0.13333333       0.06666667      -0.29339098 </v>
   <v>       0.00000000       0.40000000      -0.34264978 </v>
   <v>       0.00000000       0.00000000      -0.34264978 </v>
   <v>       0.33333333      -0.13333333      -0.39190859 </v>
   <v>      -0.26666667      -0.33333333       0.26837554 </v>
   <v>      -0.26666667       0.46666667       0.26837554 </v>
   <v>       0.13333333       0.26666667       0.26837554 </v>
   <v>      -0.26666667      -0.13333333      -0.29339098 </v>
   <v>      -0.26666667       0.26666667      -0.29339098 </v>
   <v>      -0.46666667      -0.13333333      -0.29339098 </v>
   <v>       0.00000000      -0.20000000      -0.34264978 </v>
   <v>       0.00000000      -0.40000000      -0.34264978 </v>
   <v>       0.33333333      -0.33333333       0.26837554 </v>
   <v>      -0.46666667       0.06666667      -0.29339098 </v>
   <v>       0.33333333       0.06666667       0.26837554 </v>
   <v>      -0.06666667      -0.33333333      -0.29339098 </v>
   <v>      -0.20000000       0.00000000      -0.34264978 </v>
   <v>       0.40000000       0.40000000       0.21911674 </v>
   <v>      -0.26666667       0.06666667      -0.39190859 </v>
   <v>      -0.20000000       0.20000000      -0.34264978 </v>
   <v>       0.13333333       0.46666667       0.26837554 </v>
   <v>       0.13333333       0.06666667       0.26837554 </v>
   <v>      -0.40000000       0.00000000      -0.34264978 </v>
   <v>      -0.40000000      -0.40000000       0.21911674 </v>
   <v>      -0.40000000       0.40000000       0.21911674 </v>
   <v>      -0.06666667       0.26666667      -0.29339098 </v>
   <v>      -0.06666667       0.06666667      -0.29339098 </v>
   <v>      -0.06666667      -0.13333333      -0.29339098 </v>
   <v>      -0.06666667       0.46666667      -0.29339098 </v>
   <v>      -0.26666667      -0.13333333       0.26837554 </v>
   <v>       0.40000000      -0.40000000       0.21911674 </v>
   <v>       0.40000000       0.20000000       0.21911674 </v>
   <v>      -0.26666667       0.26666667       0.26837554 </v>
   <v>       0.20000000      -0.20000000      -0.34264978 </v>
   <v>      -0.46666667      -0.13333333       0.26837554 </v>
   <v>       0.13333333      -0.33333333      -0.29339098 </v>
   <v>       0.20000000       0.40000000       0.21911674 </v>
   <v>       0.20000000       0.20000000       0.21911674 </v>
   <v>      -0.46666667       0.06666667       0.26837554 </v>
   <v>       0.13333333      -0.13333333      -0.29339098 </v>
   <v>      -0.06666667      -0.33333333       0.26837554 </v>
   <v>       0.33333333      -0.13333333      -0.29339098 </v>
   <v>      -0.20000000      -0.40000000       0.21911674 </v>
   <v>      -0.06666667       0.26666667       0.26837554 </v>
   <v>      -0.40000000      -0.20000000       0.21911674 </v>
   <v>      -0.06666667       0.06666667       0.26837554 </v>
   <v>      -0.06666667      -0.13333333       0.26837554 </v>
   <v>      -0.06666667       0.46666667       0.26837554 </v>
   <v>      -0.40000000       0.20000000       0.21911674 </v>
   <v>       0.13333333      -0.33333333       0.26837554 </v>
   <v>      -0.26666667       0.06666667      -0.29339098 </v>
   <v>      -0.20000000      -0.20000000       0.21911674 </v>
   <v>       0.13333333      -0.13333333       0.26837554 </v>
   <v>      -0.46666667       0.46666667       0.16985794 </v>
   <v>      -0.20000000       0.40000000       0.21911674 </v>
   <v>       0.20000000      -0.40000000       0.21911674 </v>
   <v>       0.20000000       0.00000000       0.21911674 </v>
   <v>       0.33333333       0.46666667       0.16985794 </v>
   <v>       0.33333333       0.26666667       0.16985794 </v>
   <v>       0.33333333      -0.13333333       0.26837554 </v>
   <v>       0.00000000       0.20000000       0.21911674 </v>
   <v>       0.40000000      -0.20000000       0.21911674 </v>
   <v>       0.40000000       0.00000000       0.21911674 </v>
   <v>      -0.46666667      -0.33333333       0.16985794 </v>
   <v>      -0.46666667       0.26666667       0.16985794 </v>
   <v>       0.00000000       0.40000000       0.21911674 </v>
   <v>       0.00000000       0.00000000       0.21911674 </v>
   <v>      -0.26666667      -0.33333333       0.16985794 </v>
   <v>      -0.26666667       0.46666667       0.16985794 </v>
   <v>      -0.26666667       0.06666667       0.26837554 </v>
   <v>       0.13333333       0.26666667       0.16985794 </v>
   <v>       0.33333333      -0.33333333       0.16985794 </v>
   <v>       0.33333333       0.06666667       0.16985794 </v>
   <v>       0.00000000      -0.20000000       0.21911674 </v>
   <v>       0.00000000      -0.40000000       0.21911674 </v>
   <v>       0.13333333       0.46666667       0.16985794 </v>
   <v>       0.13333333       0.06666667       0.16985794 </v>
   <v>      -0.20000000       0.00000000       0.21911674 </v>
   <v>      -0.20000000       0.20000000       0.21911674 </v>
   <v>      -0.40000000       0.00000000       0.21911674 </v>
   <v>      -0.26666667      -0.13333333       0.16985794 </v>
   <v>      -0.26666667       0.26666667       0.16985794 </v>
   <v>      -0.46666667      -0.13333333       0.16985794 </v>
   <v>       0.20000000      -0.20000000       0.21911674 </v>
   <v>      -0.46666667       0.06666667       0.16985794 </v>
   <v>      -0.06666667      -0.33333333       0.16985794 </v>
   <v>      -0.06666667       0.26666667       0.16985794 </v>
   <v>      -0.06666667       0.06666667       0.16985794 </v>
   <v>      -0.06666667      -0.13333333       0.16985794 </v>
   <v>      -0.06666667       0.46666667       0.16985794 </v>
   <v>       0.13333333      -0.33333333       0.16985794 </v>
   <v>       0.13333333      -0.13333333       0.16985794 </v>
   <v>       0.33333333      -0.13333333       0.16985794 </v>
   <v>      -0.26666667       0.06666667       0.16985794 </v>
  </varray>
 </structure>
 <varray name="primitive_index" >
  <v type="int" >        1 </v>
  <v type="int" >       18 </v>
  <v type="int" >        2 </v>
  <v type="int" >        3 </v>
  <v type="int" >       11 </v>
  <v type="int" >       17 </v>
  <v type="int" >       19 </v>
  <v type="int" >        5 </v>
  <v type="int" >        4 </v>
  <v type="int" >       12 </v>
  <v type="int" >       20 </v>
  <v type="int" >      148 </v>
  <v type="int" >       10 </v>
  <v type="int" >        6 </v>
  <v type="int" >       21 </v>
  <v type="int" >      168 </v>
  <v type="int" >       14 </v>
  <v type="int" >      140 </v>
  <v type="int" >        9 </v>
  <v type="int" >        8 </v>
  <v type="int" >        7 </v>
  <v type="int" >       16 </v>
  <v type="int" >      144 </v>
  <v type="int" >       13 </v>
  <v type="int" >      152 </v>
  <v type="int" >       44 </v>
  <v type="int" >       15 </v>
  <v type="int" >       97 </v>
  <v type="int" >      105 </v>
  <v type="int" >      131 </v>
  <v type="int" >       22 </v>
  <v type="int" >       38 </v>
  <v type="int" >       47 </v>
  <v type="int" >       41 </v>
  <v type="int" >      164 </v>
  <v type="int" >      115 </v>
  <v type="int" >       34 </v>
  <v type="int" >       30 </v>
  <v type="int" >      127 </v>
  <v type="int" >      135 </v>
  <v type="int" >      149 </v>
  <v type="int" >       61 </v>
  <v type="int" >      169 </v>
  <v type="int" >      125 </v>
  <v type="int" >       96 </v>
  <v type="int" >       73 </v>
  <v type="int" >       27 </v>
  <v type="int" >       43 </v>
  <v type="int" >      110 </v>
  <v type="int" >      145 </v>
  <v type="int" >      156 </v>
  <v type="int" >      153 </v>
  <v type="int" >       76 </v>
  <v type="int" >       56 </v>
  <v type="int" >       65 </v>
  <v type="int" >       24 </v>
  <v type="int" >       53 </v>
  <v type="int" >       98 </v>
  <v type="int" >      106 </v>
  <v type="int" >      151 </v>
  <v type="int" >      132 </v>
  <v type="int" >       60 </v>
  <v type="int" >       46 </v>
  <v type="int" >      103 </v>
  <v type="int" >       85 </v>
  <v type="int" >      141 </v>
  <v type="int" >      171 </v>
  <v type="int" >      114 </v>
  <v type="int" >      101 </v>
  <v type="int" >       37 </v>
  <v type="int" >      165 </v>
  <v type="int" >      116 </v>
  <v type="int" >      123 </v>
  <v type="int" >      147 </v>
  <v type="int" >      128 </v>
  <v type="int" >      119 </v>
  <v type="int" >      155 </v>
  <v type="int" >      136 </v>
  <v type="int" >       63 </v>
  <v type="int" >       57 </v>
  <v type="int" >      160 </v>
  <v type="int" >      102 </v>
  <v type="int" >       90 </v>
  <v type="int" >      134 </v>
  <v type="int" >       93 </v>
  <v type="int" >       74 </v>
  <v type="int" >      170 </v>
  <v type="int" >       69 </v>
  <v type="int" >       66 </v>
  <v type="int" >      167 </v>
  <v type="int" >      111 </v>
  <v type="int" >      118 </v>
  <v type="int" >       75 </v>
  <v type="int" >       31 </v>
  <v type="int" >       42 </v>
  <v type="int" >       80 </v>
  <v type="int" >       71 </v>
  <v type="int" >      130 </v>
  <v type="int" >      138 </v>
  <v type="int" >       48 </v>
  <v type="int" >       35 </v>
  <v type="int" >       40 </v>
  <v type="int" >       88 </v>
  <v type="int" >       82 </v>
  <v type="int" >      157 </v>
  <v type="int" >       99 </v>
  <v type="int" >       94 </v>
  <v type="int" >       36 </v>
  <v type="int" >       39 </v>
  <v type="int" >       78 </v>
  <v type="int" >       33 </v>
  <v type="int" >      143 </v>
  <v type="int" >      124 </v>
  <v type="int" >       28 </v>
  <v type="int" >       32 </v>
  <v type="int" >      159 </v>
  <v type="int" >      120 </v>
  <v type="int" >      107 </v>
  <v type="int" >      161 </v>
  <v type="int" >       67 </v>
  <v type="int" >      104 </v>
  <v type="int" >       25 </v>
  <v type="int" >      108 </v>
  <v type="int" >       89 </v>
  <v type="int" >       79 </v>
  <v type="int" >       45 </v>
  <v type="int" >      139 </v>
  <v type="int" >       81 </v>
  <v type="int" >       58 </v>
  <v type="int" >      122 </v>
  <v type="int" >      150 </v>
  <v type="int" >       68 </v>
  <v type="int" >       26 </v>
  <v type="int" >       54 </v>
  <v type="int" >      142 </v>
  <v type="int" >      113 </v>
  <v type="int" >      163 </v>
  <v type="int" >       59 </v>
  <v type="int" >       49 </v>
  <v type="int" >       51 </v>
  <v type="int" >      146 </v>
  <v type="int" >      154 </v>
  <v type="int" >       62 </v>
  <v type="int" >       55 </v>
  <v type="int" >      100 </v>
  <v type="int" >       91 </v>
  <v type="int" >       86 </v>
  <v type="int" >      133 </v>
  <v type="int" >      166 </v>
  <v type="int" >      117 </v>
  <v type="int" >       70 </v>
  <v type="int" >       64 </v>
  <v type="int" >      129 </v>
  <v type="int" >      137 </v>
  <v type="int" >       29 </v>
  <v type="int" >       52 </v>
  <v type="int" >       50 </v>
  <v type="int" >       92 </v>
  <v type="int" >       77 </v>
  <v type="int" >      112 </v>
  <v type="int" >       23 </v>
  <v type="int" >      158 </v>
  <v type="int" >      109 </v>
  <v type="int" >       87 </v>
  <v type="int" >       72 </v>
  <v type="int" >       83 </v>
  <v type="int" >       95 </v>
  <v type="int" >      126 </v>
  <v type="int" >      121 </v>
  <v type="int" >      162 </v>
  <v type="int" >       84 </v>
 </varray>
 <kpoints>
  <varray name="kpointlist" >
   <v>       0.00000000       0.00000000       0.00000000 </v>
  </varray>
  <varray name="weights" >
   <v>       1.00000000 </v>
  </varray>
 </kpoints>
 <parameters>
  <separator name="general" >
   <i type="string" name="SYSTEM">basalPlane</i>
   <i type="logical" name="LCOMPAT"> F  </i>
  </separator>
  <separator name="electronic" >
   <i type="string" name="PREC">accura</i>
   <i name="ENMAX">    400.00000000</i>
   <i name="ENAUG">    645.00000000</i>
   <i name="EDIFF">      0.00010000</i>
   <i type="int" name="IALGO">    38</i>
   <i type="int" name="IWAVPR">    11</i>
   <i type="int" name="NBANDS">   585</i>
   <i name="NELECT">    956.00000000</i>
   <i type="int" name="TURBO">     0</i>
   <i type="int" name="IRESTART">     0</i>
   <i type="int" name="NREBOOT">     0</i>
   <i type="int" name="NMIN">     0</i>
   <i name="EREF">      0.00000000</i>
   <separator name="electronic smearing" >
    <i type="int" name="ISMEAR">     0</i>
    <i name="SIGMA">      0.10000000</i>
    <i name="KSPACING">      0.50000000</i>
    <i type="logical" name="KGAMMA"> T  </i>
   </separator>
   <separator name="electronic projectors" >
    <i type="logical" name="LREAL"> T  </i>
    <v name="ROPT">     -0.00025000     -0.00025000     -0.00025000     -0.00025000     -0.00025000</v>
    <i type="int" name="LMAXPAW">  -100</i>
    <i type="int" name="LMAXMIX">     2</i>
    <i type="logical" name="NLSPLINE"> F  </i>
   </separator>
   <separator name="electronic startup" >
    <i type="int" name="ISTART">     0</i>
    <i type="int" name="ICHARG">     2</i>
    <i type="int" name="INIWAV">     1</i>
   </separator>
   <separator name="electronic spin" >
    <i type="int" name="ISPIN">     1</i>
    <i type="logical" name="LNONCOLLINEAR"> F  </i>
    <v name="MAGMOM">      1.00000000      1.00000000      1.00000000      1.00000000      1.00000000      1.00000000      1.00000000      1.00000000      1.00000000      1.00000000      1.00000000      1.00000000      1.00000000      1.00000000      1.00000000      1.00000000      1.00000000      1.00000000      1.00000000      1.00000000
      1.00000000      1.00000000      1.00000000      1.00000000      1.00000000      1.00000000      1.00000000      1.00000000      1.00000000      1.00000000      1.00000000      1.00000000      1.00000000      1.00000000      1.00000000      1.00000000      1.00000000      1.00000000      1.00000000      1.00000000
      1.00000000      1.00000000      1.00000000      1.00000000      1.00000000      1.00000000      1.00000000      1.00000000      1.00000000      1.00000000      1.00000000      1.00000000      1.00000000      1.00000000      1.00000000      1.00000000      1.00000000      1.00000000      1.00000000      1.00000000
      1.00000000      1.00000000      1.00000000      1.00000000      1.00000000      1.00000000      1.00000000      1.00000000      1.00000000      1.00000000      1.00000000      1.00000000      1.00000000      1.00000000      1.00000000      1.00000000      1.00000000      1.00000000      1.00000000      1.00000000
      1.00000000      1.00000000      1.00000000      1.00000000      1.00000000      1.00000000      1.00000000      1.00000000      1.00000000      1.00000000      1.00000000      1.00000000      1.00000000      1.00000000      1.00000000      1.00000000      1.00000000      1.00000000      1.00000000      1.00000000
      1.00000000      1.00000000      1.00000000      1.00000000      1.00000000      1.00000000      1.00000000      1.00000000      1.00000000      1.00000000      1.00000000      1.00000000      1.00000000      1.00000000      1.00000000      1.00000000      1.00000000      1.00000000      1.00000000      1.00000000
      1.00000000      1.00000000      1.00000000      1.00000000      1.00000000      1.00000000      1.00000000      1.00000000      1.00000000      1.00000000      1.00000000      1.00000000      1.00000000      1.00000000      1.00000000      1.00000000      1.00000000      1.00000000      1.00000000      1.00000000
      1.00000000      1.00000000      1.00000000      1.00000000      1.00000000      1.00000000      1.00000000      1.00000000      1.00000000      1.00000000      1.00000000      1.00000000      1.00000000      1.00000000      1.00000000      1.00000000      1.00000000      1.00000000      1.00000000      1.00000000
      1.00000000      1.00000000      1.00000000      1.00000000      1.00000000      1.00000000      1.00000000      1.00000000      1.00000000      1.00000000      1.00000000</v>
    <i name="NUPDOWN">     -1.00000000</i>
    <i type="logical" name="LSORBIT"> F  </i>
    <v name="SAXIS">      0.00000000      0.00000000      1.00000000</v>
    <i type="logical" name="LSPIRAL"> F  </i>
    <v name="QSPIRAL">      0.00000000      0.00000000      0.00000000</v>
    <i type="logical" name="LZEROZ"> F  </i>
   </separator>
   <separator name="electronic exchange-correlation" >
    <i type="logical" name="LASPH"> F  </i>
    <i type="logical" name="LMETAGGA"> F  </i>
   </separator>
   <separator name="electronic convergence" >
    <i type="int" name="NELM">   200</i>
    <i type="int" name="NELMDL">    -5</i>
    <i type="int" name="NELMIN">     2</i>
    <i name="ENINI">    400.00000000</i>
    <separator name="electronic convergence detail" >
     <i type="logical" name="LDIAG"> T  </i>
     <i type="logical" name="LSUBROT"> F  </i>
     <i name="WEIMIN">      0.00100000</i>
     <i name="EBREAK">      0.00000004</i>
     <i name="DEPER">      0.30000000</i>
     <i type="int" name="NRMM">     4</i>
     <i name="TIME">      0.40000000</i>
    </separator>
   </separator>
   <separator name="electronic mixer" >
    <i name="AMIX">      0.40000000</i>
    <i name="BMIX">      1.00000000</i>
    <i name="AMIN">      0.10000000</i>
    <i name="AMIX_MAG">      1.60000000</i>
    <i name="BMIX_MAG">      1.00000000</i>
    <separator name="electronic mixer details" >
     <i type="int" name="IMIX">     4</i>
     <i type="logical" name="MIXFIRST"> F  </i>
     <i type="int" name="MAXMIX">   -45</i>
     <i name="WC">    100.00000000</i>
     <i type="int" name="INIMIX">     1</i>
     <i type="int" name="MIXPRE">     1</i>
     <i type="int" name="MREMOVE">     5</i>
    </separator>
   </separator>
   <separator name="electronic dipolcorrection" >
    <i type="logical" name="LDIPOL"> F  </i>
    <i type="logical" name="LMONO"> F  </i>
    <i type="int" name="IDIPOL">     0</i>
    <i name="EPSILON">      1.00000000</i>
    <v name="DIPOL">   -100.00000000   -100.00000000   -100.00000000</v>
    <i name="EFIELD">      0.00000000</i>
   </separator>
  </separator>
  <separator name="grids" >
   <i type="int" name="NGX">   108</i>
   <i type="int" name="NGY">   108</i>
   <i type="int" name="NGZ">   216</i>
   <i type="int" name="NGXF">   216</i>
   <i type="int" name="NGYF">   216</i>
   <i type="int" name="NGZF">   432</i>
   <i type="logical" name="ADDGRID"> F  </i>
  </separator>
  <separator name="ionic" >
   <i type="int" name="NSW"> 10000</i>
   <i type="int" name="IBRION">     2</i>
   <i type="int" name="MDALGO">     0</i>
   <i type="int" name="ISIF">     2</i>
   <i name="PSTRESS">      0.00000000</i>
   <i name="EDIFFG">     -0.02000000</i>
   <i type="int" name="NFREE">     1</i>
   <i name="POTIM">      0.50000000</i>
   <i name="SMASS">     -3.00000000</i>
   <i name="SCALEE">      1.00000000</i>
  </separator>
  <separator name="ionic md" >
   <i name="TEBEG">      0.00010000</i>
   <i name="TEEND">      0.00010000</i>
   <i type="int" name="NBLOCK">     1</i>
   <i type="int" name="KBLOCK"> 10000</i>
   <i type="int" name="NPACO">   256</i>
   <i name="APACO">     16.00000000</i>
  </separator>
  <separator name="symmetry" >
   <i type="int" name="ISYM">     2</i>
   <i name="SYMPREC">      0.00001000</i>
  </separator>
  <separator name="dos" >
   <i type="int" name="LORBIT">     0</i>
   <v name="RWIGS">     -1.00000000     -1.00000000     -1.00000000     -1.00000000     -1.00000000</v>
   <i type="int" name="NEDOS">   301</i>
   <i name="EMIN">     10.00000000</i>
   <i name="EMAX">    -10.00000000</i>
   <i name="EFERMI">      0.00000000</i>
  </separator>
  <separator name="writing" >
   <i type="int" name="NWRITE">     2</i>
   <i type="logical" name="LWAVE"> F  </i>
   <i type="logical" name="LDOWNSAMPLE"> F  </i>
   <i type="logical" name="LCHARG"> F  </i>
   <i type="logical" name="LPARD"> F  </i>
   <i type="logical" name="LVTOT"> F  </i>
   <i type="logical" name="LVHAR"> F  </i>
   <i type="logical" name="LELF"> F  </i>
   <i type="logical" name="LOPTICS"> F  </i>
   <v name="STM">      0.00000000      0.00000000      0.00000000      0.00000000      0.00000000      0.00000000      0.00000000</v>
  </separator>
  <separator name="performance" >
   <i type="int" name="NPAR">    13</i>
   <i type="int" name="NSIM">     4</i>
   <i type="int" name="NBLK">    -1</i>
   <i type="logical" name="LPLANE"> T  </i>
   <i type="logical" name="LSCALAPACK"> T  </i>
   <i type="logical" name="LSCAAWARE"> F  </i>
   <i type="logical" name="LSCALU"> F  </i>
   <i type="logical" name="LASYNC"> F  </i>
   <i type="logical" name="LORBITALREAL"> F  </i>
  </separator>
  <separator name="miscellaneous" >
   <i type="int" name="IDIOT">     3</i>
   <i type="int" name="ISPECIAL">     0</i>
   <i type="logical" name="LMUSIC"> F  </i>
   <v name="POMASS">     12.01100000     51.99600000      1.00000000     95.94000000     32.06600000</v>
   <v name="DARWINR">      0.00000000      0.00000000      0.00000000      0.00000000      0.00000000</v>
   <v name="DARWINV">      1.00000000      1.00000000      1.00000000      1.00000000      1.00000000</v>
   <i type="logical" name="LCORR"> T  </i>
  </separator>
  <i type="logical" name="GGA_COMPAT"> T  </i>
  <i type="logical" name="LBERRY"> F  </i>
  <i type="int" name="ICORELEVEL">     0</i>
  <i type="logical" name="LDAU"> F  </i>
  <i type="int" name="I_CONSTRAINED_M">     0</i>
  <separator name="electronic exchange-correlation" >
   <i type="string" name="GGA">--</i>
   <i type="int" name="VOSKOWN">     0</i>
   <i type="logical" name="LHFCALC"> F  </i>
   <i type="string" name="PRECFOCK"></i>
   <i type="logical" name="LSYMGRAD"> F  </i>
   <i type="logical" name="LHFONE"> F  </i>
   <i type="logical" name="LRHFCALC"> F  </i>
   <i type="logical" name="LTHOMAS"> F  </i>
   <i type="logical" name="LMODELHF"> F  </i>
   <i name="ENCUT4O">     -1.00000000</i>
   <i type="int" name="EXXOEP">     0</i>
   <i type="int" name="FOURORBIT">     0</i>
   <i name="AEXX">      0.00000000</i>
   <i name="HFALPHA">      0.00000000</i>
   <i name="MCALPHA">      0.00000000</i>
   <i name="ALDAX">      1.00000000</i>
   <i name="AGGAX">      1.00000000</i>
   <i name="ALDAC">      1.00000000</i>
   <i name="AGGAC">      1.00000000</i>
   <i type="int" name="NKREDX">     1</i>
   <i type="int" name="NKREDY">     1</i>
   <i type="int" name="NKREDZ">     1</i>
   <i type="logical" name="SHIFTRED"> F  </i>
   <i type="logical" name="ODDONLY"> F  </i>
   <i type="logical" name="EVENONLY"> F  </i>
   <i type="int" name="LMAXFOCK">     0</i>
   <i type="int" name="NMAXFOCKAE">     0</i>
   <i type="logical" name="LFOCKAEDFT"> F  </i>
   <i name="HFSCREEN">      0.00000000</i>
   <i name="HFSCREENC">      0.00000000</i>
   <i type="int" name="NBANDSGWLOW">     0</i>
  </separator>
  <separator name="vdW DFT" >
   <i type="logical" name="LUSE_VDW"> F  </i>
   <i name="Zab_VDW">     -0.84910000</i>
   <i name="PARAM1">      0.12340000</i>
   <i name="PARAM2">      1.00000000</i>
   <i name="PARAM3">      0.00000000</i>
  </separator>
  <separator name="model GW" >
   <i type="int" name="MODEL_GW">     0</i>
   <i name="MODEL_EPS0">     24.87464347</i>
   <i name="MODEL_ALPHA">      1.00000000</i>
  </separator>
  <separator name="linear response parameters" >
   <i type="logical" name="LEPSILON"> F  </i>
   <i type="logical" name="LRPA"> F  </i>
   <i type="logical" name="LNABLA"> F  </i>
   <i type="logical" name="LVEL"> F  </i>
   <i type="int" name="KINTER">     0</i>
   <i name="CSHIFT">      0.10000000</i>
   <i name="OMEGAMAX">     -1.00000000</i>
   <i name="DEG_THRESHOLD">      0.00200000</i>
   <i name="RTIME">     -0.10000000</i>
   <i name="WPLASMAI">      0.00000000</i>
   <v name="DFIELD">      0.00000000      0.00000000      0.00000000</v>
   <v name="WPLASMA">      0.00000000      0.00000000      0.00000000      0.00000000      0.00000000      0.00000000      0.00000000      0.00000000      0.00000000</v>
  </separator>
  <separator name="orbital magnetization" >
   <i type="logical" name="NUCIND"> F  </i>
   <v name="MAGPOS">      0.00000000      0.00000000      0.00000000</v>
   <i type="logical" name="LNICSALL"> T  </i>
   <i type="logical" name="ORBITALMAG"> F  </i>
   <i type="logical" name="LMAGBLOCH"> F  </i>
   <i type="logical" name="LCHIMAG"> F  </i>
   <i type="logical" name="LGAUGE"> T  </i>
   <i type="int" name="MAGATOM">     0</i>
   <v name="MAGDIPOL">      0.00000000      0.00000000      0.00000000</v>
   <v name="AVECCONST">      0.00000000      0.00000000      0.00000000</v>
  </separator>
  <separator name="response functions" >
   <i type="logical" name="LADDER"> F  </i>
   <i type="logical" name="LRPAFORCE"> F  </i>
   <i type="logical" name="LFXC"> F  </i>
   <i type="logical" name="LHARTREE"> T  </i>
   <i type="int" name="IBSE">     0</i>
   <v type="int" name="KPOINT">    -1     0     0     0</v>
   <i type="logical" name="LTCTE"> F  </i>
   <i type="logical" name="LTETE"> F  </i>
   <i type="logical" name="LTRIPLET"> F  </i>
   <i type="logical" name="LFXCEPS"> F  </i>
   <i type="logical" name="LFXHEG"> F  </i>
   <i type="int" name="NATURALO">     2</i>
   <i type="logical" name="L2ORDER"> F  </i>
   <i type="logical" name="LMP2LT"> F  </i>
   <i type="logical" name="LUSEW"> F  </i>
   <i name="ENCUTGW">     -2.00000000</i>
   <i name="ENCUTGWSOFT">     -2.00000000</i>
   <i name="ENCUTLF">     -1.00000000</i>
   <i type="int" name="LMAXMP2">    -1</i>
   <i name="SCISSOR">      0.00000000</i>
   <i type="int" name="NOMEGA">     0</i>
   <i type="int" name="NOMEGAR">     0</i>
   <i type="int" name="NBANDSGW">    -1</i>
   <i type="int" name="NBANDSO">    -1</i>
   <i type="int" name="NBANDSV">    -1</i>
   <i type="int" name="NELM">   200</i>
   <i type="int" name="NELMHF">     1</i>
   <i type="int" name="DIM">     3</i>
   <i type="int" name="ANTIRES">     0</i>
   <i name="OMEGAMAX">    -30.00000000</i>
   <i name="OMEGAMIN">    -30.00000000</i>
   <i name="OMEGATL">   -200.00000000</i>
   <i type="int" name="OMEGAGRID">   140</i>
   <i name="CSHIFT">     -0.10000000</i>
   <i type="logical" name="SELFENERGY"> F  </i>
   <i type="logical" name="LSPECTRAL"> F  </i>
   <i type="logical" name="LSPECTRALGW"> F  </i>
   <i type="logical" name="LSINGLES"> F  </i>
   <i type="logical" name="LFERMIGW"> F  </i>
   <i type="logical" name="ODDONLYGW"> F  </i>
   <i type="logical" name="EVENONLYGW"> F  </i>
   <i type="int" name="NKREDLFX">     1</i>
   <i type="int" name="NKREDLFY">     1</i>
   <i type="int" name="NKREDLFZ">     1</i>
   <i type="int" name="MAXMEM">  2800</i>
   <i type="int" name="TELESCOPE">     0</i>
   <i type="int" name="TAUPAR">     1</i>
   <i type="int" name="OMEGAPAR">    -1</i>
   <i name="LAMBDA">      1.00000000</i>
  </separator>
  <separator name="External order field" >
   <i name="OFIELD_KAPPA">      0.00000000</i>
   <v name="OFIELD_K">      0.00000000      0.00000000      0.00000000</v>
   <i name="OFIELD_Q6_NEAR">      0.00000000</i>
   <i name="OFIELD_Q6_FAR">      0.00000000</i>
   <i name="OFIELD_A">      0.00000000</i>
  </separator>
 </parameters>
 <atominfo>
  <atoms>     171 </atoms>
  <types>       5 </types>
  <array name="atoms" >
   <dimension dim="1">ion</dimension>
   <field type="string">element</field>
   <field type="int">atomtype</field>
   <set>
    <rc><c>C </c><c>   1</c></rc>
    <rc><c>C </c><c>   1</c></rc>
    <rc><c>C </c><c>   1</c></rc>
    <rc><c>C </c><c>   1</c></rc>
    <rc><c>C </c><c>   1</c></rc>
    <rc><c>C </c><c>   1</c></rc>
    <rc><c>C </c><c>   1</c></rc>
    <rc><c>C </c><c>   1</c></rc>
    <rc><c>C </c><c>   1</c></rc>
    <rc><c>C </c><c>   1</c></rc>
    <rc><c>Cr</c><c>   2</c></rc>
    <rc><c>H </c><c>   3</c></rc>
    <rc><c>H </c><c>   3</c></rc>
    <rc><c>H </c><c>   3</c></rc>
    <rc><c>H </c><c>   3</c></rc>
    <rc><c>H </c><c>   3</c></rc>
    <rc><c>H </c><c>   3</c></rc>
    <rc><c>H </c><c>   3</c></rc>
    <rc><c>H </c><c>   3</c></rc>
    <rc><c>H </c><c>   3</c></rc>
    <rc><c>H </c><c>   3</c></rc>
    <rc><c>Mo</c><c>   4</c></rc>
    <rc><c>Mo</c><c>   4</c></rc>
    <rc><c>Mo</c><c>   4</c></rc>
    <rc><c>Mo</c><c>   4</c></rc>
    <rc><c>Mo</c><c>   4</c></rc>
    <rc><c>Mo</c><c>   4</c></rc>
    <rc><c>Mo</c><c>   4</c></rc>
    <rc><c>Mo</c><c>   4</c></rc>
    <rc><c>Mo</c><c>   4</c></rc>
    <rc><c>Mo</c><c>   4</c></rc>
    <rc><c>Mo</c><c>   4</c></rc>
    <rc><c>Mo</c><c>   4</c></rc>
    <rc><c>Mo</c><c>   4</c></rc>
    <rc><c>Mo</c><c>   4</c></rc>
    <rc><c>Mo</c><c>   4</c></rc>
    <rc><c>Mo</c><c>   4</c></rc>
    <rc><c>Mo</c><c>   4</c></rc>
    <rc><c>Mo</c><c>   4</c></rc>
    <rc><c>Mo</c><c>   4</c></rc>
    <rc><c>Mo</c><c>   4</c></rc>
    <rc><c>Mo</c><c>   4</c></rc>
    <rc><c>Mo</c><c>   4</c></rc>
    <rc><c>Mo</c><c>   4</c></rc>
    <rc><c>Mo</c><c>   4</c></rc>
    <rc><c>Mo</c><c>   4</c></rc>
    <rc><c>Mo</c><c>   4</c></rc>
    <rc><c>Mo</c><c>   4</c></rc>
    <rc><c>Mo</c><c>   4</c></rc>
    <rc><c>Mo</c><c>   4</c></rc>
    <rc><c>Mo</c><c>   4</c></rc>
    <rc><c>Mo</c><c>   4</c></rc>
    <rc><c>Mo</c><c>   4</c></rc>
    <rc><c>Mo</c><c>   4</c></rc>
    <rc><c>Mo</c><c>   4</c></rc>
    <rc><c>Mo</c><c>   4</c></rc>
    <rc><c>Mo</c><c>   4</c></rc>
    <rc><c>Mo</c><c>   4</c></rc>
    <rc><c>Mo</c><c>   4</c></rc>
    <rc><c>Mo</c><c>   4</c></rc>
    <rc><c>Mo</c><c>   4</c></rc>
    <rc><c>Mo</c><c>   4</c></rc>
    <rc><c>Mo</c><c>   4</c></rc>
    <rc><c>Mo</c><c>   4</c></rc>
    <rc><c>Mo</c><c>   4</c></rc>
    <rc><c>Mo</c><c>   4</c></rc>
    <rc><c>Mo</c><c>   4</c></rc>
    <rc><c>Mo</c><c>   4</c></rc>
    <rc><c>Mo</c><c>   4</c></rc>
    <rc><c>Mo</c><c>   4</c></rc>
    <rc><c>Mo</c><c>   4</c></rc>
    <rc><c>S </c><c>   5</c></rc>
    <rc><c>S </c><c>   5</c></rc>
    <rc><c>S </c><c>   5</c></rc>
    <rc><c>S </c><c>   5</c></rc>
    <rc><c>S </c><c>   5</c></rc>
    <rc><c>S </c><c>   5</c></rc>
    <rc><c>S </c><c>   5</c></rc>
    <rc><c>S </c><c>   5</c></rc>
    <rc><c>S </c><c>   5</c></rc>
    <rc><c>S </c><c>   5</c></rc>
    <rc><c>S </c><c>   5</c></rc>
    <rc><c>S </c><c>   5</c></rc>
    <rc><c>S </c><c>   5</c></rc>
    <rc><c>S </c><c>   5</c></rc>
    <rc><c>S </c><c>   5</c></rc>
    <rc><c>S </c><c>   5</c></rc>
    <rc><c>S </c><c>   5</c></rc>
    <rc><c>S </c><c>   5</c></rc>
    <rc><c>S </c><c>   5</c></rc>
    <rc><c>S </c><c>   5</c></rc>
    <rc><c>S </c><c>   5</c></rc>
    <rc><c>S </c><c>   5</c></rc>
    <rc><c>S </c><c>   5</c></rc>
    <rc><c>S </c><c>   5</c></rc>
    <rc><c>S </c><c>   5</c></rc>
    <rc><c>S </c><c>   5</c></rc>
    <rc><c>S </c><c>   5</c></rc>
    <rc><c>S </c><c>   5</c></rc>
    <rc><c>S </c><c>   5</c></rc>
    <rc><c>S </c><c>   5</c></rc>
    <rc><c>S </c><c>   5</c></rc>
    <rc><c>S </c><c>   5</c></rc>
    <rc><c>S </c><c>   5</c></rc>
    <rc><c>S </c><c>   5</c></rc>
    <rc><c>S </c><c>   5</c></rc>
    <rc><c>S </c><c>   5</c></rc>
    <rc><c>S </c><c>   5</c></rc>
    <rc><c>S </c><c>   5</c></rc>
    <rc><c>S </c><c>   5</c></rc>
    <rc><c>S </c><c>   5</c></rc>
    <rc><c>S </c><c>   5</c></rc>
    <rc><c>S </c><c>   5</c></rc>
    <rc><c>S </c><c>   5</c></rc>
    <rc><c>S </c><c>   5</c></rc>
    <rc><c>S </c><c>   5</c></rc>
    <rc><c>S </c><c>   5</c></rc>
    <rc><c>S </c><c>   5</c></rc>
    <rc><c>S </c><c>   5</c></rc>
    <rc><c>S </c><c>   5</c></rc>
    <rc><c>S </c><c>   5</c></rc>
    <rc><c>S </c><c>   5</c></rc>
    <rc><c>S </c><c>   5</c></rc>
    <rc><c>S </c><c>   5</c></rc>
    <rc><c>S </c><c>   5</c></rc>
    <rc><c>S </c><c>   5</c></rc>
    <rc><c>S </c><c>   5</c></rc>
    <rc><c>S </c><c>   5</c></rc>
    <rc><c>S </c><c>   5</c></rc>
    <rc><c>S </c><c>   5</c></rc>
    <rc><c>S </c><c>   5</c></rc>
    <rc><c>S </c><c>   5</c></rc>
    <rc><c>S </c><c>   5</c></rc>
    <rc><c>S </c><c>   5</c></rc>
    <rc><c>S </c><c>   5</c></rc>
    <rc><c>S </c><c>   5</c></rc>
    <rc><c>S </c><c>   5</c></rc>
    <rc><c>S </c><c>   5</c></rc>
    <rc><c>S </c><c>   5</c></rc>
    <rc><c>S </c><c>   5</c></rc>
    <rc><c>S </c><c>   5</c></rc>
    <rc><c>S </c><c>   5</c></rc>
    <rc><c>S </c><c>   5</c></rc>
    <rc><c>S </c><c>   5</c></rc>
    <rc><c>S </c><c>   5</c></rc>
    <rc><c>S </c><c>   5</c></rc>
    <rc><c>S </c><c>   5</c></rc>
    <rc><c>S </c><c>   5</c></rc>
    <rc><c>S </c><c>   5</c></rc>
    <rc><c>S </c><c>   5</c></rc>
    <rc><c>S </c><c>   5</c></rc>
    <rc><c>S </c><c>   5</c></rc>
    <rc><c>S </c><c>   5</c></rc>
    <rc><c>S </c><c>   5</c></rc>
    <rc><c>S </c><c>   5</c></rc>
    <rc><c>S </c><c>   5</c></rc>
    <rc><c>S </c><c>   5</c></rc>
    <rc><c>S </c><c>   5</c></rc>
    <rc><c>S </c><c>   5</c></rc>
    <rc><c>S </c><c>   5</c></rc>
    <rc><c>S </c><c>   5</c></rc>
    <rc><c>S </c><c>   5</c></rc>
    <rc><c>S </c><c>   5</c></rc>
    <rc><c>S </c><c>   5</c></rc>
    <rc><c>S </c><c>   5</c></rc>
    <rc><c>S </c><c>   5</c></rc>
    <rc><c>S </c><c>   5</c></rc>
    <rc><c>S </c><c>   5</c></rc>
    <rc><c>S </c><c>   5</c></rc>
    <rc><c>S </c><c>   5</c></rc>
    <rc><c>S </c><c>   5</c></rc>
   </set>
  </array>
  <array name="atomtypes" >
   <dimension dim="1">type</dimension>
   <field type="int">atomspertype</field>
   <field type="string">element</field>
   <field>mass</field>
   <field>valence</field>
   <field type="string">pseudopotential</field>
   <set>
    <rc><c>  10</c><c>C </c><c>     12.01100000</c><c>      4.00000000</c><c>  PAW_PBE C 08Apr2002                   </c></rc>
    <rc><c>   1</c><c>Cr</c><c>     51.99600000</c><c>      6.00000000</c><c>  PAW_PBE Cr 06Sep2000                  </c></rc>
    <rc><c>  10</c><c>H </c><c>      1.00000000</c><c>      1.00000000</c><c>  PAW_PBE H 15Jun2001                   </c></rc>
    <rc><c>  50</c><c>Mo</c><c>     95.94000000</c><c>      6.00000000</c><c>  PAW_PBE Mo 08Apr2002                  </c></rc>
    <rc><c> 100</c><c>S </c><c>     32.06600000</c><c>      6.00000000</c><c>  PAW_PBE S 06Sep2000                   </c></rc>
   </set>
  </array>
 </atominfo>
 <structure name="initialpos" >
  <crystal>
   <varray name="basis" >
    <v>      15.90000000       0.00000000       0.00000000 </v>
    <v>      -7.95000000      13.76980392       0.00000000 </v>
    <v>       0.00000000       0.00000000      32.38000000 </v>
   </varray>
   <i name="volume">   7089.27338987 </i>
   <varray name="rec_basis" >
    <v>       0.06289308       0.03631134       0.00000000 </v>
    <v>       0.00000000       0.07262268       0.00000000 </v>
    <v>       0.00000000       0.00000000       0.03088326 </v>
   </varray>
  </crystal>
  <varray name="positions" >
   <v>       0.45125804       0.42960378       0.50658859 </v>
   <v>       0.49354424       0.52449021       0.48941099 </v>
   <v>       0.50530841       0.38545764       0.49271820 </v>
   <v>       0.58271125       0.45398087       0.46660076 </v>
   <v>       0.57491983       0.54059489       0.46457359 </v>
   <v>       0.33241934       0.41058899       0.40497647 </v>
   <v>       0.45776495       0.39930938       0.37336863 </v>
   <v>       0.42153176       0.46428162       0.38184597 </v>
   <v>       0.39186235       0.30705447       0.39083205 </v>
   <v>       0.31506644       0.31353856       0.41034032 </v>
   <v>       0.45098820       0.42106497       0.43863525 </v>
   <v>       0.62297940       0.60675895       0.44778358 </v>
   <v>       0.45391487       0.53927417       0.37165048 </v>
   <v>       0.28560244       0.43783289       0.41560230 </v>
   <v>       0.52454712       0.41759907       0.35705550 </v>
   <v>       0.40152657       0.24395114       0.39117611 </v>
   <v>       0.46651299       0.57476779       0.49327034 </v>
   <v>       0.38586588       0.39492263       0.52543042 </v>
   <v>       0.49000776       0.31253120       0.50037112 </v>
   <v>       0.63856549       0.44349699       0.45219031 </v>
   <v>       0.25510547       0.25547923       0.42734137 </v>
   <v>       0.60000000       0.60000000       0.65735022 </v>
   <v>       0.20000000       0.80000000       0.21911674 </v>
   <v>       0.20000000       0.60000000       0.65735022 </v>
   <v>       0.60000000       0.80000000       0.21911674 </v>
   <v>       0.20000000       0.60000000       0.21911674 </v>
   <v>       0.60000000       0.80000000       0.65735022 </v>
   <v>       0.20000000       0.40000000       0.21911674 </v>
   <v>       0.80000000       0.00000000       0.21911674 </v>
   <v>       0.20000000       0.20000000       0.65735022 </v>
   <v>       0.80000000       0.00000000       0.65735022 </v>
   <v>       0.20000000       0.20000000       0.21911674 </v>
   <v>       0.20000000       0.80000000       0.65735022 </v>
   <v>       0.20000000       0.40000000       0.65735022 </v>
   <v>       0.60000000       0.60000000       0.21911674 </v>
   <v>       0.40000000       0.60000000       0.21911674 </v>
   <v>       0.40000000       0.00000000       0.65735022 </v>
   <v>       0.60000000       0.40000000       0.65735022 </v>
   <v>       0.40000000       0.20000000       0.21911674 </v>
   <v>       0.60000000       0.40000000       0.21911674 </v>
   <v>       0.40000000       0.20000000       0.65735022 </v>
   <v>       0.40000000       0.40000000       0.21911674 </v>
   <v>       0.60000000       0.20000000       0.65735022 </v>
   <v>       0.40000000       0.40000000       0.65735022 </v>
   <v>       0.60000000       0.20000000       0.21911674 </v>
   <v>       0.40000000       0.80000000       0.65735022 </v>
   <v>       0.40000000       0.60000000       0.65735022 </v>
   <v>       0.60000000       0.00000000       0.65735022 </v>
   <v>       0.40000000       0.80000000       0.21911674 </v>
   <v>       0.60000000       0.00000000       0.21911674 </v>
   <v>       0.40000000       0.00000000       0.21911674 </v>
   <v>       0.80000000       0.20000000       0.21911674 </v>
   <v>       0.20000000       0.00000000       0.65735022 </v>
   <v>       0.20000000       0.00000000       0.21911674 </v>
   <v>       0.00000000       0.00000000       0.21911674 </v>
   <v>       0.80000000       0.80000000       0.65735022 </v>
   <v>       0.00000000       0.00000000       0.65735022 </v>
   <v>       0.80000000       0.80000000       0.21911674 </v>
   <v>       0.00000000       0.20000000       0.21911674 </v>
   <v>       0.00000000       0.20000000       0.65735022 </v>
   <v>       0.80000000       0.60000000       0.65735022 </v>
   <v>       0.00000000       0.40000000       0.21911674 </v>
   <v>       0.00000000       0.40000000       0.65735022 </v>
   <v>       0.00000000       0.60000000       0.21911674 </v>
   <v>       0.80000000       0.40000000       0.65735022 </v>
   <v>       0.00000000       0.60000000       0.65735022 </v>
   <v>       0.80000000       0.60000000       0.21911674 </v>
   <v>       0.80000000       0.40000000       0.21911674 </v>
   <v>       0.00000000       0.80000000       0.65735022 </v>
   <v>       0.00000000       0.80000000       0.21911674 </v>
   <v>       0.80000000       0.20000000       0.65735022 </v>
   <v>       0.93333333       0.06666667       0.16985794 </v>
   <v>       0.73333333       0.26666667       0.60809141 </v>
   <v>       0.73333333       0.26666667       0.70660902 </v>
   <v>       0.93333333       0.66666667       0.70660902 </v>
   <v>       0.93333333       0.66666667       0.60809141 </v>
   <v>       0.73333333       0.26666667       0.16985794 </v>
   <v>       0.73333333       0.26666667       0.26837554 </v>
   <v>       0.93333333       0.46666667       0.26837554 </v>
   <v>       0.73333333       0.06666667       0.60809141 </v>
   <v>       0.73333333       0.06666667       0.70660902 </v>
   <v>       0.93333333       0.06666667       0.70660902 </v>
   <v>       0.93333333       0.86666667       0.16985794 </v>
   <v>       0.73333333       0.06666667       0.16985794 </v>
   <v>       0.93333333       0.06666667       0.60809141 </v>
   <v>       0.73333333       0.06666667       0.26837554 </v>
   <v>       0.93333333       0.26666667       0.16985794 </v>
   <v>       0.93333333       0.26666667       0.70660902 </v>
   <v>       0.93333333       0.86666667       0.26837554 </v>
   <v>       0.73333333       0.46666667       0.26837554 </v>
   <v>       0.73333333       0.46666667       0.16985794 </v>
   <v>       0.73333333       0.86666667       0.16985794 </v>
   <v>       0.73333333       0.86666667       0.70660902 </v>
   <v>       0.73333333       0.86666667       0.26837554 </v>
   <v>       0.93333333       0.46666667       0.16985794 </v>
   <v>       0.73333333       0.86666667       0.60809141 </v>
   <v>       0.73333333       0.66666667       0.60809141 </v>
   <v>       0.73333333       0.66666667       0.70660902 </v>
   <v>       0.93333333       0.46666667       0.70660902 </v>
   <v>       0.73333333       0.66666667       0.16985794 </v>
   <v>       0.93333333       0.46666667       0.60809141 </v>
   <v>       0.73333333       0.66666667       0.26837554 </v>
   <v>       0.93333333       0.26666667       0.60809141 </v>
   <v>       0.93333333       0.26666667       0.26837554 </v>
   <v>       0.73333333       0.46666667       0.60809141 </v>
   <v>       0.73333333       0.46666667       0.70660902 </v>
   <v>       0.93333333       0.66666667       0.26837554 </v>
   <v>       0.93333333       0.06666667       0.26837554 </v>
   <v>       0.93333333       0.66666667       0.16985794 </v>
   <v>       0.53333333       0.86666667       0.60809141 </v>
   <v>       0.53333333       0.06666667       0.70660902 </v>
   <v>       0.53333333       0.86666667       0.16985794 </v>
   <v>       0.33333333       0.26666667       0.16985794 </v>
   <v>       0.33333333       0.26666667       0.26837554 </v>
   <v>       0.33333333       0.06666667       0.60809141 </v>
   <v>       0.33333333       0.06666667       0.70660902 </v>
   <v>       0.33333333       0.06666667       0.16985794 </v>
   <v>       0.33333333       0.06666667       0.26837554 </v>
   <v>       0.13333333       0.86666667       0.60809141 </v>
   <v>       0.13333333       0.86666667       0.70660902 </v>
   <v>       0.13333333       0.86666667       0.16985794 </v>
   <v>       0.13333333       0.86666667       0.26837554 </v>
   <v>       0.13333333       0.66666667       0.60809141 </v>
   <v>       0.13333333       0.66666667       0.70660902 </v>
   <v>       0.33333333       0.26666667       0.70660902 </v>
   <v>       0.13333333       0.66666667       0.16985794 </v>
   <v>       0.13333333       0.46666667       0.60809141 </v>
   <v>       0.13333333       0.46666667       0.70660902 </v>
   <v>       0.13333333       0.46666667       0.16985794 </v>
   <v>       0.13333333       0.46666667       0.26837554 </v>
   <v>       0.13333333       0.26666667       0.60809141 </v>
   <v>       0.13333333       0.26666667       0.70660902 </v>
   <v>       0.13333333       0.26666667       0.16985794 </v>
   <v>       0.13333333       0.26666667       0.26837554 </v>
   <v>       0.13333333       0.06666667       0.60809141 </v>
   <v>       0.13333333       0.06666667       0.70660902 </v>
   <v>       0.13333333       0.06666667       0.16985794 </v>
   <v>       0.13333333       0.06666667       0.26837554 </v>
   <v>       0.13333333       0.66666667       0.26837554 </v>
   <v>       0.33333333       0.26666667       0.60809141 </v>
   <v>       0.33333333       0.46666667       0.26837554 </v>
   <v>       0.33333333       0.46666667       0.16985794 </v>
   <v>       0.53333333       0.86666667       0.26837554 </v>
   <v>       0.53333333       0.66666667       0.60809141 </v>
   <v>       0.53333333       0.66666667       0.70660902 </v>
   <v>       0.53333333       0.66666667       0.16985794 </v>
   <v>       0.53333333       0.66666667       0.26837554 </v>
   <v>       0.53333333       0.46666667       0.60809141 </v>
   <v>       0.53333333       0.46666667       0.70660902 </v>
   <v>       0.53333333       0.46666667       0.16985794 </v>
   <v>       0.53333333       0.46666667       0.26837554 </v>
   <v>       0.53333333       0.26666667       0.60809141 </v>
   <v>       0.53333333       0.26666667       0.70660902 </v>
   <v>       0.53333333       0.26666667       0.16985794 </v>
   <v>       0.53333333       0.26666667       0.26837554 </v>
   <v>       0.53333333       0.06666667       0.60809141 </v>
   <v>       0.93333333       0.86666667       0.70660902 </v>
   <v>       0.53333333       0.06666667       0.16985794 </v>
   <v>       0.53333333       0.06666667       0.26837554 </v>
   <v>       0.33333333       0.86666667       0.60809141 </v>
   <v>       0.33333333       0.86666667       0.70660902 </v>
   <v>       0.33333333       0.86666667       0.16985794 </v>
   <v>       0.33333333       0.86666667       0.26837554 </v>
   <v>       0.33333333       0.66666667       0.60809141 </v>
   <v>       0.33333333       0.66666667       0.70660902 </v>
   <v>       0.33333333       0.66666667       0.16985794 </v>
   <v>       0.33333333       0.66666667       0.26837554 </v>
   <v>       0.33333333       0.46666667       0.60809141 </v>
   <v>       0.33333333       0.46666667       0.70660902 </v>
   <v>       0.53333333       0.86666667       0.70660902 </v>
   <v>       0.93333333       0.86666667       0.60809141 </v>
  </varray>
  <varray name="selective"  type="logical" >
   <v type="logical" >  T  T  F </v>
   <v type="logical" >  T  T  F </v>
   <v type="logical" >  T  T  F </v>
   <v type="logical" >  T  T  F </v>
   <v type="logical" >  T  T  F </v>
   <v type="logical" >  T  T  F </v>
   <v type="logical" >  T  T  F </v>
   <v type="logical" >  T  T  F </v>
   <v type="logical" >  T  T  F </v>
   <v type="logical" >  T  T  F </v>
   <v type="logical" >  T  T  F </v>
   <v type="logical" >  T  T  F </v>
   <v type="logical" >  T  T  F </v>
   <v type="logical" >  T  T  F </v>
   <v type="logical" >  T  T  F </v>
   <v type="logical" >  T  T  F </v>
   <v type="logical" >  T  T  F </v>
   <v type="logical" >  T  T  F </v>
   <v type="logical" >  T  T  F </v>
   <v type="logical" >  T  T  F </v>
   <v type="logical" >  T  T  F </v>
   <v type="logical" >  T  T  F </v>
   <v type="logical" >  F  F  F </v>
   <v type="logical" >  T  T  F </v>
   <v type="logical" >  F  F  F </v>
   <v type="logical" >  F  F  F </v>
   <v type="logical" >  T  T  F </v>
   <v type="logical" >  F  F  F </v>
   <v type="logical" >  F  F  F </v>
   <v type="logical" >  T  T  F </v>
   <v type="logical" >  T  T  F </v>
   <v type="logical" >  F  F  F </v>
   <v type="logical" >  T  T  F </v>
   <v type="logical" >  T  T  F </v>
   <v type="logical" >  F  F  F </v>
   <v type="logical" >  F  F  F </v>
   <v type="logical" >  T  T  F </v>
   <v type="logical" >  T  T  F </v>
   <v type="logical" >  F  F  F </v>
   <v type="logical" >  F  F  F </v>
   <v type="logical" >  T  T  F </v>
   <v type="logical" >  F  F  F </v>
   <v type="logical" >  T  T  F </v>
   <v type="logical" >  T  T  F </v>
   <v type="logical" >  F  F  F </v>
   <v type="logical" >  T  T  F </v>
   <v type="logical" >  T  T  F </v>
   <v type="logical" >  T  T  F </v>
   <v type="logical" >  F  F  F </v>
   <v type="logical" >  F  F  F </v>
   <v type="logical" >  F  F  F </v>
   <v type="logical" >  F  F  F </v>
   <v type="logical" >  T  T  F </v>
   <v type="logical" >  F  F  F </v>
   <v type="logical" >  F  F  F </v>
   <v type="logical" >  T  T  F </v>
   <v type="logical" >  T  T  F </v>
   <v type="logical" >  F  F  F </v>
   <v type="logical" >  F  F  F </v>
   <v type="logical" >  T  T  F </v>
   <v type="logical" >  T  T  F </v>
   <v type="logical" >  F  F  F </v>
   <v type="logical" >  T  T  F </v>
   <v type="logical" >  F  F  F </v>
   <v type="logical" >  T  T  F </v>
   <v type="logical" >  T  T  F </v>
   <v type="logical" >  F  F  F </v>
   <v type="logical" >  F  F  F </v>
   <v type="logical" >  T  T  F </v>
   <v type="logical" >  F  F  F </v>
   <v type="logical" >  T  T  F </v>
   <v type="logical" >  F  F  F </v>
   <v type="logical" >  T  T  F </v>
   <v type="logical" >  T  T  F </v>
   <v type="logical" >  T  T  F </v>
   <v type="logical" >  T  T  F </v>
   <v type="logical" >  F  F  F </v>
   <v type="logical" >  F  F  F </v>
   <v type="logical" >  F  F  F </v>
   <v type="logical" >  T  T  F </v>
   <v type="logical" >  T  T  F </v>
   <v type="logical" >  T  T  F </v>
   <v type="logical" >  F  F  F </v>
   <v type="logical" >  F  F  F </v>
   <v type="logical" >  T  T  F </v>
   <v type="logical" >  F  F  F </v>
   <v type="logical" >  F  F  F </v>
   <v type="logical" >  T  T  F </v>
   <v type="logical" >  F  F  F </v>
   <v type="logical" >  F  F  F </v>
   <v type="logical" >  F  F  F </v>
   <v type="logical" >  F  F  F </v>
   <v type="logical" >  T  T  F </v>
   <v type="logical" >  F  F  F </v>
   <v type="logical" >  F  F  F </v>
   <v type="logical" >  T  T  F </v>
   <v type="logical" >  T  T  F </v>
   <v type="logical" >  T  T  F </v>
   <v type="logical" >  T  T  F </v>
   <v type="logical" >  F  F  F </v>
   <v type="logical" >  T  T  F </v>
   <v type="logical" >  F  F  F </v>
   <v type="logical" >  T  T  F </v>
   <v type="logical" >  F  F  F </v>
   <v type="logical" >  T  T  F </v>
   <v type="logical" >  T  T  F </v>
   <v type="logical" >  F  F  F </v>
   <v type="logical" >  F  F  F </v>
   <v type="logical" >  F  F  F </v>
   <v type="logical" >  T  T  F </v>
   <v type="logical" >  T  T  F </v>
   <v type="logical" >  F  F  F </v>
   <v type="logical" >  F  F  F </v>
   <v type="logical" >  F  F  F </v>
   <v type="logical" >  T  T  F </v>
   <v type="logical" >  T  T  F </v>
   <v type="logical" >  F  F  F </v>
   <v type="logical" >  F  F  F </v>
   <v type="logical" >  T  T  F </v>
   <v type="logical" >  T  T  F </v>
   <v type="logical" >  F  F  F </v>
   <v type="logical" >  F  F  F </v>
   <v type="logical" >  T  T  F </v>
   <v type="logical" >  T  T  F </v>
   <v type="logical" >  T  T  F </v>
   <v type="logical" >  F  F  F </v>
   <v type="logical" >  T  T  F </v>
   <v type="logical" >  T  T  F </v>
   <v type="logical" >  F  F  F </v>
   <v type="logical" >  F  F  F </v>
   <v type="logical" >  T  T  F </v>
   <v type="logical" >  T  T  F </v>
   <v type="logical" >  F  F  F </v>
   <v type="logical" >  F  F  F </v>
   <v type="logical" >  T  T  F </v>
   <v type="logical" >  T  T  F </v>
   <v type="logical" >  F  F  F </v>
   <v type="logical" >  F  F  F </v>
   <v type="logical" >  F  F  F </v>
   <v type="logical" >  T  T  F </v>
   <v type="logical" >  F  F  F </v>
   <v type="logical" >  F  F  F </v>
   <v type="logical" >  F  F  F </v>
   <v type="logical" >  T  T  F </v>
   <v type="logical" >  T  T  F </v>
   <v type="logical" >  F  F  F </v>
   <v type="logical" >  F  F  F </v>
   <v type="logical" >  T  T  F </v>
   <v type="logical" >  T  T  F </v>
   <v type="logical" >  F  F  F </v>
   <v type="logical" >  F  F  F </v>
   <v type="logical" >  T  T  F </v>
   <v type="logical" >  T  T  F </v>
   <v type="logical" >  F  F  F </v>
   <v type="logical" >  F  F  F </v>
   <v type="logical" >  T  T  F </v>
   <v type="logical" >  T  T  F </v>
   <v type="logical" >  F  F  F </v>
   <v type="logical" >  F  F  F </v>
   <v type="logical" >  T  T  F </v>
   <v type="logical" >  T  T  F </v>
   <v type="logical" >  F  F  F </v>
   <v type="logical" >  F  F  F </v>
   <v type="logical" >  T  T  F </v>
   <v type="logical" >  T  T  F </v>
   <v type="logical" >  F  F  F </v>
   <v type="logical" >  F  F  F </v>
   <v type="logical" >  T  T  F </v>
   <v type="logical" >  T  T  F </v>
   <v type="logical" >  T  T  F </v>
   <v type="logical" >  T  T  F </v>
  </varray>
  <nose>
   <v>      -3.00000000       0.00000000       0.00010000       0.00010000 </v>
  </nose>
 </structure>
 <calculation>
  <scstep>
   <time name="dav">   11.24   11.39</time>
   <time name="total">   11.64   12.12</time>
   <energy>
    <i name="alphaZ">   1150.89500911 </i>
    <i name="ewald">  87653.65269597 </i>
    <i name="hartreedc">-125626.99329795 </i>
    <i name="XCdc">  -1684.38354555 </i>
    <i name="pawpsdc">  36411.78182824 </i>
    <i name="pawaedc"> -32520.45026120 </i>
    <i name="eentropy">     -0.34864501 </i>
    <i name="bandstr">   1837.41852773 </i>
    <i name="atom">  40430.53995508 </i>
    <i name="e_fr_energy">   7652.11226641 </i>
    <i name="e_wo_entrp">   7652.46091143 </i>
    <i name="e_0_energy">   7652.28658892 </i>
   </energy>
  </scstep>
  <scstep>
   <time name="dav">   13.54   13.76</time>
   <time name="total">   13.55   13.76</time>
   <energy>
    <i name="e_fr_energy">   -263.91234467 </i>
    <i name="e_wo_entrp">   -263.82947966 </i>
    <i name="e_0_energy">   -263.87091217 </i>
   </energy>
  </scstep>
  <scstep>
   <time name="dav">   11.78   12.28</time>
   <time name="total">   11.79   12.28</time>
   <energy>
    <i name="e_fr_energy">  -1263.17118430 </i>
    <i name="e_wo_entrp">  -1263.17118412 </i>
    <i name="e_0_energy">  -1263.17118421 </i>
   </energy>
  </scstep>
  <scstep>
   <time name="dav">   14.80   15.95</time>
   <time name="total">   14.80   15.95</time>
   <energy>
    <i name="e_fr_energy">  -1321.19470491 </i>
    <i name="e_wo_entrp">  -1321.19470491 </i>
    <i name="e_0_energy">  -1321.19470491 </i>
   </energy>
  </scstep>
  <scstep>
   <time name="dav">   14.53   15.26</time>
   <time name="total">   15.57   16.32</time>
   <energy>
    <i name="e_fr_energy">  -1323.09049339 </i>
    <i name="e_wo_entrp">  -1323.09049339 </i>
    <i name="e_0_energy">  -1323.09049339 </i>
   </energy>
  </scstep>
  <scstep>
   <time name="dav">   13.54   13.65</time>
   <time name="total">   14.99   15.21</time>
   <energy>
    <i name="e_fr_energy">  -1276.09540410 </i>
    <i name="e_wo_entrp">  -1275.94178213 </i>
    <i name="e_0_energy">  -1276.01859311 </i>
   </energy>
  </scstep>
  <scstep>
   <time name="dav">   14.95   15.07</time>
   <time name="total">   16.52   16.97</time>
   <energy>
    <i name="e_fr_energy">  -1296.05729965 </i>
    <i name="e_wo_entrp">  -1295.62729328 </i>
    <i name="e_0_energy">  -1295.84229647 </i>
   </energy>
  </scstep>
  <scstep>
   <time name="dav">   12.39   12.50</time>
   <time name="total">   14.15   14.95</time>
   <energy>
    <i name="e_fr_energy">  -1232.07940353 </i>
    <i name="e_wo_entrp">  -1231.86230819 </i>
    <i name="e_0_energy">  -1231.97085586 </i>
   </energy>
  </scstep>
  <scstep>
   <time name="dav">   14.90   15.04</time>
   <time name="total">   16.68   19.21</time>
   <energy>
    <i name="e_fr_energy">  -1240.55892329 </i>
    <i name="e_wo_entrp">  -1240.34701586 </i>
    <i name="e_0_energy">  -1240.45296958 </i>
   </energy>
  </scstep>
  <scstep>
   <time name="dav">   15.53   15.71</time>
   <time name="total">   17.12   17.82</time>
   <energy>
    <i name="e_fr_energy">  -1221.79155733 </i>
    <i name="e_wo_entrp">  -1221.63459642 </i>
    <i name="e_0_energy">  -1221.71307687 </i>
   </energy>
  </scstep>
  <scstep>
   <time name="dav">   14.62   14.76</time>
   <time name="total">   16.09   16.39</time>
   <energy>
    <i name="e_fr_energy">  -1224.66440895 </i>
    <i name="e_wo_entrp">  -1224.64944667 </i>
    <i name="e_0_energy">  -1224.65692781 </i>
   </energy>
  </scstep>
  <scstep>
   <time name="dav">   13.51   13.62</time>
   <time name="total">   15.07   15.55</time>
   <energy>
    <i name="e_fr_energy">  -1224.42529077 </i>
    <i name="e_wo_entrp">  -1224.32586079 </i>
    <i name="e_0_energy">  -1224.37557578 </i>
   </energy>
  </scstep>
  <scstep>
   <time name="dav">   13.88   14.07</time>
   <time name="total">   15.81   16.73</time>
   <energy>
    <i name="e_fr_energy">  -1225.03444110 </i>
    <i name="e_wo_entrp">  -1224.68303065 </i>
    <i name="e_0_energy">  -1224.85873587 </i>
   </energy>
  </scstep>
  <scstep>
   <time name="dav">   14.20   14.31</time>
   <time name="total">   15.93   16.57</time>
   <energy>
    <i name="e_fr_energy">  -1223.74383716 </i>
    <i name="e_wo_entrp">  -1223.68620588 </i>
    <i name="e_0_energy">  -1223.71502152 </i>
   </energy>
  </scstep>
  <scstep>
   <time name="dav">   14.93   15.06</time>
   <time name="total">   16.38   16.59</time>
   <energy>
    <i name="e_fr_energy">  -1226.26218116 </i>
    <i name="e_wo_entrp">  -1226.05253854 </i>
    <i name="e_0_energy">  -1226.15735985 </i>
   </energy>
  </scstep>
  <scstep>
   <time name="dav">   13.66   13.77</time>
   <time name="total">   15.10   15.50</time>
   <energy>
    <i name="e_fr_energy">  -1225.55033699 </i>
    <i name="e_wo_entrp">  -1225.33079616 </i>
    <i name="e_0_energy">  -1225.44056657 </i>
   </energy>
  </scstep>
  <scstep>
   <time name="dav">   13.56   13.69</time>
   <time name="total">   15.16   16.39</time>
   <energy>
    <i name="e_fr_energy">  -1227.72700351 </i>
    <i name="e_wo_entrp">  -1227.62693047 </i>
    <i name="e_0_energy">  -1227.67696699 </i>
   </energy>
  </scstep>
  <scstep>
   <time name="dav">   12.20   12.29</time>
   <time name="total">   13.96   14.54</time>
   <energy>
    <i name="e_fr_energy">  -1227.82533514 </i>
    <i name="e_wo_entrp">  -1227.72881992 </i>
    <i name="e_0_energy">  -1227.77707753 </i>
   </energy>
  </scstep>
  <scstep>
   <time name="dav">   14.31   14.43</time>
   <time name="total">   15.76   16.14</time>
   <energy>
    <i name="e_fr_energy">  -1227.39899534 </i>
    <i name="e_wo_entrp">  -1227.34079004 </i>
    <i name="e_0_energy">  -1227.36989269 </i>
   </energy>
  </scstep>
  <scstep>
   <time name="dav">   13.99   14.11</time>
   <time name="total">   15.44   15.76</time>
   <energy>
    <i name="e_fr_energy">  -1227.32268656 </i>
    <i name="e_wo_entrp">  -1227.29228981 </i>
    <i name="e_0_energy">  -1227.30748819 </i>
   </energy>
  </scstep>
  <scstep>
   <time name="dav">   14.35   14.47</time>
   <time name="total">   16.21   18.17</time>
   <energy>
    <i name="e_fr_energy">  -1227.04216598 </i>
    <i name="e_wo_entrp">  -1226.85393978 </i>
    <i name="e_0_energy">  -1226.94805288 </i>
   </energy>
  </scstep>
  <scstep>
   <time name="dav">   13.82   13.94</time>
   <time name="total">   15.36   16.21</time>
   <energy>
    <i name="e_fr_energy">  -1226.96636917 </i>
    <i name="e_wo_entrp">  -1226.74955589 </i>
    <i name="e_0_energy">  -1226.85796253 </i>
   </energy>
  </scstep>
  <scstep>
   <time name="dav">   13.48   13.60</time>
   <time name="total">   15.32   17.15</time>
   <energy>
    <i name="e_fr_energy">  -1226.71111449 </i>
    <i name="e_wo_entrp">  -1226.49399383 </i>
    <i name="e_0_energy">  -1226.60255416 </i>
   </energy>
  </scstep>
  <scstep>
   <time name="dav">   14.04   14.16</time>
   <time name="total">   15.97   16.52</time>
   <energy>
    <i name="e_fr_energy">  -1226.56415018 </i>
    <i name="e_wo_entrp">  -1226.33954401 </i>
    <i name="e_0_energy">  -1226.45184710 </i>
   </energy>
  </scstep>
  <scstep>
   <time name="dav">   13.87   13.98</time>
   <time name="total">   15.37   15.84</time>
   <energy>
    <i name="e_fr_energy">  -1226.12134167 </i>
    <i name="e_wo_entrp">  -1225.99647613 </i>
    <i name="e_0_energy">  -1226.05890890 </i>
   </energy>
  </scstep>
  <scstep>
   <time name="dav">   13.69   13.81</time>
   <time name="total">   15.20   15.63</time>
   <energy>
    <i name="e_fr_energy">  -1226.01584962 </i>
    <i name="e_wo_entrp">  -1225.80809600 </i>
    <i name="e_0_energy">  -1225.91197281 </i>
   </energy>
  </scstep>
  <scstep>
   <time name="dav">   14.11   14.23</time>
   <time name="total">   15.88   16.70</time>
   <energy>
    <i name="e_fr_energy">  -1225.96463603 </i>
    <i name="e_wo_entrp">  -1225.73907327 </i>
    <i name="e_0_energy">  -1225.85185465 </i>
   </energy>
  </scstep>
  <scstep>
   <time name="dav">   13.78   13.90</time>
   <time name="total">   15.30   15.97</time>
   <energy>
    <i name="e_fr_energy">  -1225.73180299 </i>
    <i name="e_wo_entrp">  -1225.58293213 </i>
    <i name="e_0_energy">  -1225.65736756 </i>
   </energy>
  </scstep>
  <scstep>
   <time name="dav">   13.39   13.53</time>
   <time name="total">   14.89   16.82</time>
   <energy>
    <i name="e_fr_energy">  -1225.65779171 </i>
    <i name="e_wo_entrp">  -1225.46954921 </i>
    <i name="e_0_energy">  -1225.56367046 </i>
   </energy>
  </scstep>
  <scstep>
   <time name="dav">   13.50   13.62</time>
   <time name="total">   15.38   15.93</time>
   <energy>
    <i name="e_fr_energy">  -1225.51134471 </i>
    <i name="e_wo_entrp">  -1225.27909387 </i>
    <i name="e_0_energy">  -1225.39521929 </i>
   </energy>
  </scstep>
  <scstep>
   <time name="dav">   13.33   13.44</time>
   <time name="total">   15.14   15.76</time>
   <energy>
    <i name="e_fr_energy">  -1225.20320014 </i>
    <i name="e_wo_entrp">  -1224.99114713 </i>
    <i name="e_0_energy">  -1225.09717364 </i>
   </energy>
  </scstep>
  <scstep>
   <time name="dav">   13.28   13.41</time>
   <time name="total">   14.90   15.70</time>
   <energy>
    <i name="e_fr_energy">  -1224.92027237 </i>
    <i name="e_wo_entrp">  -1224.74477815 </i>
    <i name="e_0_energy">  -1224.83252526 </i>
   </energy>
  </scstep>
  <scstep>
   <time name="dav">   13.64   13.76</time>
   <time name="total">   15.19   15.42</time>
   <energy>
    <i name="e_fr_energy">  -1224.72705017 </i>
    <i name="e_wo_entrp">  -1224.56826348 </i>
    <i name="e_0_energy">  -1224.64765682 </i>
   </energy>
  </scstep>
  <scstep>
   <time name="dav">   13.38   13.56</time>
   <time name="total">   14.90   15.67</time>
   <energy>
    <i name="e_fr_energy">  -1224.55949845 </i>
    <i name="e_wo_entrp">  -1224.38146778 </i>
    <i name="e_0_energy">  -1224.47048312 </i>
   </energy>
  </scstep>
  <scstep>
   <time name="dav">   13.26   13.40</time>
   <time name="total">   14.77   15.87</time>
   <energy>
    <i name="e_fr_energy">  -1224.41688794 </i>
    <i name="e_wo_entrp">  -1224.28589066 </i>
    <i name="e_0_energy">  -1224.35138930 </i>
   </energy>
  </scstep>
  <scstep>
   <time name="dav">   13.88   14.00</time>
   <time name="total">   15.40   16.98</time>
   <energy>
    <i name="e_fr_energy">  -1224.08733143 </i>
    <i name="e_wo_entrp">  -1223.93277703 </i>
    <i name="e_0_energy">  -1224.01005423 </i>
   </energy>
  </scstep>
  <scstep>
   <time name="dav">   14.24   14.35</time>
   <time name="total">   16.03   16.76</time>
   <energy>
    <i name="e_fr_energy">  -1223.90789277 </i>
    <i name="e_wo_entrp">  -1223.84226494 </i>
    <i name="e_0_energy">  -1223.87507885 </i>
   </energy>
  </scstep>
  <scstep>
   <time name="dav">   14.08   14.20</time>
   <time name="total">   15.60   16.24</time>
   <energy>
    <i name="e_fr_energy">  -1223.57948272 </i>
    <i name="e_wo_entrp">  -1223.45180191 </i>
    <i name="e_0_energy">  -1223.51564232 </i>
   </energy>
  </scstep>
  <scstep>
   <time name="dav">   13.64   13.75</time>
   <time name="total">   15.18   16.55</time>
   <energy>
    <i name="e_fr_energy">  -1223.59637299 </i>
    <i name="e_wo_entrp">  -1223.52625177 </i>
    <i name="e_0_energy">  -1223.56131238 </i>
   </energy>
  </scstep>
  <scstep>
   <time name="dav">   13.50   13.63</time>
   <time name="total">   15.04   15.30</time>
   <energy>
    <i name="e_fr_energy">  -1223.29278056 </i>
    <i name="e_wo_entrp">  -1223.11207963 </i>
    <i name="e_0_energy">  -1223.20243010 </i>
   </energy>
  </scstep>
  <scstep>
   <time name="dav">   12.05   12.16</time>
   <time name="total">   13.87   14.14</time>
   <energy>
    <i name="e_fr_energy">  -1223.38759428 </i>
    <i name="e_wo_entrp">  -1223.29482824 </i>
    <i name="e_0_energy">  -1223.34121126 </i>
   </energy>
  </scstep>
  <scstep>
   <time name="dav">   12.16   12.26</time>
   <time name="total">   13.95   14.43</time>
   <energy>
    <i name="e_fr_energy">  -1223.22018153 </i>
    <i name="e_wo_entrp">  -1223.05435142 </i>
    <i name="e_0_energy">  -1223.13726648 </i>
   </energy>
  </scstep>
  <scstep>
   <time name="dav">   11.51   11.61</time>
   <time name="total">   13.06   13.17</time>
   <energy>
    <i name="e_fr_energy">  -1223.37227030 </i>
    <i name="e_wo_entrp">  -1223.27411504 </i>
    <i name="e_0_energy">  -1223.32319267 </i>
   </energy>
  </scstep>
  <scstep>
   <time name="dav">   12.31   12.41</time>
   <time name="total">   13.86   15.89</time>
   <energy>
    <i name="e_fr_energy">  -1223.19168226 </i>
    <i name="e_wo_entrp">  -1222.99498088 </i>
    <i name="e_0_energy">  -1223.09333157 </i>
   </energy>
  </scstep>
  <scstep>
   <time name="dav">   11.39   11.49</time>
   <time name="total">   12.95   13.71</time>
   <energy>
    <i name="e_fr_energy">  -1223.31782491 </i>
    <i name="e_wo_entrp">  -1223.21566935 </i>
    <i name="e_0_energy">  -1223.26674713 </i>
   </energy>
  </scstep>
  <scstep>
   <time name="dav">   12.51   12.64</time>
   <time name="total">   14.08   14.26</time>
   <energy>
    <i name="e_fr_energy">  -1223.17550323 </i>
    <i name="e_wo_entrp">  -1222.93645910 </i>
    <i name="e_0_energy">  -1223.05598117 </i>
   </energy>
  </scstep>
  <scstep>
   <time name="dav">   11.65   11.75</time>
   <time name="total">   13.21   13.36</time>
   <energy>
    <i name="e_fr_energy">  -1223.23702901 </i>
    <i name="e_wo_entrp">  -1223.11391855 </i>
    <i name="e_0_energy">  -1223.17547378 </i>
   </energy>
  </scstep>
  <scstep>
   <time name="dav">   12.09   12.19</time>
   <time name="total">   13.66   13.78</time>
   <energy>
    <i name="e_fr_energy">  -1223.13549659 </i>
    <i name="e_wo_entrp">  -1222.89365399 </i>
    <i name="e_0_energy">  -1223.01457529 </i>
   </energy>
  </scstep>
  <scstep>
   <time name="dav">   12.57   12.67</time>
   <time name="total">   14.35   15.06</time>
   <energy>
    <i name="e_fr_energy">  -1223.15123789 </i>
    <i name="e_wo_entrp">  -1222.99765296 </i>
    <i name="e_0_energy">  -1223.07444543 </i>
   </energy>
  </scstep>
  <scstep>
   <time name="dav">   12.59   12.71</time>
   <time name="total">   14.15   14.86</time>
   <energy>
    <i name="e_fr_energy">  -1223.04405206 </i>
    <i name="e_wo_entrp">  -1222.83173498 </i>
    <i name="e_0_energy">  -1222.93789352 </i>
   </energy>
  </scstep>
  <scstep>
   <time name="dav">   14.11   14.23</time>
   <time name="total">   15.67   15.93</time>
   <energy>
    <i name="e_fr_energy">  -1223.08074388 </i>
    <i name="e_wo_entrp">  -1222.82342443 </i>
    <i name="e_0_energy">  -1222.95208416 </i>
   </energy>
  </scstep>
  <scstep>
   <time name="dav">   13.62   13.74</time>
   <time name="total">   15.19   15.40</time>
   <energy>
    <i name="e_fr_energy">  -1222.94846937 </i>
    <i name="e_wo_entrp">  -1222.77850892 </i>
    <i name="e_0_energy">  -1222.86348914 </i>
   </energy>
  </scstep>
  <scstep>
   <time name="dav">   13.39   13.50</time>
   <time name="total">   14.97   15.09</time>
   <energy>
    <i name="e_fr_energy">  -1223.01680901 </i>
    <i name="e_wo_entrp">  -1222.82398974 </i>
    <i name="e_0_energy">  -1222.92039938 </i>
   </energy>
  </scstep>
  <scstep>
   <time name="dav">   13.16   13.27</time>
   <time name="total">   14.73   15.42</time>
   <energy>
    <i name="e_fr_energy">  -1222.87434193 </i>
    <i name="e_wo_entrp">  -1222.61110241 </i>
    <i name="e_0_energy">  -1222.74272217 </i>
   </energy>
  </scstep>
  <scstep>
   <time name="dav">   11.08   11.18</time>
   <time name="total">   12.65   13.00</time>
   <energy>
    <i name="e_fr_energy">  -1222.94986568 </i>
    <i name="e_wo_entrp">  -1222.74605927 </i>
    <i name="e_0_energy">  -1222.84796248 </i>
   </energy>
  </scstep>
  <scstep>
   <time name="dav">   13.50   13.62</time>
   <time name="total">   15.06   15.20</time>
   <energy>
    <i name="e_fr_energy">  -1223.10949086 </i>
    <i name="e_wo_entrp">  -1222.80181904 </i>
    <i name="e_0_energy">  -1222.95565495 </i>
   </energy>
  </scstep>
  <scstep>
   <time name="dav">   12.95   13.06</time>
   <time name="total">   14.55   15.31</time>
   <energy>
    <i name="e_fr_energy">  -1223.10417009 </i>
    <i name="e_wo_entrp">  -1222.83950931 </i>
    <i name="e_0_energy">  -1222.97183970 </i>
   </energy>
  </scstep>
  <scstep>
   <time name="dav">   11.23   11.33</time>
   <time name="total">   12.80   12.91</time>
   <energy>
    <i name="e_fr_energy">  -1223.03508968 </i>
    <i name="e_wo_entrp">  -1222.75302755 </i>
    <i name="e_0_energy">  -1222.89405862 </i>
   </energy>
  </scstep>
  <scstep>
   <time name="dav">   11.10   11.20</time>
   <time name="total">   12.65   15.49</time>
   <energy>
    <i name="e_fr_energy">  -1223.06704453 </i>
    <i name="e_wo_entrp">  -1222.79839628 </i>
    <i name="e_0_energy">  -1222.93272040 </i>
   </energy>
  </scstep>
  <scstep>
   <time name="dav">   11.10   11.19</time>
   <time name="total">   12.66   13.14</time>
   <energy>
    <i name="e_fr_energy">  -1223.03378723 </i>
    <i name="e_wo_entrp">  -1222.74689648 </i>
    <i name="e_0_energy">  -1222.89034186 </i>
   </energy>
  </scstep>
  <scstep>
   <time name="dav">   13.82   13.94</time>
   <time name="total">   15.39   15.52</time>
   <energy>
    <i name="e_fr_energy">  -1222.95298289 </i>
    <i name="e_wo_entrp">  -1222.71189748 </i>
    <i name="e_0_energy">  -1222.83244019 </i>
   </energy>
  </scstep>
  <scstep>
   <time name="dav">   13.04   13.16</time>
   <time name="total">   14.60   14.79</time>
   <energy>
    <i name="e_fr_energy">  -1222.86714204 </i>
    <i name="e_wo_entrp">  -1222.71513189 </i>
    <i name="e_0_energy">  -1222.79113696 </i>
   </energy>
  </scstep>
  <scstep>
   <time name="dav">   12.17   12.28</time>
   <time name="total">   13.73   13.85</time>
   <energy>
    <i name="e_fr_energy">  -1222.85408825 </i>
    <i name="e_wo_entrp">  -1222.65627843 </i>
    <i name="e_0_energy">  -1222.75518334 </i>
   </energy>
  </scstep>
  <scstep>
   <time name="dav">   13.31   13.42</time>
   <time name="total">   14.88   15.22</time>
   <energy>
    <i name="e_fr_energy">  -1222.84188158 </i>
    <i name="e_wo_entrp">  -1222.63538826 </i>
    <i name="e_0_energy">  -1222.73863492 </i>
   </energy>
  </scstep>
  <scstep>
   <time name="dav">   11.68   11.78</time>
   <time name="total">   13.69   14.45</time>
   <energy>
    <i name="e_fr_energy">  -1222.83968186 </i>
    <i name="e_wo_entrp">  -1222.62308371 </i>
    <i name="e_0_energy">  -1222.73138279 </i>
   </energy>
  </scstep>
  <scstep>
   <time name="dav">   11.48   11.57</time>
   <time name="total">   13.05   13.15</time>
   <energy>
    <i name="e_fr_energy">  -1222.82320996 </i>
    <i name="e_wo_entrp">  -1222.62809713 </i>
    <i name="e_0_energy">  -1222.72565355 </i>
   </energy>
  </scstep>
  <scstep>
   <time name="dav">   10.50   10.59</time>
   <time name="total">   12.07   12.70</time>
   <energy>
    <i name="e_fr_energy">  -1222.82378310 </i>
    <i name="e_wo_entrp">  -1222.62733970 </i>
    <i name="e_0_energy">  -1222.72556140 </i>
   </energy>
  </scstep>
  <scstep>
   <time name="dav">    9.21    9.30</time>
   <time name="total">   10.77   10.87</time>
   <energy>
    <i name="e_fr_energy">  -1222.82247272 </i>
    <i name="e_wo_entrp">  -1222.62933146 </i>
    <i name="e_0_energy">  -1222.72590209 </i>
   </energy>
  </scstep>
  <scstep>
   <time name="dav">    7.81    7.88</time>
   <time name="total">    9.39    9.50</time>
   <energy>
    <i name="e_fr_energy">  -1222.82298125 </i>
    <i name="e_wo_entrp">  -1222.62798467 </i>
    <i name="e_0_energy">  -1222.72548296 </i>
   </energy>
  </scstep>
  <scstep>
   <time name="dav">    7.85    7.93</time>
   <time name="total">    9.44    9.65</time>
   <energy>
    <i name="e_fr_energy">  -1222.82015267 </i>
    <i name="e_wo_entrp">  -1222.62923090 </i>
    <i name="e_0_energy">  -1222.72469179 </i>
   </energy>
  </scstep>
  <scstep>
   <time name="dav">    7.69    7.76</time>
   <time name="total">    9.30    9.38</time>
   <energy>
    <i name="e_fr_energy">  -1222.81922512 </i>
    <i name="e_wo_entrp">  -1222.62594974 </i>
    <i name="e_0_energy">  -1222.72258743 </i>
   </energy>
  </scstep>
  <scstep>
   <time name="dav">    7.39    7.45</time>
   <time name="total">    8.94    9.91</time>
   <energy>
    <i name="e_fr_energy">  -1222.81867759 </i>
    <i name="e_wo_entrp">  -1222.62648476 </i>
    <i name="e_0_energy">  -1222.72258117 </i>
   </energy>
  </scstep>
  <scstep>
   <time name="dav">    7.71    7.78</time>
[...]
    <v>       0.60000000       0.60000000       0.21911674 </v>
    <v>       0.40000000       0.60000000       0.21911674 </v>
    <v>       0.40000000      -0.00000000       0.65735022 </v>
    <v>       0.60000000       0.40000000       0.65735022 </v>
    <v>       0.40000000       0.20000000       0.21911674 </v>
    <v>       0.60000000       0.40000000       0.21911674 </v>
    <v>       0.40000000       0.20000000       0.65735022 </v>
    <v>       0.40000000       0.40000000       0.21911674 </v>
    <v>       0.60000000       0.20000000       0.65735022 </v>
    <v>       0.40000000       0.40000000       0.65735022 </v>
    <v>       0.60000000       0.20000000       0.21911674 </v>
    <v>       0.40000000       0.80000000       0.65735022 </v>
    <v>       0.40000000       0.60000000       0.65735022 </v>
    <v>       0.60000000       0.00000000       0.65735022 </v>
    <v>       0.40000000       0.80000000       0.21911674 </v>
    <v>       0.60000000       0.00000000       0.21911674 </v>
    <v>       0.40000000       0.00000000       0.21911674 </v>
    <v>       0.80000000       0.20000000       0.21911674 </v>
    <v>       0.20000000       0.00000000       0.65735022 </v>
    <v>       0.20000000       0.00000000       0.21911674 </v>
    <v>       0.00000000       0.00000000       0.21911674 </v>
    <v>       0.80000000       0.80000000       0.65735022 </v>
    <v>       0.00000000       0.00000000       0.65735022 </v>
    <v>       0.80000000       0.80000000       0.21911674 </v>
    <v>       0.00000000       0.20000000       0.21911674 </v>
    <v>      -0.00000000       0.20000000       0.65735022 </v>
    <v>       0.80000000       0.60000000       0.65735022 </v>
    <v>       0.00000000       0.40000000       0.21911674 </v>
    <v>      -0.00000000       0.40000000       0.65735022 </v>
    <v>       0.00000000       0.60000000       0.21911674 </v>
    <v>       0.80000000       0.40000000       0.65735022 </v>
    <v>      -0.00000000       0.60000000       0.65735022 </v>
    <v>       0.80000000       0.60000000       0.21911674 </v>
    <v>       0.80000000       0.40000000       0.21911674 </v>
    <v>      -0.00000000       0.80000000       0.65735022 </v>
    <v>       0.00000000       0.80000000       0.21911674 </v>
    <v>       0.80000000       0.20000000       0.65735022 </v>
    <v>       0.93333333       0.06666667       0.16985794 </v>
    <v>       0.73333333       0.26666667       0.60809141 </v>
    <v>       0.73333333       0.26666667       0.70660902 </v>
    <v>       0.93333333       0.66666667       0.70660902 </v>
    <v>       0.93333333       0.66666667       0.60809141 </v>
    <v>       0.73333333       0.26666667       0.16985794 </v>
    <v>       0.73333333       0.26666667       0.26837554 </v>
    <v>       0.93333333       0.46666667       0.26837554 </v>
    <v>       0.73333333       0.06666667       0.60809141 </v>
    <v>       0.73333333       0.06666667       0.70660902 </v>
    <v>       0.93333333       0.06666667       0.70660902 </v>
    <v>       0.93333333       0.86666667       0.16985794 </v>
    <v>       0.73333333       0.06666667       0.16985794 </v>
    <v>       0.93333333       0.06666667       0.60809141 </v>
    <v>       0.73333333       0.06666667       0.26837554 </v>
    <v>       0.93333333       0.26666667       0.16985794 </v>
    <v>       0.93333333       0.26666667       0.70660902 </v>
    <v>       0.93333333       0.86666667       0.26837554 </v>
    <v>       0.73333333       0.46666667       0.26837554 </v>
    <v>       0.73333333       0.46666667       0.16985794 </v>
    <v>       0.73333333       0.86666667       0.16985794 </v>
    <v>       0.73333333       0.86666667       0.70660902 </v>
    <v>       0.73333333       0.86666667       0.26837554 </v>
    <v>       0.93333333       0.46666667       0.16985794 </v>
    <v>       0.73333333       0.86666667       0.60809141 </v>
    <v>       0.73333333       0.66666667       0.60809141 </v>
    <v>       0.73333333       0.66666667       0.70660902 </v>
    <v>       0.93333333       0.46666667       0.70660902 </v>
    <v>       0.73333333       0.66666667       0.16985794 </v>
    <v>       0.93333333       0.46666667       0.60809141 </v>
    <v>       0.73333333       0.66666667       0.26837554 </v>
    <v>       0.93333333       0.26666667       0.60809141 </v>
    <v>       0.93333333       0.26666667       0.26837554 </v>
    <v>       0.73333333       0.46666667       0.60809141 </v>
    <v>       0.73333333       0.46666667       0.70660902 </v>
    <v>       0.93333333       0.66666667       0.26837554 </v>
    <v>       0.93333333       0.06666667       0.26837554 </v>
    <v>       0.93333333       0.66666667       0.16985794 </v>
    <v>       0.53333333       0.86666667       0.60809141 </v>
    <v>       0.53333333       0.06666667       0.70660902 </v>
    <v>       0.53333333       0.86666667       0.16985794 </v>
    <v>       0.33333333       0.26666667       0.16985794 </v>
    <v>       0.33333333       0.26666667       0.26837554 </v>
    <v>       0.33333333       0.06666667       0.60809141 </v>
    <v>       0.33333333       0.06666667       0.70660902 </v>
    <v>       0.33333333       0.06666667       0.16985794 </v>
    <v>       0.33333333       0.06666667       0.26837554 </v>
    <v>       0.13333333       0.86666667       0.60809141 </v>
    <v>       0.13333333       0.86666667       0.70660902 </v>
    <v>       0.13333333       0.86666667       0.16985794 </v>
    <v>       0.13333333       0.86666667       0.26837554 </v>
    <v>       0.13333333       0.66666667       0.60809141 </v>
    <v>       0.13333333       0.66666667       0.70660902 </v>
    <v>       0.33333333       0.26666667       0.70660902 </v>
    <v>       0.13333333       0.66666667       0.16985794 </v>
    <v>       0.13333333       0.46666667       0.60809141 </v>
    <v>       0.13333333       0.46666667       0.70660902 </v>
    <v>       0.13333333       0.46666667       0.16985794 </v>
    <v>       0.13333333       0.46666667       0.26837554 </v>
    <v>       0.13333333       0.26666667       0.60809141 </v>
    <v>       0.13333333       0.26666667       0.70660902 </v>
    <v>       0.13333333       0.26666667       0.16985794 </v>
    <v>       0.13333333       0.26666667       0.26837554 </v>
    <v>       0.13333333       0.06666667       0.60809141 </v>
    <v>       0.13333333       0.06666667       0.70660902 </v>
    <v>       0.13333333       0.06666667       0.16985794 </v>
    <v>       0.13333333       0.06666667       0.26837554 </v>
    <v>       0.13333333       0.66666667       0.26837554 </v>
    <v>       0.33333333       0.26666667       0.60809141 </v>
    <v>       0.33333333       0.46666667       0.26837554 </v>
    <v>       0.33333333       0.46666667       0.16985794 </v>
    <v>       0.53333333       0.86666667       0.26837554 </v>
    <v>       0.53333333       0.66666667       0.60809141 </v>
    <v>       0.53333333       0.66666667       0.70660902 </v>
    <v>       0.53333333       0.66666667       0.16985794 </v>
    <v>       0.53333333       0.66666667       0.26837554 </v>
    <v>       0.53333333       0.46666667       0.60809141 </v>
    <v>       0.53333333       0.46666667       0.70660902 </v>
    <v>       0.53333333       0.46666667       0.16985794 </v>
    <v>       0.53333333       0.46666667       0.26837554 </v>
    <v>       0.53333333       0.26666667       0.60809141 </v>
    <v>       0.53333333       0.26666667       0.70660902 </v>
    <v>       0.53333333       0.26666667       0.16985794 </v>
    <v>       0.53333333       0.26666667       0.26837554 </v>
    <v>       0.53333333       0.06666667       0.60809141 </v>
    <v>       0.93333333       0.86666667       0.70660902 </v>
    <v>       0.53333333       0.06666667       0.16985794 </v>
    <v>       0.53333333       0.06666667       0.26837554 </v>
    <v>       0.33333333       0.86666667       0.60809141 </v>
    <v>       0.33333333       0.86666667       0.70660902 </v>
    <v>       0.33333333       0.86666667       0.16985794 </v>
    <v>       0.33333333       0.86666667       0.26837554 </v>
    <v>       0.33333333       0.66666667       0.60809141 </v>
    <v>       0.33333333       0.66666667       0.70660902 </v>
    <v>       0.33333333       0.66666667       0.16985794 </v>
    <v>       0.33333333       0.66666667       0.26837554 </v>
    <v>       0.33333333       0.46666667       0.60809141 </v>
    <v>       0.33333333       0.46666667       0.70660902 </v>
    <v>       0.53333333       0.86666667       0.70660902 </v>
    <v>       0.93333333       0.86666667       0.60809141 </v>
   </varray>
  </structure>
  <varray name="forces" >
   <v>       0.02524860       0.01464301       0.00808338 </v>
   <v>       0.01375714      -0.01505736       0.02531583 </v>
   <v>      -0.00993316       0.01946503       0.01439172 </v>
   <v>      -0.00723024       0.00620754       0.03049738 </v>
   <v>      -0.00427078       0.00063542       0.02909620 </v>
   <v>       0.00796755      -0.01682553      -0.01478510 </v>
   <v>      -0.00214925      -0.04476182       0.01285168 </v>
   <v>       0.00969392      -0.01909386      -0.02155781 </v>
   <v>      -0.03046271      -0.00056420      -0.01198405 </v>
   <v>       0.00840656      -0.00556108      -0.05236055 </v>
   <v>      -0.00739875       0.01008242      -0.01516216 </v>
   <v>      -0.00714127      -0.00265738      -0.00178188 </v>
   <v>       0.00756558       0.01279090      -0.01304106 </v>
   <v>       0.00825545       0.00501163      -0.00107984 </v>
   <v>      -0.00119321      -0.00341565       0.00712013 </v>
   <v>      -0.01056272       0.00475650      -0.00976950 </v>
   <v>      -0.00712648       0.00030783       0.01518823 </v>
   <v>      -0.00741329      -0.01089798       0.01827133 </v>
   <v>       0.00461138      -0.00243241       0.01313262 </v>
   <v>      -0.00485490       0.00409932      -0.00456342 </v>
   <v>       0.00025554       0.01205357      -0.00449453 </v>
   <v>      -0.00105683      -0.00705242       0.00059987 </v>
   <v>      -0.00195166       0.00032576       0.00274626 </v>
   <v>       0.00206634       0.00100329      -0.00312296 </v>
   <v>       0.00156897       0.00668445       0.00101784 </v>
   <v>      -0.00037849      -0.00064763       0.00291828 </v>
   <v>      -0.00238101       0.00227987       0.00110830 </v>
   <v>       0.00253422       0.00011146       0.00126167 </v>
   <v>      -0.00060839      -0.00050426       0.00271871 </v>
   <v>      -0.00436521       0.00036098       0.00416115 </v>
   <v>      -0.00169596       0.00155102      -0.00017307 </v>
   <v>       0.00356881       0.00342888       0.00021100 </v>
   <v>       0.00036193       0.00082794      -0.00228667 </v>
   <v>      -0.00131741      -0.00523015       0.00383600 </v>
   <v>       0.00424343      -0.00861630      -0.00865440 </v>
   <v>      -0.00043261      -0.00925306       0.00224577 </v>
   <v>      -0.00445324      -0.00133172      -0.00295399 </v>
   <v>      -0.01135517       0.00253257      -0.00061502 </v>
   <v>      -0.01094023       0.00649321       0.00584198 </v>
   <v>      -0.00761294       0.00624966      -0.00071206 </v>
   <v>       0.00497601       0.00223741      -0.00489949 </v>
   <v>       0.00363600       0.00072059       0.02709716 </v>
   <v>       0.00049285      -0.00171227       0.00100341 </v>
   <v>       0.01499722       0.00721897      -0.01730322 </v>
   <v>       0.00582765       0.00104469      -0.00155176 </v>
   <v>      -0.00048255      -0.00000784      -0.00298858 </v>
   <v>       0.00587773       0.00503151      -0.00475988 </v>
   <v>       0.00614415      -0.00040268      -0.00237919 </v>
   <v>       0.00030878      -0.00003839       0.00187782 </v>
   <v>      -0.00055539      -0.00029005       0.00045334 </v>
   <v>       0.00184019      -0.00099196      -0.00032677 </v>
   <v>       0.00157297      -0.00046771       0.00416797 </v>
   <v>      -0.00007695       0.00109873      -0.00187833 </v>
   <v>      -0.00082715      -0.00094465       0.00350714 </v>
   <v>      -0.00002531      -0.00115832      -0.00648840 </v>
   <v>       0.00113999      -0.00085974       0.00117409 </v>
   <v>       0.00007586      -0.00066344      -0.00658017 </v>
   <v>      -0.00108562       0.00224460       0.00273241 </v>
   <v>       0.00017706       0.00130797       0.00037710 </v>
   <v>      -0.00381789      -0.00151134      -0.00116187 </v>
   <v>      -0.00228567       0.00211532      -0.00439692 </v>
   <v>      -0.00129286       0.00157855      -0.00023414 </v>
   <v>       0.00228984      -0.00528667      -0.00180816 </v>
   <v>      -0.00014306      -0.00019742       0.00062925 </v>
   <v>      -0.00153156      -0.00060100       0.00015143 </v>
   <v>      -0.00200645       0.00619144      -0.00164275 </v>
   <v>      -0.00123349       0.00311255       0.00515703 </v>
   <v>       0.00130303      -0.00427662       0.00196092 </v>
   <v>       0.00069848      -0.00022869      -0.00025625 </v>
   <v>       0.00058268      -0.00187634       0.00301367 </v>
   <v>       0.00309131      -0.00277132      -0.00209531 </v>
   <v>      -0.00000032      -0.00012068       0.58710440 </v>
   <v>      -0.00145598       0.00127907       0.58566354 </v>
   <v>      -0.00077057      -0.00047126      -0.58793824 </v>
   <v>      -0.00001952       0.00002198      -0.58671978 </v>
   <v>      -0.00184750      -0.00098551       0.58615947 </v>
   <v>      -0.00031117       0.00047959       0.58820219 </v>
   <v>       0.00089120      -0.00083651      -0.58730966 </v>
   <v>       0.00035026      -0.00032316      -0.58726898 </v>
   <v>       0.00018397      -0.00007098       0.58701562 </v>
   <v>      -0.00036294      -0.00023803      -0.58654578 </v>
   <v>       0.00008023       0.00057260      -0.58747199 </v>
   <v>      -0.00013472       0.00014719       0.58699099 </v>
   <v>       0.00009774      -0.00009258       0.58723142 </v>
   <v>      -0.00067691      -0.00032265       0.58724744 </v>
   <v>       0.00092467       0.00048775      -0.58731622 </v>
   <v>       0.00001567       0.00014811       0.58702579 </v>
   <v>       0.00060692      -0.00010999      -0.58700512 </v>
   <v>       0.00043225       0.00033167      -0.58671842 </v>
   <v>      -0.00141009       0.00191121      -0.58039207 </v>
   <v>      -0.00101149      -0.00091804       0.58720560 </v>
   <v>       0.00044259      -0.00012260       0.58803551 </v>
   <v>      -0.00051070      -0.00035631      -0.58757992 </v>
   <v>       0.00105972       0.00109247      -0.58771926 </v>
   <v>      -0.00047405      -0.00027363       0.58696911 </v>
   <v>       0.00032358      -0.00238742       0.58568245 </v>
   <v>      -0.00292050      -0.00599755       0.57549957 </v>
   <v>      -0.00029408      -0.00030911      -0.58674587 </v>
   <v>      -0.00018160      -0.00001913      -0.58688299 </v>
   <v>      -0.00144332      -0.00049444       0.58748532 </v>
   <v>      -0.00241523       0.00005823       0.58627594 </v>
   <v>       0.00013687      -0.00128587      -0.58179815 </v>
   <v>      -0.00042748      -0.00034002       0.58691816 </v>
   <v>       0.00200375      -0.00032823      -0.58610167 </v>
   <v>      -0.00661042       0.00112278       0.57512974 </v>
   <v>      -0.00029484      -0.00000984      -0.58701514 </v>
   <v>       0.00055946       0.00043052      -0.58786965 </v>
   <v>       0.00042511       0.00207120      -0.58629242 </v>
   <v>       0.00001111      -0.00022808       0.58743411 </v>
   <v>       0.00186464      -0.00076467       0.58589345 </v>
   <v>       0.00015748       0.00088661      -0.58686685 </v>
   <v>       0.00030978       0.00019149       0.58724138 </v>
   <v>       0.00003123       0.00107686       0.58487117 </v>
   <v>      -0.00247023       0.00463381      -0.56058195 </v>
   <v>       0.00054102      -0.00085827       0.58555477 </v>
   <v>      -0.00001909       0.00083633      -0.58680385 </v>
   <v>       0.00001364      -0.00005260       0.58755991 </v>
   <v>      -0.00259264       0.00369034      -0.58216298 </v>
   <v>      -0.00054763      -0.00092477       0.58717129 </v>
   <v>      -0.00015871      -0.00025184      -0.58683707 </v>
   <v>      -0.00031485       0.00065535       0.58734731 </v>
   <v>      -0.00098757       0.00089415      -0.58772934 </v>
   <v>      -0.00149791       0.00022800       0.58734638 </v>
   <v>      -0.00069281       0.00006380      -0.58684303 </v>
   <v>       0.00097066       0.00111057      -0.58534209 </v>
   <v>       0.00013646      -0.00017312       0.58709123 </v>
   <v>      -0.00070057       0.00004994       0.58634414 </v>
   <v>       0.00010078      -0.00038987      -0.58742085 </v>
   <v>       0.00024175      -0.00044962       0.58733602 </v>
   <v>       0.00371840      -0.00143216      -0.58374163 </v>
   <v>       0.00000726      -0.00019582       0.58314807 </v>
   <v>       0.00061360       0.00017714      -0.58846022 </v>
   <v>       0.00046119       0.00011134       0.58814942 </v>
   <v>       0.00562342       0.00144397      -0.57806685 </v>
   <v>      -0.00020286      -0.00080640       0.58620052 </v>
   <v>       0.00008082       0.00037653      -0.58757986 </v>
   <v>      -0.00012716       0.00017196       0.58749336 </v>
   <v>       0.00164935       0.00467250      -0.58300949 </v>
   <v>      -0.00006674      -0.00017123      -0.58740497 </v>
   <v>       0.00344067       0.00567855       0.56439793 </v>
   <v>       0.00451182      -0.00542280      -0.56404388 </v>
   <v>       0.00066060      -0.00029286       0.58469776 </v>
   <v>      -0.00002798       0.00025618      -0.58661014 </v>
   <v>       0.00426090      -0.00552389       0.56875102 </v>
   <v>      -0.00045807      -0.00102567      -0.58735038 </v>
   <v>       0.00084786      -0.00097509       0.58802134 </v>
   <v>      -0.00187324      -0.00818322      -0.57112835 </v>
   <v>       0.01485862       0.01016088       0.58880319 </v>
   <v>      -0.00084374      -0.00083124      -0.58031209 </v>
   <v>       0.00077723      -0.00012423       0.58287735 </v>
   <v>      -0.00127103       0.01459872      -0.62373560 </v>
   <v>      -0.00378207       0.00656907       0.56785688 </v>
   <v>      -0.00157306      -0.00010935      -0.58760790 </v>
   <v>      -0.00044367       0.00135344       0.58763253 </v>
   <v>      -0.00882498      -0.00011266      -0.56995473 </v>
   <v>       0.00031268       0.00149753       0.58581900 </v>
   <v>      -0.00003538      -0.00018115      -0.58722487 </v>
   <v>       0.00003792       0.00049351       0.58743194 </v>
   <v>      -0.00033063       0.00080019      -0.58644703 </v>
   <v>      -0.00054580       0.00022838       0.58818994 </v>
   <v>       0.00004368       0.00046477      -0.58713327 </v>
   <v>      -0.00032462       0.00011096       0.58701338 </v>
   <v>      -0.00049050       0.00006585      -0.58728990 </v>
   <v>       0.00055412       0.00050037       0.58452799 </v>
   <v>       0.00092044      -0.00039033      -0.58591255 </v>
   <v>      -0.00002854      -0.00024327       0.58809918 </v>
   <v>       0.00122449      -0.00339019      -0.58339487 </v>
   <v>       0.00474433       0.00053884       0.56766861 </v>
   <v>       0.00140830      -0.00026676      -0.58558503 </v>
   <v>       0.00072205      -0.00010080      -0.58690812 </v>
   <v>      -0.00107414      -0.00207210       0.58629944 </v>
  </varray>
  <varray name="stress" >
   <v>      -4.37337701       0.00185780      -0.02091648 </v>
   <v>       0.00185776      -4.34579849      -0.01189215 </v>
   <v>      -0.02091647      -0.01189217     -22.29904534 </v>
  </varray>
  <energy>
   <i name="e_fr_energy">  -1253.28743053 </i>
   <i name="e_wo_entrp">  -1253.22396484 </i>
   <i name="e_0_energy">     -0.12693138 </i>
  </energy>
