basalPlane                              
           1
    15.900000    0.000000    0.000000
    -7.950000   13.769804    0.000000
     0.000000    0.000000   32.380000
   C    Cr   H    Mo   S 
  10   1  10  50 100
Direct configuration=     1
   0.45125804  0.42960378  0.50658859
   0.49354424  0.52449021  0.48941099
   0.50530841  0.38545764  0.49271820
   0.58271125  0.45398087  0.46660076
   0.57491983  0.54059489  0.46457359
   0.33241934  0.41058899  0.40497647
   0.45776495  0.39930938  0.37336863
   0.42153176  0.46428162  0.38184597
   0.39186235  0.30705447  0.39083205
   0.31506644  0.31353856  0.41034032
   0.45098820  0.42106497  0.43863525
   0.62297940  0.60675895  0.44778358
   0.45391487  0.53927417  0.37165048
   0.28560244  0.43783289  0.41560230
   0.52454712  0.41759907  0.35705550
   0.40152657  0.24395114  0.39117611
   0.46651299  0.57476779  0.49327034
   0.38586588  0.39492263  0.52543042
   0.49000776  0.31253120  0.50037112
   0.63856549  0.44349699  0.45219031
   0.25510547  0.25547923  0.42734137
   0.60000000  0.60000000  0.65735022
   0.20000000  0.80000000  0.21911674
   0.20000000  0.60000000  0.65735022
   0.60000000  0.80000000  0.21911674
   0.20000000  0.60000000  0.21911674
   0.60000000  0.80000000  0.65735022
   0.20000000  0.40000000  0.21911674
   0.80000000  0.00000000  0.21911674
   0.20000000  0.20000000  0.65735022
   0.80000000  0.00000000  0.65735022
   0.20000000  0.20000000  0.21911674
   0.20000000  0.80000000  0.65735022
   0.20000000  0.40000000  0.65735022
   0.60000000  0.60000000  0.21911674
   0.40000000  0.60000000  0.21911674
   0.40000000  0.00000000  0.65735022
   0.60000000  0.40000000  0.65735022
   0.40000000  0.20000000  0.21911674
   0.60000000  0.40000000  0.21911674
   0.40000000  0.20000000  0.65735022
   0.40000000  0.40000000  0.21911674
   0.60000000  0.20000000  0.65735022
   0.40000000  0.40000000  0.65735022
   0.60000000  0.20000000  0.21911674
   0.40000000  0.80000000  0.65735022
   0.40000000  0.60000000  0.65735022
   0.60000000  0.00000000  0.65735022
   0.40000000  0.80000000  0.21911674
   0.60000000  0.00000000  0.21911674
   0.40000000  0.00000000  0.21911674
   0.80000000  0.20000000  0.21911674
   0.20000000  0.00000000  0.65735022
   0.20000000  0.00000000  0.21911674
   0.00000000  0.00000000  0.21911674
   0.80000000  0.80000000  0.65735022
   0.00000000  0.00000000  0.65735022
   0.80000000  0.80000000  0.21911674
   0.00000000  0.20000000  0.21911674
   0.00000000  0.20000000  0.65735022
   0.80000000  0.60000000  0.65735022
   0.00000000  0.40000000  0.21911674
   0.00000000  0.40000000  0.65735022
   0.00000000  0.60000000  0.21911674
   0.80000000  0.40000000  0.65735022
   0.00000000  0.60000000  0.65735022
   0.80000000  0.60000000  0.21911674
   0.80000000  0.40000000  0.21911674
   0.00000000  0.80000000  0.65735022
   0.00000000  0.80000000  0.21911674
   0.80000000  0.20000000  0.65735022
   0.93333333  0.06666667  0.16985794
   0.73333333  0.26666667  0.60809141
   0.73333333  0.26666667  0.70660902
   0.93333333  0.66666667  0.70660902
   0.93333333  0.66666667  0.60809141
   0.73333333  0.26666667  0.16985794
   0.73333333  0.26666667  0.26837554
   0.93333333  0.46666667  0.26837554
   0.73333333  0.06666667  0.60809141
   0.73333333  0.06666667  0.70660902
   0.93333333  0.06666667  0.70660902
   0.93333333  0.86666667  0.16985794
   0.73333333  0.06666667  0.16985794
   0.93333333  0.06666667  0.60809141
   0.73333333  0.06666667  0.26837554
   0.93333333  0.26666667  0.16985794
   0.93333333  0.26666667  0.70660902
   0.93333333  0.86666667  0.26837554
   0.73333333  0.46666667  0.26837554
   0.73333333  0.46666667  0.16985794
   0.73333333  0.86666667  0.16985794
   0.73333333  0.86666667  0.70660902
   0.73333333  0.86666667  0.26837554
   0.93333333  0.46666667  0.16985794
   0.73333333  0.86666667  0.60809141
   0.73333333  0.66666667  0.60809141
   0.73333333  0.66666667  0.70660902
   0.93333333  0.46666667  0.70660902
   0.73333333  0.66666667  0.16985794
   0.93333333  0.46666667  0.60809141
   0.73333333  0.66666667  0.26837554
   0.93333333  0.26666667  0.60809141
   0.93333333  0.26666667  0.26837554
   0.73333333  0.46666667  0.60809141
   0.73333333  0.46666667  0.70660902
   0.93333333  0.66666667  0.26837554
   0.93333333  0.06666667  0.26837554
   0.93333333  0.66666667  0.16985794
   0.53333333  0.86666667  0.60809141
   0.53333333  0.06666667  0.70660902
   0.53333333  0.86666667  0.16985794
   0.33333333  0.26666667  0.16985794
   0.33333333  0.26666667  0.26837554
   0.33333333  0.06666667  0.60809141
   0.33333333  0.06666667  0.70660902
   0.33333333  0.06666667  0.16985794
   0.33333333  0.06666667  0.26837554
   0.13333333  0.86666667  0.60809141
   0.13333333  0.86666667  0.70660902
   0.13333333  0.86666667  0.16985794
   0.13333333  0.86666667  0.26837554
   0.13333333  0.66666667  0.60809141
   0.13333333  0.66666667  0.70660902
   0.33333333  0.26666667  0.70660902
   0.13333333  0.66666667  0.16985794
   0.13333333  0.46666667  0.60809141
   0.13333333  0.46666667  0.70660902
   0.13333333  0.46666667  0.16985794
   0.13333333  0.46666667  0.26837554
   0.13333333  0.26666667  0.60809141
   0.13333333  0.26666667  0.70660902
   0.13333333  0.26666667  0.16985794
   0.13333333  0.26666667  0.26837554
   0.13333333  0.06666667  0.60809141
   0.13333333  0.06666667  0.70660902
   0.13333333  0.06666667  0.16985794
   0.13333333  0.06666667  0.26837554
   0.13333333  0.66666667  0.26837554
   0.33333333  0.26666667  0.60809141
   0.33333333  0.46666667  0.26837554
   0.33333333  0.46666667  0.16985794
   0.53333333  0.86666667  0.26837554
   0.53333333  0.66666667  0.60809141
   0.53333333  0.66666667  0.70660902
   0.53333333  0.66666667  0.16985794
   0.53333333  0.66666667  0.26837554
   0.53333333  0.46666667  0.60809141
   0.53333333  0.46666667  0.70660902
   0.53333333  0.46666667  0.16985794
   0.53333333  0.46666667  0.26837554
   0.53333333  0.26666667  0.60809141
   0.53333333  0.26666667  0.70660902
   0.53333333  0.26666667  0.16985794
   0.53333333  0.26666667  0.26837554
   0.53333333  0.06666667  0.60809141
   0.93333333  0.86666667  0.70660902
   0.53333333  0.06666667  0.16985794
   0.53333333  0.06666667  0.26837554
   0.33333333  0.86666667  0.60809141
   0.33333333  0.86666667  0.70660902
   0.33333333  0.86666667  0.16985794
   0.33333333  0.86666667  0.26837554
   0.33333333  0.66666667  0.60809141
   0.33333333  0.66666667  0.70660902
   0.33333333  0.66666667  0.16985794
   0.33333333  0.66666667  0.26837554
   0.33333333  0.46666667  0.60809141
   0.33333333  0.46666667  0.70660902
   0.53333333  0.86666667  0.70660902
   0.93333333  0.86666667  0.60809141
Direct configuration=     2
   0.45129474  0.42927559  0.50658859
   0.49329095  0.52466394  0.48941099
   0.50577618  0.38558490  0.49271820
   0.58314916  0.45391501  0.46660076
   0.57550446  0.54077988  0.46457359
   0.33233569  0.41103982  0.40497647
   0.45771826  0.39935659  0.37336863
   0.42143342  0.46427281  0.38184597
   0.39208168  0.30693190  0.39083205
   0.31476943  0.31335690  0.41034032
   0.45019623  0.42081913  0.43863525
   0.62295847  0.60672208  0.44778358
   0.45395896  0.53923128  0.37165048
   0.28571697  0.43787584  0.41560230
   0.52449641  0.41759387  0.35705550
   0.40152225  0.24393969  0.39117611
   0.46649415  0.57482057  0.49327034
   0.38579313  0.39484957  0.52543042
   0.49001495  0.31261263  0.50037112
   0.63843591  0.44347513  0.45219031
   0.25506403  0.25546901  0.42734137
   0.59998885  0.59997576  0.65735022
   0.20000000  0.80000000  0.21911674
   0.20000874  0.60000220  0.65735022
   0.60000000  0.80000000  0.21911674
   0.20000000  0.60000000  0.21911674
   0.59999752  0.80000561  0.65735022
   0.20000000  0.40000000  0.21911674
   0.80000000  0.00000000  0.21911674
   0.19998184  0.19999541  0.65735022
   0.79999716  0.00000363  0.65735022
   0.20000000  0.20000000  0.21911674
   0.20000230  0.80000266  0.65735022
   0.19997939  0.39998023  0.65735022
   0.60000000  0.60000000  0.21911674
   0.40000000  0.60000000  0.21911674
   0.39998378 -0.00000197  0.65735022
   0.59997456  0.40001458  0.65735022
   0.40000000  0.20000000  0.21911674
   0.60000000  0.40000000  0.21911674
   0.40001335  0.19999946  0.65735022
   0.40000000  0.40000000  0.21911674
   0.60000145  0.19999324  0.65735022
   0.40006287  0.40002432  0.65735022
   0.60000000  0.20000000  0.21911674
   0.39999824  0.79999570  0.65735022
   0.40002437  0.60002373  0.65735022
   0.60001694 -0.00000120  0.65735022
   0.40000000  0.80000000  0.21911674
   0.60000000  0.00000000  0.21911674
   0.40000000  0.00000000  0.21911674
   0.80000000  0.20000000  0.21911674
   0.20000247  0.00000465  0.65735022
   0.20000000  0.00000000  0.21911674
   0.00000000  0.00000000  0.21911674
   0.79999779  0.79999414  0.65735022
   0.00000030  0.00000034  0.65735022
   0.80000000  0.80000000  0.21911674
   0.00000000  0.20000000  0.21911674
  -0.00001134  0.19999498  0.65735022
   0.79999304  0.60000537  0.65735022
   0.00000000  0.40000000  0.21911674
  -0.00000076  0.39997994  0.65735022
   0.00000000  0.60000000  0.21911674
   0.79999106  0.39999546  0.65735022
   0.00000294  0.60001966  0.65735022
   0.80000000  0.60000000  0.21911674
   0.80000000  0.40000000  0.21911674
  -0.00000003  0.79999838  0.65735022
   0.00000000  0.80000000  0.21911674
   0.80000223  0.19999031  0.65735022
   0.93333333  0.06666667  0.16985794
   0.73333219  0.26667082  0.60809141
   0.73333074  0.26666518  0.70660902
   0.93333206  0.66666555  0.70660902
   0.93332542  0.66666255  0.60809141
   0.73333333  0.26666667  0.16985794
   0.73333333  0.26666667  0.26837554
   0.93333333  0.46666667  0.26837554
   0.73333378  0.06666585  0.60809141
   0.73333164  0.06666537  0.70660902
   0.93333336  0.06666666  0.70660902
   0.93333333  0.86666667  0.16985794
   0.73333333  0.06666667  0.16985794
   0.93332954  0.06666340  0.60809141
   0.73333333  0.06666667  0.26837554
   0.93333333  0.26666667  0.16985794
   0.93333352  0.26666601  0.70660902
   0.93333333  0.86666667  0.26837554
   0.73333333  0.46666667  0.26837554
   0.73333333  0.46666667  0.16985794
   0.73333333  0.86666667  0.16985794
   0.73333181  0.86666501  0.70660902
   0.73333333  0.86666667  0.26837554
   0.93333333  0.46666667  0.16985794
   0.73333112  0.86665843  0.60809141
   0.73331503  0.66664718  0.60809141
   0.73333132  0.66666513  0.70660902
   0.93333247  0.46666621  0.70660902
   0.73333333  0.66666667  0.16985794
   0.93332616  0.46666612  0.60809141
   0.73333333  0.66666667  0.26837554
   0.93333001  0.26666516  0.60809141
   0.93333333  0.26666667  0.26837554
   0.73331722  0.46667023  0.60809141
   0.73333182  0.46666576  0.70660902
   0.93333333  0.66666667  0.26837554
   0.93333333  0.06666667  0.26837554
   0.93333333  0.66666667  0.16985794
   0.53333612  0.86666374  0.60809141
   0.53333374  0.06666816  0.70660902
   0.53333333  0.86666667  0.16985794
   0.33333333  0.26666667  0.16985794
   0.33333333  0.26666667  0.26837554
   0.33333329  0.06666293  0.60809141
   0.33333469  0.06666918  0.70660902
   0.33333333  0.06666667  0.16985794
   0.33333333  0.06666667  0.26837554
   0.13332940  0.86666287  0.60809141
   0.13333187  0.86666518  0.70660902
   0.13333333  0.86666667  0.16985794
   0.13333333  0.86666667  0.26837554
   0.13332903  0.66666641  0.60809141
   0.13333100  0.66666589  0.70660902
   0.33333479  0.26666696  0.70660902
   0.13333333  0.66666667  0.16985794
   0.13332962  0.46666569  0.60809141
   0.13333195  0.46666466  0.70660902
   0.13333333  0.46666667  0.16985794
   0.13333333  0.46666667  0.26837554
   0.13333207  0.26666448  0.60809141
   0.13333565  0.26666658  0.70660902
   0.13333333  0.26666667  0.16985794
   0.13333333  0.26666667  0.26837554
   0.13332984  0.06666325  0.60809141
   0.13333351  0.06666755  0.70660902
   0.13333333  0.06666667  0.16985794
   0.13333333  0.06666667  0.26837554
   0.13333333  0.66666667  0.26837554
   0.33334222  0.26667332  0.60809141
   0.33333333  0.46666667  0.26837554
   0.33333333  0.46666667  0.16985794
   0.53333333  0.86666667  0.26837554
   0.53333659  0.66664919  0.60809141
   0.53332945  0.66666171  0.70660902
   0.53333333  0.66666667  0.16985794
   0.53333333  0.66666667  0.26837554
   0.53340760  0.46671038  0.60809141
   0.53333157  0.46666535  0.70660902
   0.53333333  0.46666667  0.16985794
   0.53333333  0.46666667  0.26837554
   0.53333324  0.26668509  0.60809141
   0.53332791  0.26666510  0.70660902
   0.53333333  0.26666667  0.16985794
   0.53333333  0.26666667  0.26837554
   0.53333515  0.06666957  0.60809141
   0.93333226  0.86666531  0.70660902
   0.53333333  0.06666667  0.16985794
   0.53333333  0.06666667  0.26837554
   0.33333141  0.86666621  0.60809141
   0.33333312  0.86666705  0.70660902
   0.33333333  0.86666667  0.16985794
   0.33333333  0.86666667  0.26837554
   0.33333542  0.66666852  0.60809141
   0.33333458  0.66666484  0.70660902
   0.33333333  0.66666667  0.16985794
   0.33333333  0.66666667  0.26837554
   0.33333967  0.46667092  0.60809141
   0.33333515  0.46666582  0.70660902
   0.53333406  0.86666592  0.70660902
   0.93332606  0.86665926  0.60809141
Direct configuration=     3
   0.45126920  0.42950398  0.50658859
   0.49346721  0.52454304  0.48941099
   0.50545066  0.38549634  0.49271820
   0.58284442  0.45396084  0.46660076
   0.57509762  0.54065114  0.46457359
   0.33239390  0.41072608  0.40497647
   0.45775075  0.39932374  0.37336863
   0.42150186  0.46427894  0.38184597
   0.39192905  0.30701719  0.39083205
   0.31497612  0.31348331  0.41034032
   0.45074736  0.42099021  0.43863525
   0.62297303  0.60674774  0.44778358
   0.45392828  0.53926112  0.37165048
   0.28563726  0.43784595  0.41560230
   0.52453170  0.41759748  0.35705550
   0.40152526  0.24394766  0.39117611
   0.46650726  0.57478384  0.49327034
   0.38584376  0.39490041  0.52543042
   0.49000995  0.31255597  0.50037112
   0.63852608  0.44349034  0.45219031
   0.25509287  0.25547612  0.42734137
   0.59999661  0.59999263  0.65735022
   0.20000000  0.80000000  0.21911674
   0.20000266  0.60000067  0.65735022
   0.60000000  0.80000000  0.21911674
   0.20000000  0.60000000  0.21911674
   0.59999925  0.80000171  0.65735022
   0.20000000  0.40000000  0.21911674
   0.80000000  0.00000000  0.21911674
   0.19999448  0.19999860  0.65735022
   0.79999914  0.00000110  0.65735022
   0.20000000  0.20000000  0.21911674
   0.20000070  0.80000081  0.65735022
   0.19999373  0.39999399  0.65735022
   0.60000000  0.60000000  0.21911674
   0.40000000  0.60000000  0.21911674
   0.39999507 -0.00000060  0.65735022
   0.59999226  0.40000444  0.65735022
   0.40000000  0.20000000  0.21911674
   0.60000000  0.40000000  0.21911674
   0.40000406  0.19999984  0.65735022
   0.40000000  0.40000000  0.21911674
   0.60000044  0.19999794  0.65735022
   0.40001912  0.40000740  0.65735022
   0.60000000  0.20000000  0.21911674
   0.39999946  0.79999869  0.65735022
   0.40000741  0.60000722  0.65735022
   0.60000515 -0.00000036  0.65735022
   0.40000000  0.80000000  0.21911674
   0.60000000  0.00000000  0.21911674
   0.40000000  0.00000000  0.21911674
   0.80000000  0.20000000  0.21911674
   0.20000075  0.00000142  0.65735022
   0.20000000  0.00000000  0.21911674
   0.00000000  0.00000000  0.21911674
   0.79999933  0.79999822  0.65735022
   0.00000009  0.00000010  0.65735022
   0.80000000  0.80000000  0.21911674
   0.00000000  0.20000000  0.21911674
  -0.00000345  0.19999847  0.65735022
   0.79999788  0.60000163  0.65735022
   0.00000000  0.40000000  0.21911674
  -0.00000023  0.39999390  0.65735022
   0.00000000  0.60000000  0.21911674
   0.79999728  0.39999862  0.65735022
   0.00000090  0.60000598  0.65735022
   0.80000000  0.60000000  0.21911674
   0.80000000  0.40000000  0.21911674
  -0.00000001  0.79999951  0.65735022
   0.00000000  0.80000000  0.21911674
   0.80000068  0.19999705  0.65735022
   0.93333333  0.06666667  0.16985794
   0.73333299  0.26666793  0.60809141
   0.73333254  0.26666621  0.70660902
   0.93333295  0.66666633  0.70660902
   0.93333093  0.66666542  0.60809141
   0.73333333  0.26666667  0.16985794
   0.73333333  0.26666667  0.26837554
   0.93333333  0.46666667  0.26837554
   0.73333347  0.06666642  0.60809141
   0.73333282  0.06666627  0.70660902
   0.93333334  0.06666666  0.70660902
   0.93333333  0.86666667  0.16985794
   0.73333333  0.06666667  0.16985794
   0.93333218  0.06666567  0.60809141
   0.73333333  0.06666667  0.26837554
   0.93333333  0.26666667  0.16985794
   0.93333339  0.26666647  0.70660902
   0.93333333  0.86666667  0.26837554
   0.73333333  0.46666667  0.26837554
   0.73333333  0.46666667  0.16985794
   0.73333333  0.86666667  0.16985794
   0.73333287  0.86666616  0.70660902
   0.73333333  0.86666667  0.26837554
   0.93333333  0.46666667  0.16985794
   0.73333266  0.86666416  0.60809141
   0.73332777  0.66666074  0.60809141
   0.73333272  0.66666620  0.70660902
   0.93333307  0.46666653  0.70660902
   0.73333333  0.66666667  0.16985794
   0.93333115  0.46666650  0.60809141
   0.73333333  0.66666667  0.26837554
   0.93333232  0.26666621  0.60809141
   0.93333333  0.26666667  0.26837554
   0.73332843  0.46666775  0.60809141
   0.73333287  0.46666639  0.70660902
   0.93333333  0.66666667  0.26837554
   0.93333333  0.06666667  0.26837554
   0.93333333  0.66666667  0.16985794
   0.53333418  0.86666578  0.60809141
   0.53333346  0.06666712  0.70660902
   0.53333333  0.86666667  0.16985794
   0.33333333  0.26666667  0.16985794
   0.33333333  0.26666667  0.26837554
   0.33333332  0.06666553  0.60809141
   0.33333375  0.06666743  0.70660902
   0.33333333  0.06666667  0.16985794
   0.33333333  0.06666667  0.26837554
   0.13333214  0.86666551  0.60809141
   0.13333289  0.86666621  0.70660902
   0.13333333  0.86666667  0.16985794
   0.13333333  0.86666667  0.26837554
   0.13333203  0.66666659  0.60809141
   0.13333262  0.66666643  0.70660902
   0.33333378  0.26666676  0.70660902
   0.13333333  0.66666667  0.16985794
   0.13333220  0.46666637  0.60809141
   0.13333291  0.46666606  0.70660902
   0.13333333  0.46666667  0.16985794
   0.13333333  0.46666667  0.26837554
   0.13333295  0.26666600  0.60809141
   0.13333404  0.26666664  0.70660902
   0.13333333  0.26666667  0.16985794
   0.13333333  0.26666667  0.26837554
   0.13333227  0.06666563  0.60809141
   0.13333339  0.06666694  0.70660902
   0.13333333  0.06666667  0.16985794
   0.13333333  0.06666667  0.26837554
   0.13333333  0.66666667  0.26837554
   0.33333604  0.26666869  0.60809141
   0.33333333  0.46666667  0.26837554
   0.33333333  0.46666667  0.16985794
   0.53333333  0.86666667  0.26837554
   0.53333432  0.66666135  0.60809141
   0.53333215  0.66666516  0.70660902
   0.53333333  0.66666667  0.16985794
   0.53333333  0.66666667  0.26837554
   0.53335592  0.46667996  0.60809141
   0.53333280  0.46666627  0.70660902
   0.53333333  0.46666667  0.16985794
   0.53333333  0.46666667  0.26837554
   0.53333331  0.26667227  0.60809141
   0.53333169  0.26666619  0.70660902
   0.53333333  0.26666667  0.16985794
   0.53333333  0.26666667  0.26837554
   0.53333388  0.06666755  0.60809141
   0.93333301  0.86666626  0.70660902
   0.53333333  0.06666667  0.16985794
   0.53333333  0.06666667  0.26837554
   0.33333275  0.86666653  0.60809141
   0.33333327  0.86666678  0.70660902
   0.33333333  0.86666667  0.16985794
   0.33333333  0.86666667  0.26837554
   0.33333397  0.66666723  0.60809141
   0.33333371  0.66666611  0.70660902
   0.33333333  0.66666667  0.16985794
   0.33333333  0.66666667  0.26837554
   0.33333526  0.46666796  0.60809141
   0.33333388  0.46666641  0.70660902
   0.53333355  0.86666644  0.70660902
   0.93333112  0.86666442  0.60809141
Direct configuration=     4
   0.45126474  0.42954386  0.50658859
   0.49349799  0.52452193  0.48941099
   0.50539382  0.38548087  0.49271820
   0.58279120  0.45396885  0.46660076
   0.57502657  0.54062866  0.46457359
   0.33240407  0.41067130  0.40497647
   0.45775643  0.39931800  0.37336863
   0.42151381  0.46428002  0.38184597
   0.39190239  0.30703209  0.39083205
   0.31501221  0.31350539  0.41034032
   0.45084360  0.42102008  0.43863525
   0.62297558  0.60675222  0.44778358
   0.45392292  0.53926634  0.37165048
   0.28562335  0.43784073  0.41560230
   0.52453786  0.41759812  0.35705550
   0.40152579  0.24394905  0.39117611
   0.46650955  0.57477742  0.49327034
   0.38585260  0.39490929  0.52543042
   0.49000907  0.31254607  0.50037112
   0.63854183  0.44349300  0.45219031
   0.25509791  0.25547736  0.42734137
   0.59999796  0.59999557  0.65735022
   0.20000000  0.80000000  0.21911674
   0.20000160  0.60000040  0.65735022
   0.60000000  0.80000000  0.21911674
   0.20000000  0.60000000  0.21911674
   0.59999955  0.80000102  0.65735022
   0.20000000  0.40000000  0.21911674
   0.80000000  0.00000000  0.21911674
   0.19999668  0.19999916  0.65735022
   0.79999948  0.00000066  0.65735022
   0.20000000  0.20000000  0.21911674
   0.20000042  0.80000049  0.65735022
   0.19999624  0.39999639  0.65735022
   0.60000000  0.60000000  0.21911674
   0.40000000  0.60000000  0.21911674
   0.39999704 -0.00000036  0.65735022
   0.59999535  0.40000266  0.65735022
   0.40000000  0.20000000  0.21911674
   0.60000000  0.40000000  0.21911674
   0.40000244  0.19999990  0.65735022
   0.40000000  0.40000000  0.21911674
   0.60000026  0.19999877  0.65735022
   0.40001148  0.40000444  0.65735022
   0.60000000  0.20000000  0.21911674
   0.39999968  0.79999921  0.65735022
   0.40000445  0.60000433  0.65735022
   0.60000309 -0.00000022  0.65735022
   0.40000000  0.80000000  0.21911674
   0.60000000  0.00000000  0.21911674
   0.40000000  0.00000000  0.21911674
   0.80000000  0.20000000  0.21911674
   0.20000045  0.00000085  0.65735022
   0.20000000  0.00000000  0.21911674
   0.00000000  0.00000000  0.21911674
   0.79999960  0.79999893  0.65735022
   0.00000005  0.00000006  0.65735022
   0.80000000  0.80000000  0.21911674
   0.00000000  0.20000000  0.21911674
  -0.00000207  0.19999908  0.65735022
   0.79999873  0.60000098  0.65735022
   0.00000000  0.40000000  0.21911674
  -0.00000014  0.39999634  0.65735022
   0.00000000  0.60000000  0.21911674
   0.79999837  0.39999917  0.65735022
   0.00000054  0.60000359  0.65735022
   0.80000000  0.60000000  0.21911674
   0.80000000  0.40000000  0.21911674
  -0.00000001  0.79999970  0.65735022
   0.00000000  0.80000000  0.21911674
   0.80000041  0.19999823  0.65735022
   0.93333333  0.06666667  0.16985794
   0.73333313  0.26666742  0.60809141
   0.73333286  0.26666640  0.70660902
   0.93333310  0.66666646  0.70660902
   0.93333189  0.66666592  0.60809141
   0.73333333  0.26666667  0.16985794
   0.73333333  0.26666667  0.26837554
   0.93333333  0.46666667  0.26837554
   0.73333342  0.06666652  0.60809141
   0.73333302  0.06666643  0.70660902
   0.93333334  0.06666667  0.70660902
   0.93333333  0.86666667  0.16985794
   0.73333333  0.06666667  0.16985794
   0.93333264  0.06666607  0.60809141
   0.73333333  0.06666667  0.26837554
   0.93333333  0.26666667  0.16985794
   0.93333337  0.26666655  0.70660902
   0.93333333  0.86666667  0.26837554
   0.73333333  0.46666667  0.26837554
   0.73333333  0.46666667  0.16985794
   0.73333333  0.86666667  0.16985794
   0.73333306  0.86666636  0.70660902
   0.73333333  0.86666667  0.26837554
   0.93333333  0.46666667  0.16985794
   0.73333293  0.86666516  0.60809141
   0.73332999  0.66666311  0.60809141
   0.73333297  0.66666639  0.70660902
   0.93333318  0.46666658  0.70660902
   0.73333333  0.66666667  0.16985794
   0.93333202  0.46666657  0.60809141
   0.73333333  0.66666667  0.26837554
   0.93333273  0.26666639  0.60809141
   0.93333333  0.26666667  0.26837554
   0.73333039  0.46666732  0.60809141
   0.73333306  0.46666650  0.70660902
   0.93333333  0.66666667  0.26837554
   0.93333333  0.06666667  0.26837554
   0.93333333  0.66666667  0.16985794
   0.53333384  0.86666613  0.60809141
   0.53333341  0.06666694  0.70660902
   0.53333333  0.86666667  0.16985794
   0.33333333  0.26666667  0.16985794
   0.33333333  0.26666667  0.26837554
   0.33333333  0.06666598  0.60809141
   0.33333358  0.06666713  0.70660902
   0.33333333  0.06666667  0.16985794
   0.33333333  0.06666667  0.26837554
   0.13333262  0.86666597  0.60809141
   0.13333307  0.86666640  0.70660902
   0.13333333  0.86666667  0.16985794
   0.13333333  0.86666667  0.26837554
   0.13333255  0.66666662  0.60809141
   0.13333291  0.66666652  0.70660902
   0.33333360  0.26666672  0.70660902
   0.13333333  0.66666667  0.16985794
   0.13333266  0.46666649  0.60809141
   0.13333308  0.46666630  0.70660902
   0.13333333  0.46666667  0.16985794
   0.13333333  0.46666667  0.26837554
   0.13333310  0.26666627  0.60809141
   0.13333376  0.26666665  0.70660902
   0.13333333  0.26666667  0.16985794
   0.13333333  0.26666667  0.26837554
   0.13333270  0.06666604  0.60809141
   0.13333337  0.06666683  0.70660902
   0.13333333  0.06666667  0.16985794
   0.13333333  0.06666667  0.26837554
   0.13333333  0.66666667  0.26837554
   0.33333496  0.26666788  0.60809141
   0.33333333  0.46666667  0.26837554
   0.33333333  0.46666667  0.16985794
   0.53333333  0.86666667  0.26837554
   0.53333393  0.66666348  0.60809141
   0.53333262  0.66666576  0.70660902
   0.53333333  0.66666667  0.16985794
   0.53333333  0.66666667  0.26837554
   0.53334689  0.46667465  0.60809141
   0.53333301  0.46666643  0.70660902
   0.53333333  0.46666667  0.16985794
   0.53333333  0.46666667  0.26837554
   0.53333332  0.26667003  0.60809141
   0.53333234  0.26666638  0.70660902
   0.53333333  0.26666667  0.16985794
   0.53333333  0.26666667  0.26837554
   0.53333366  0.06666720  0.60809141
   0.93333314  0.86666642  0.70660902
   0.53333333  0.06666667  0.16985794
   0.53333333  0.06666667  0.26837554
   0.33333298  0.86666658  0.60809141
   0.33333329  0.86666674  0.70660902
   0.33333333  0.86666667  0.16985794
   0.33333333  0.86666667  0.26837554
   0.33333371  0.66666700  0.60809141
   0.33333356  0.66666633  0.70660902
   0.33333333  0.66666667  0.16985794
   0.33333333  0.66666667  0.26837554
   0.33333449  0.46666744  0.60809141
   0.33333366  0.46666651  0.70660902
   0.53333347  0.86666653  0.70660902
   0.93333200  0.86666532  0.60809141
Direct configuration=     5
   0.45126139  0.42957382  0.50658859
   0.49352112  0.52450607  0.48941099
   0.50535111  0.38546925  0.49271820
   0.58275122  0.45397486  0.46660076
   0.57497320  0.54061178  0.46457359
   0.33241170  0.41063014  0.40497647
   0.45776069  0.39931369  0.37336863
   0.42152279  0.46428082  0.38184597
   0.39188237  0.30704328  0.39083205
   0.31503933  0.31352197  0.41034032
   0.45091590  0.42104252  0.43863525
   0.62297749  0.60675559  0.44778358
   0.45391890  0.53927025  0.37165048
   0.28561289  0.43783681  0.41560230
   0.52454249  0.41759859  0.35705550
   0.40152618  0.24395010  0.39117611
   0.46651127  0.57477261  0.49327034
   0.38585924  0.39491596  0.52543042
   0.49000842  0.31253864  0.50037112
   0.63855366  0.44349499  0.45219031
   0.25510169  0.25547829  0.42734137
   0.59999898  0.59999779  0.65735022
   0.20000000  0.80000000  0.21911674
   0.20000080  0.60000020  0.65735022
   0.60000000  0.80000000  0.21911674
   0.20000000  0.60000000  0.21911674
   0.59999977  0.80000051  0.65735022
   0.20000000  0.40000000  0.21911674
   0.80000000  0.00000000  0.21911674
   0.19999834  0.19999958  0.65735022
   0.79999974  0.00000033  0.65735022
   0.20000000  0.20000000  0.21911674
   0.20000021  0.80000024  0.65735022
   0.19999812  0.39999820  0.65735022
   0.60000000  0.60000000  0.21911674
   0.40000000  0.60000000  0.21911674
   0.39999852 -0.00000018  0.65735022
   0.59999768  0.40000133  0.65735022
   0.40000000  0.20000000  0.21911674
   0.60000000  0.40000000  0.21911674
   0.40000122  0.19999995  0.65735022
   0.40000000  0.40000000  0.21911674
   0.60000013  0.19999938  0.65735022
   0.40000574  0.40000222  0.65735022
   0.60000000  0.20000000  0.21911674
   0.39999984  0.79999961  0.65735022
   0.40000222  0.60000217  0.65735022
   0.60000155 -0.00000011  0.65735022
   0.40000000  0.80000000  0.21911674
   0.60000000  0.00000000  0.21911674
   0.40000000  0.00000000  0.21911674
   0.80000000  0.20000000  0.21911674
   0.20000023  0.00000042  0.65735022
   0.20000000  0.00000000  0.21911674
   0.00000000  0.00000000  0.21911674
   0.79999980  0.79999947  0.65735022
   0.00000003  0.00000003  0.65735022
   0.80000000  0.80000000  0.21911674
   0.00000000  0.20000000  0.21911674
  -0.00000104  0.19999954  0.65735022
   0.79999936  0.60000049  0.65735022
   0.00000000  0.40000000  0.21911674
  -0.00000007  0.39999817  0.65735022
   0.00000000  0.60000000  0.21911674
   0.79999918  0.39999959  0.65735022
   0.00000027  0.60000179  0.65735022
   0.80000000  0.60000000  0.21911674
   0.80000000  0.40000000  0.21911674
  -0.00000000  0.79999985  0.65735022
   0.00000000  0.80000000  0.21911674
   0.80000020  0.19999912  0.65735022
   0.93333333  0.06666667  0.16985794
   0.73333323  0.26666705  0.60809141
   0.73333310  0.26666653  0.70660902
   0.93333322  0.66666656  0.70660902
   0.93333261  0.66666629  0.60809141
   0.73333333  0.26666667  0.16985794
   0.73333333  0.26666667  0.26837554
   0.93333333  0.46666667  0.26837554
   0.73333337  0.06666659  0.60809141
   0.73333318  0.06666655  0.70660902
   0.93333334  0.06666667  0.70660902
   0.93333333  0.86666667  0.16985794
   0.73333333  0.06666667  0.16985794
   0.93333299  0.06666637  0.60809141
   0.73333333  0.06666667  0.26837554
   0.93333333  0.26666667  0.16985794
   0.93333335  0.26666661  0.70660902
   0.93333333  0.86666667  0.26837554
   0.73333333  0.46666667  0.26837554
   0.73333333  0.46666667  0.16985794
   0.73333333  0.86666667  0.16985794
   0.73333319  0.86666652  0.70660902
   0.73333333  0.86666667  0.26837554
   0.93333333  0.46666667  0.16985794
   0.73333313  0.86666591  0.60809141