  21  21   0   0
  0.3809524E+03  0.2000000E-08  0.2000000E-08  0.2000000E-08  0.5000000E-15
  1.000000000000000E-004
  CAR 
 basalPlane                              
      1.76424567    -23.12991823  301     -2.10867541      1.00000000
    -23.130  0.0000E+00  0.0000E+00
    -23.047  0.0000E+00  0.0000E+00
    -22.964  0.0000E+00  0.0000E+00
    -22.881  0.0000E+00  0.0000E+00
    -22.798  0.0000E+00  0.0000E+00
    -22.715  0.0000E+00  0.0000E+00
    -22.632  0.0000E+00  0.0000E+00
    -22.549  0.8161E-17  0.6772E-18
    -22.466  0.4495E-13  0.3731E-14
    -22.383  0.6385E-10  0.5302E-11
    -22.300  0.2377E-07  0.1978E-08
    -22.217  0.2357E-05  0.1976E-06
    -22.134  0.6368E-04  0.5482E-05
    -22.051  0.4825E-03  0.4552E-04
    -21.968  0.1055E-02  0.1330E-03
    -21.885  0.6756E-03  0.1891E-03
    -21.802  0.1536E-03  0.2018E-03
    -21.719  0.3135E-03  0.2279E-03
    -21.636  0.9560E-03  0.3072E-03
    -21.553  0.8698E-03  0.3794E-03
    -21.470  0.2308E-03  0.3985E-03
    -21.387  0.1746E-04  0.4000E-03
    -21.304  0.3656E-06  0.4000E-03
    -21.221  0.2063E-08  0.4000E-03
    -21.138  0.3077E-11  0.4000E-03
    -21.055  0.1197E-14  0.4000E-03
    -20.972  0.0000E+00  0.4000E-03
    -20.889  0.0000E+00  0.4000E-03
    -20.806  0.0000E+00  0.4000E-03
    -20.723  0.0000E+00  0.4000E-03
    -20.641  0.0000E+00  0.4000E-03
    -20.558  0.0000E+00  0.4000E-03
    -20.475  0.0000E+00  0.4000E-03
    -20.392  0.0000E+00  0.4000E-03
    -20.309  0.0000E+00  0.4000E-03
    -20.226  0.0000E+00  0.4000E-03
    -20.143  0.0000E+00  0.4000E-03
    -20.060  0.0000E+00  0.4000E-03
    -19.977  0.0000E+00  0.4000E-03
    -19.894  0.0000E+00  0.4000E-03
    -19.811  0.0000E+00  0.4000E-03
    -19.728  0.0000E+00  0.4000E-03
    -19.645  0.0000E+00  0.4000E-03
    -19.562  0.0000E+00  0.4000E-03
    -19.479  0.0000E+00  0.4000E-03
    -19.396  0.0000E+00  0.4000E-03
    -19.313  0.0000E+00  0.4000E-03
    -19.230  0.0000E+00  0.4000E-03
    -19.147  0.0000E+00  0.4000E-03
    -19.064  0.0000E+00  0.4000E-03
    -18.981  0.0000E+00  0.4000E-03
    -18.898  0.0000E+00  0.4000E-03
    -18.815  0.0000E+00  0.4000E-03
    -18.732  0.0000E+00  0.4000E-03
    -18.649  0.0000E+00  0.4000E-03
    -18.566  0.0000E+00  0.4000E-03
    -18.483  0.0000E+00  0.4000E-03
    -18.400  0.0000E+00  0.4000E-03
    -18.317  0.0000E+00  0.4000E-03
    -18.234  0.0000E+00  0.4000E-03
    -18.151  0.0000E+00  0.4000E-03
    -18.068  0.0000E+00  0.4000E-03
    -17.985  0.0000E+00  0.4000E-03
    -17.902  0.2539E-15  0.4000E-03
    -17.819  0.9885E-12  0.4000E-03
    -17.736  0.1012E-08  0.4000E-03
    -17.653  0.2762E-06  0.4000E-03
    -17.570  0.2042E-04  0.4017E-03
    -17.487  0.4191E-03  0.4365E-03
    -17.404  0.2460E-02  0.6407E-03
    -17.321  0.4239E-02  0.9924E-03
    -17.238  0.2164E-02  0.1172E-02
    -17.155  0.3237E-03  0.1199E-02
    -17.072  0.1379E-04  0.1200E-02
    -16.989  0.1627E-06  0.1200E-02
    -16.906  0.5191E-09  0.1200E-02
    -16.823  0.4402E-12  0.1200E-02
    -16.740  0.9794E-16  0.1200E-02
    -16.657  0.0000E+00  0.1200E-02
    -16.574  0.0000E+00  0.1200E-02
    -16.491  0.0000E+00  0.1200E-02
    -16.408  0.0000E+00  0.1200E-02
    -16.326  0.0000E+00  0.1200E-02
    -16.243  0.0000E+00  0.1200E-02
    -16.160  0.0000E+00  0.1200E-02
    -16.077  0.0000E+00  0.1200E-02
    -15.994  0.0000E+00  0.1200E-02
    -15.911  0.0000E+00  0.1200E-02
    -15.828  0.0000E+00  0.1200E-02
    -15.745  0.0000E+00  0.1200E-02
    -15.662  0.0000E+00  0.1200E-02
    -15.579  0.0000E+00  0.1200E-02
    -15.496  0.0000E+00  0.1200E-02
    -15.413  0.0000E+00  0.1200E-02
    -15.330  0.0000E+00  0.1200E-02
    -15.247  0.0000E+00  0.1200E-02
    -15.164  0.0000E+00  0.1200E-02
    -15.081  0.0000E+00  0.1200E-02
    -14.998  0.0000E+00  0.1200E-02
    -14.915  0.0000E+00  0.1200E-02
    -14.832  0.0000E+00  0.1200E-02
    -14.749  0.0000E+00  0.1200E-02
    -14.666  0.0000E+00  0.1200E-02
    -14.583  0.0000E+00  0.1200E-02
    -14.500  0.0000E+00  0.1200E-02
    -14.417  0.0000E+00  0.1200E-02
    -14.334  0.0000E+00  0.1200E-02
    -14.251  0.0000E+00  0.1200E-02
    -14.168  0.0000E+00  0.1200E-02
    -14.085  0.0000E+00  0.1200E-02
    -14.002  0.0000E+00  0.1200E-02
    -13.919  0.0000E+00  0.1200E-02
    -13.836  0.0000E+00  0.1200E-02
    -13.753  0.4308E-16  0.1200E-02
    -13.670  0.2044E-12  0.1200E-02
    -13.587  0.2517E-09  0.1200E-02
    -13.504  0.8145E-07  0.1200E-02
    -13.421  0.7040E-05  0.1201E-02
    -13.338  0.1664E-03  0.1214E-02
    -13.255  0.1112E-02  0.1307E-02
    -13.172  0.2273E-02  0.1495E-02
    -13.089  0.2307E-02  0.1687E-02
    -13.006  0.2938E-02  0.1931E-02
    -12.923  0.2390E-02  0.2129E-02
    -12.840  0.8222E-03  0.2197E-02
    -12.757  0.5341E-03  0.2241E-02
    -12.674  0.1046E-02  0.2328E-02
    -12.591  0.7144E-03  0.2388E-02
    -12.508  0.1421E-03  0.2399E-02
    -12.425  0.8010E-05  0.2400E-02
    -12.342  0.1241E-06  0.2400E-02
    -12.259  0.5155E-09  0.2400E-02
    -12.176  0.5638E-12  0.2400E-02
    -12.094  0.1606E-15  0.2400E-02
    -12.011  0.0000E+00  0.2400E-02
    -11.928  0.0000E+00  0.2400E-02
    -11.845  0.0000E+00  0.2400E-02
    -11.762  0.0000E+00  0.2400E-02
    -11.679  0.0000E+00  0.2400E-02
    -11.596  0.0000E+00  0.2400E-02
    -11.513  0.0000E+00  0.2400E-02
    -11.430  0.0000E+00  0.2400E-02
    -11.347  0.0000E+00  0.2400E-02
    -11.264  0.0000E+00  0.2400E-02
    -11.181  0.0000E+00  0.2400E-02
    -11.098  0.0000E+00  0.2400E-02
    -11.015  0.0000E+00  0.2400E-02
    -10.932  0.0000E+00  0.2400E-02
    -10.849  0.0000E+00  0.2400E-02
    -10.766  0.0000E+00  0.2400E-02
    -10.683  0.8442E-16  0.2400E-02
    -10.600  0.3270E-12  0.2400E-02
    -10.517  0.3294E-09  0.2400E-02
    -10.434  0.8729E-07  0.2400E-02
    -10.351  0.6191E-05  0.2401E-02
    -10.268  0.1205E-03  0.2411E-02
    -10.185  0.6627E-03  0.2466E-02
    -10.102  0.1058E-02  0.2553E-02
    -10.019  0.4941E-03  0.2594E-02
     -9.936  0.7436E-04  0.2600E-02
     -9.853  0.1798E-03  0.2615E-02
     -9.770  0.1143E-02  0.2710E-02
     -9.687  0.2143E-02  0.2888E-02
     -9.604  0.1373E-02  0.3002E-02
     -9.521  0.1413E-02  0.3119E-02
     -9.438  0.2137E-02  0.3296E-02
     -9.355  0.1082E-02  0.3386E-02
     -9.272  0.1599E-03  0.3399E-02
     -9.189  0.3668E-04  0.3403E-02
     -9.106  0.4659E-03  0.3441E-02
     -9.023  0.2297E-02  0.3632E-02
     -8.940  0.4129E-02  0.3974E-02
     -8.857  0.3310E-02  0.4249E-02
     -8.774  0.1467E-02  0.4371E-02
     -8.691  0.3259E-03  0.4398E-02
     -8.608  0.2624E-04  0.4400E-02
     -8.525  0.6284E-06  0.4400E-02
     -8.442  0.4137E-08  0.4400E-02
     -8.359  0.7239E-11  0.4400E-02
     -8.276  0.3311E-14  0.4400E-02
     -8.193  0.5352E-18  0.4400E-02
     -8.110  0.0000E+00  0.4400E-02
     -8.027  0.0000E+00  0.4400E-02
     -7.944  0.0000E+00  0.4400E-02
     -7.861  0.0000E+00  0.4400E-02
     -7.779  0.0000E+00  0.4400E-02
     -7.696  0.0000E+00  0.4400E-02
     -7.613  0.0000E+00  0.4400E-02
     -7.530  0.0000E+00  0.4400E-02
     -7.447  0.0000E+00  0.4400E-02
     -7.364  0.0000E+00  0.4400E-02
     -7.281  0.0000E+00  0.4400E-02
     -7.198  0.9320E-15  0.4400E-02
     -7.115  0.2773E-11  0.4400E-02
     -7.032  0.2152E-08  0.4400E-02
     -6.949  0.4406E-06  0.4400E-02
     -6.866  0.2427E-04  0.4402E-02
     -6.783  0.3689E-03  0.4433E-02
     -6.700  0.1595E-02  0.4565E-02
     -6.617  0.2010E-02  0.4732E-02
     -6.534  0.7407E-03  0.4793E-02
     -6.451  0.7848E-04  0.4800E-02
     -6.368  0.3146E-05  0.4800E-02
     -6.285  0.3804E-04  0.4803E-02
     -6.202  0.4856E-03  0.4844E-02
     -6.119  0.1771E-02  0.4990E-02
     -6.036  0.1885E-02  0.5147E-02
     -5.953  0.5862E-03  0.5196E-02
     -5.870  0.5220E-04  0.5200E-02
     -5.787  0.1292E-05  0.5200E-02
     -5.704  0.8648E-08  0.5200E-02
     -5.621  0.1534E-10  0.5200E-02
     -5.538  0.7107E-14  0.5200E-02
     -5.455  0.1070E-17  0.5200E-02
     -5.372  0.0000E+00  0.5200E-02
     -5.289  0.1188E-15  0.5200E-02
     -5.206  0.4372E-12  0.5200E-02
     -5.123  0.4183E-09  0.5200E-02
     -5.040  0.1053E-06  0.5200E-02
     -4.957  0.7107E-05  0.5201E-02
     -4.874  0.1318E-03  0.5212E-02
     -4.791  0.7013E-03  0.5270E-02
     -4.708  0.1275E-02  0.5375E-02
     -4.625  0.1748E-02  0.5521E-02
     -4.542  0.2183E-02  0.5702E-02
     -4.459  0.1034E-02  0.5787E-02
     -4.376  0.1449E-03  0.5800E-02
     -4.293  0.5717E-05  0.5800E-02
     -4.210  0.6159E-07  0.5800E-02
     -4.127  0.1770E-09  0.5800E-02
     -4.044  0.1335E-12  0.5800E-02
     -3.961  0.2622E-16  0.5800E-02
     -3.878  0.0000E+00  0.5800E-02
     -3.795  0.0000E+00  0.5800E-02
     -3.712  0.0000E+00  0.5800E-02
     -3.629  0.0000E+00  0.5800E-02
     -3.547  0.0000E+00  0.5800E-02
     -3.464  0.0000E+00  0.5800E-02
     -3.381  0.0000E+00  0.5800E-02
     -3.298  0.0000E+00  0.5800E-02
     -3.215  0.0000E+00  0.5800E-02
     -3.132  0.0000E+00  0.5800E-02
     -3.049  0.0000E+00  0.5800E-02
     -2.966  0.0000E+00  0.5800E-02
     -2.883  0.0000E+00  0.5800E-02
     -2.800  0.0000E+00  0.5800E-02
     -2.717  0.0000E+00  0.5800E-02
     -2.634  0.1472E-17  0.5800E-02
     -2.551  0.1069E-13  0.5800E-02
     -2.468  0.2154E-10  0.5800E-02
     -2.385  0.1136E-07  0.5800E-02
     -2.302  0.1589E-05  0.5800E-02
     -2.219  0.6026E-04  0.5805E-02
     -2.136  0.6368E-03  0.5858E-02
     -2.053  0.1931E-02  0.6018E-02
     -1.970  0.1713E-02  0.6160E-02
     -1.887  0.4438E-03  0.6197E-02
     -1.804  0.3281E-04  0.6200E-02
     -1.721  0.6720E-06  0.6200E-02
     -1.638  0.3713E-08  0.6200E-02
     -1.555  0.5428E-11  0.6200E-02
     -1.472  0.2073E-14  0.6200E-02
     -1.389  0.0000E+00  0.6200E-02
     -1.306  0.0000E+00  0.6200E-02
     -1.223  0.0000E+00  0.6200E-02
     -1.140  0.0000E+00  0.6200E-02
     -1.057  0.0000E+00  0.6200E-02
     -0.974  0.1886E-15  0.6200E-02
     -0.891  0.6468E-12  0.6200E-02
     -0.808  0.5770E-09  0.6200E-02
     -0.725  0.1356E-06  0.6200E-02
     -0.642  0.8543E-05  0.6201E-02
     -0.559  0.1481E-03  0.6213E-02
     -0.476  0.7273E-03  0.6273E-02
     -0.393  0.1038E-02  0.6360E-02
     -0.310  0.4338E-03  0.6396E-02
     -0.227  0.5654E-04  0.6400E-02
     -0.144  0.1242E-03  0.6411E-02
     -0.061  0.1006E-02  0.6494E-02
      0.022  0.2647E-02  0.6714E-02
      0.105  0.2733E-02  0.6940E-02
      0.188  0.1994E-02  0.7106E-02
      0.271  0.2209E-02  0.7289E-02
      0.354  0.3199E-02  0.7555E-02
      0.437  0.4157E-02  0.7900E-02
      0.520  0.6069E-02  0.8403E-02
      0.603  0.7684E-02  0.9041E-02
      0.685  0.5195E-02  0.9472E-02
      0.768  0.1409E-02  0.9589E-02
      0.851  0.1305E-03  0.9600E-02
      0.934  0.3770E-05  0.9600E-02
      1.017  0.3210E-07  0.9600E-02
      1.100  0.7713E-10  0.9600E-02
      1.183  0.5058E-13  0.9600E-02
      1.266  0.8563E-17  0.9600E-02
      1.349  0.0000E+00  0.9600E-02
      1.432  0.0000E+00  0.9600E-02
      1.515  0.0000E+00  0.9600E-02
      1.598  0.0000E+00  0.9600E-02
      1.681  0.0000E+00  0.9600E-02
      1.764  0.0000E+00  0.9600E-02
