 vasp.5.4.1 05Feb16 (build Apr 21 2017 13:36:42) gamma-only                     
  
 executed on           IFC91_ompi date 2020.09.10  15:05:45
 running on   24 total cores
 distrk:  each k-point on   24 cores,    1 groups
 distr:  one band on NCORES_PER_BAND=   2 cores,   12 groups


--------------------------------------------------------------------------------------------------------


 INCAR:
 POTCAR:    PAW_PBE Co 02Aug2007                  
 POTCAR:    PAW_PBE C 08Apr2002                   
 POTCAR:    PAW_PBE H 15Jun2001                   
 POTCAR:    PAW_PBE C 08Apr2002                   
 POTCAR:    PAW_PBE H 15Jun2001                   

 ----------------------------------------------------------------------------- 
|                                                                             |
|           W    W    AA    RRRRR   N    N  II  N    N   GGGG   !!!           |
|           W    W   A  A   R    R  NN   N  II  NN   N  G    G  !!!           |
|           W    W  A    A  R    R  N N  N  II  N N  N  G       !!!           |
|           W WW W  AAAAAA  RRRRR   N  N N  II  N  N N  G  GGG   !            |
|           WW  WW  A    A  R   R   N   NN  II  N   NN  G    G                |
|           W    W  A    A  R    R  N    N  II  N    N   GGGG   !!!           |
|                                                                             |
|      For optimal performance we recommend to set                            |
|        NCORE= 4 - approx SQRT( number of cores)                             |
|      NCORE specifies how many cores store one orbital (NPAR=cpu/NCORE).     |
|      This setting can  greatly improve the performance of VASP for DFT.     |
|      The default, NPAR=number of cores might be grossly inefficient         |
|      on modern multi-core architectures or massively parallel machines.     |
|      Do your own testing !!!!                                               |
|      Unfortunately you need to use the default for GW and RPA calculations. |
|      (for HF NCORE is supported but not extensively tested yet)             |
|                                                                             |
 ----------------------------------------------------------------------------- 

 POTCAR:    PAW_PBE Co 02Aug2007                  
   VRHFIN =Co: d8 s1                                                            
   LEXCH  = PE                                                                  
   EATOM  =   813.3670 eV,   59.7808 Ry                                         
                                                                                
   TITEL  = PAW_PBE Co 02Aug2007                                                
   LULTRA =        F    use ultrasoft PP ?                                      
   IUNSCR =        1    unscreen: 0-lin 1-nonlin 2-no                           
   RPACOR =    2.000    partial core radius                                     
   POMASS =   58.933; ZVAL   =    9.000    mass and valenz                      
   RCORE  =    2.300    outmost cutoff radius                                   
   RWIGS  =    2.460; RWIGS  =    1.302    wigner-seitz radius (au A)           
   ENMAX  =  267.968; ENMIN  =  200.976 eV                                      
   RCLOC  =    1.203    cutoff for local pot                                    
   LCOR   =        T    correct aug charges                                     
   LPAW   =        T    paw PP                                                  
   EAUG   =  477.818                                                            
   DEXC   =    0.000                                                            
   RMAX   =    2.360    core radius for proj-oper                               
   RAUG   =    1.300    factor for augmentation sphere                          
   RDEP   =    2.393    radius for radial grids                                 
   RDEPT  =    1.864    core radius for aug-charge                              
                                                                                
   Atomic configuration                                                         
    9 entries                                                                   
     n  l   j            E        occ.                                          
     1  0  0.50     -7587.6674   2.0000                                         
     2  0  0.50      -893.6084   2.0000                                         
     2  1  1.50      -764.5805   6.0000                                         
     3  0  0.50       -97.5973   2.0000                                         
     3  1  1.50       -60.9648   6.0000                                         
     3  2  2.50        -4.2382   8.0000                                         
     4  0  0.50        -4.3746   1.0000                                         
     4  1  1.50        -4.0817   0.0000                                         
     4  3  2.50        -1.3606   0.0000                                         
   Description                                                                  
     l       E           TYP  RCUT    TYP  RCUT                                 
     2     -4.2382362     23  2.300                                             
     2     -5.5988188     23  2.300                                             
     0     -4.3745797     23  2.300                                             
     0      5.7660125     23  2.300                                             
     1     -2.7211652     23  2.300                                             
     1     16.9860234     23  2.300                                             
  local pseudopotential read in
  partial core-charges read in
  partial kinetic energy density read in
  atomic valenz-charges read in
  non local Contribution for L=           2  read in
    real space projection operators read in
  non local Contribution for L=           2  read in
    real space projection operators read in
  non local Contribution for L=           0  read in
    real space projection operators read in
  non local Contribution for L=           0  read in
    real space projection operators read in
  non local Contribution for L=           1  read in
    real space projection operators read in
  non local Contribution for L=           1  read in
    real space projection operators read in
    PAW grid and wavefunctions read in
 
   number of l-projection  operators is LMAX  =           6
   number of lm-projection operators is LMMAX =          18
 
 POTCAR:    PAW_PBE C 08Apr2002                   
   VRHFIN =C: s2p2                                                              
   LEXCH  = PE                                                                  
   EATOM  =   147.1560 eV,   10.8157 Ry                                         
                                                                                
   TITEL  = PAW_PBE C 08Apr2002                                                 
   LULTRA =        F    use ultrasoft PP ?                                      
   IUNSCR =        1    unscreen: 0-lin 1-nonlin 2-no                           
   RPACOR =    1.200    partial core radius                                     
   POMASS =   12.011; ZVAL   =    4.000    mass and valenz                      
   RCORE  =    1.500    outmost cutoff radius                                   
   RWIGS  =    1.630; RWIGS  =    0.863    wigner-seitz radius (au A)           
   ENMAX  =  400.000; ENMIN  =  300.000 eV                                      
   ICORE  =        2    local potential                                         
   LCOR   =        T    correct aug charges                                     
   LPAW   =        T    paw PP                                                  
   EAUG   =  644.873                                                            
   DEXC   =    0.000                                                            
   RMAX   =    1.529    core radius for proj-oper                               
   RAUG   =    1.300    factor for augmentation sphere                          
   RDEP   =    1.501    radius for radial grids                                 
   RDEPT  =    1.300    core radius for aug-charge                              
                                                                                
   Atomic configuration                                                         
    4 entries                                                                   
     n  l   j            E        occ.                                          
     1  0  0.50      -273.3789   2.0000                                         
     2  0  0.50       -13.7508   2.0000                                         
     2  1  0.50        -5.2854   2.0000                                         
     3  2  1.50        -5.4423   0.0000                                         
   Description                                                                  
     l       E           TYP  RCUT    TYP  RCUT                                 
     0    -13.7508458     23  1.200                                             
     0     -8.2022199     23  1.200                                             
     1     -5.2854383     23  1.500                                             
     1     34.0145650     23  1.500                                             
     2     -5.4423304      7  1.500                                             
  local pseudopotential read in
  partial core-charges read in
  partial kinetic energy density read in
  atomic valenz-charges read in
  non local Contribution for L=           0  read in
    real space projection operators read in
  non local Contribution for L=           0  read in
    real space projection operators read in
  non local Contribution for L=           1  read in
    real space projection operators read in
  non local Contribution for L=           1  read in
    real space projection operators read in
    PAW grid and wavefunctions read in
 
   number of l-projection  operators is LMAX  =           4
   number of lm-projection operators is LMMAX =           8
 
 POTCAR:    PAW_PBE H 15Jun2001                   
   VRHFIN =H: ultrasoft test                                                    
   LEXCH  = PE                                                                  
   EATOM  =    12.4884 eV,    0.9179 Ry                                         
                                                                                
   TITEL  = PAW_PBE H 15Jun2001                                                 
   LULTRA =        F    use ultrasoft PP ?                                      
   IUNSCR =        0    unscreen: 0-lin 1-nonlin 2-no                           
   RPACOR =    0.000    partial core radius                                     
   POMASS =    1.000; ZVAL   =    1.000    mass and valenz                      
   RCORE  =    1.100    outmost cutoff radius                                   
   RWIGS  =    0.700; RWIGS  =    0.370    wigner-seitz radius (au A)           
   ENMAX  =  250.000; ENMIN  =  200.000 eV                                      
   RCLOC  =    0.701    cutoff for local pot                                    
   LCOR   =        T    correct aug charges                                     
   LPAW   =        T    paw PP                                                  
   EAUG   =  400.000                                                            
   RMAX   =    1.123    core radius for proj-oper                               
   RAUG   =    1.200    factor for augmentation sphere                          
   RDEP   =    1.112    radius for radial grids                                 
   RDEPT  =    0.926    core radius for aug-charge                              
                                                                                
   Atomic configuration                                                         
    2 entries                                                                   
     n  l   j            E        occ.                                          
     1  0  0.50        -6.4927   1.0000                                         
     2  1  0.50        -3.4015   0.0000                                         
   Description                                                                  
     l       E           TYP  RCUT    TYP  RCUT                                 
     0     -6.4927494     23  1.100                                             
     0      6.8029130     23  1.100                                             
     1     -4.0817478     23  1.100                                             
  local pseudopotential read in
  atomic valenz-charges read in
  non local Contribution for L=           0  read in
    real space projection operators read in
  non local Contribution for L=           0  read in
    real space projection operators read in
  non local Contribution for L=           1  read in
    real space projection operators read in
    PAW grid and wavefunctions read in
 
   number of l-projection  operators is LMAX  =           3
   number of lm-projection operators is LMMAX =           5
 
 POTCAR:    PAW_PBE C 08Apr2002                   
   VRHFIN =C: s2p2                                                              
   LEXCH  = PE                                                                  
   EATOM  =   147.1560 eV,   10.8157 Ry                                         
                                                                                
   TITEL  = PAW_PBE C 08Apr2002                                                 
   LULTRA =        F    use ultrasoft PP ?                                      
   IUNSCR =        1    unscreen: 0-lin 1-nonlin 2-no                           
   RPACOR =    1.200    partial core radius                                     
   POMASS =   12.011; ZVAL   =    4.000    mass and valenz                      
   RCORE  =    1.500    outmost cutoff radius                                   
   RWIGS  =    1.630; RWIGS  =    0.863    wigner-seitz radius (au A)           
   ENMAX  =  400.000; ENMIN  =  300.000 eV                                      
   ICORE  =        2    local potential                                         
   LCOR   =        T    correct aug charges                                     
   LPAW   =        T    paw PP                                                  
   EAUG   =  644.873                                                            
   DEXC   =    0.000                                                            
   RMAX   =    1.529    core radius for proj-oper                               
   RAUG   =    1.300    factor for augmentation sphere                          
   RDEP   =    1.501    radius for radial grids                                 
   RDEPT  =    1.300    core radius for aug-charge                              
                                                                                
   Atomic configuration                                                         
    4 entries                                                                   
     n  l   j            E        occ.                                          
     1  0  0.50      -273.3789   2.0000                                         
     2  0  0.50       -13.7508   2.0000                                         
     2  1  0.50        -5.2854   2.0000                                         
     3  2  1.50        -5.4423   0.0000                                         
   Description                                                                  
     l       E           TYP  RCUT    TYP  RCUT                                 
     0    -13.7508458     23  1.200                                             
     0     -8.2022199     23  1.200                                             
     1     -5.2854383     23  1.500                                             
     1     34.0145650     23  1.500                                             
     2     -5.4423304      7  1.500                                             
  local pseudopotential read in
  partial core-charges read in
  partial kinetic energy density read in
  atomic valenz-charges read in
  non local Contribution for L=           0  read in
    real space projection operators read in
  non local Contribution for L=           0  read in
    real space projection operators read in
  non local Contribution for L=           1  read in
    real space projection operators read in
  non local Contribution for L=           1  read in
    real space projection operators read in
    PAW grid and wavefunctions read in
 
   number of l-projection  operators is LMAX  =           4
   number of lm-projection operators is LMMAX =           8
 
 POTCAR:    PAW_PBE H 15Jun2001                   
   VRHFIN =H: ultrasoft test                                                    
   LEXCH  = PE                                                                  
   EATOM  =    12.4884 eV,    0.9179 Ry                                         
                                                                                
   TITEL  = PAW_PBE H 15Jun2001                                                 
   LULTRA =        F    use ultrasoft PP ?                                      
   IUNSCR =        0    unscreen: 0-lin 1-nonlin 2-no                           
   RPACOR =    0.000    partial core radius                                     
   POMASS =    1.000; ZVAL   =    1.000    mass and valenz                      
   RCORE  =    1.100    outmost cutoff radius                                   
   RWIGS  =    0.700; RWIGS  =    0.370    wigner-seitz radius (au A)           
   ENMAX  =  250.000; ENMIN  =  200.000 eV                                      
   RCLOC  =    0.701    cutoff for local pot                                    
   LCOR   =        T    correct aug charges                                     
   LPAW   =        T    paw PP                                                  
   EAUG   =  400.000                                                            
   RMAX   =    1.123    core radius for proj-oper                               
   RAUG   =    1.200    factor for augmentation sphere                          
   RDEP   =    1.112    radius for radial grids                                 
   RDEPT  =    0.926    core radius for aug-charge                              
                                                                                
   Atomic configuration                                                         
    2 entries                                                                   
     n  l   j            E        occ.                                          
     1  0  0.50        -6.4927   1.0000                                         
     2  1  0.50        -3.4015   0.0000                                         
   Description                                                                  
     l       E           TYP  RCUT    TYP  RCUT                                 
     0     -6.4927494     23  1.100                                             
     0      6.8029130     23  1.100                                             
     1     -4.0817478     23  1.100                                             
  local pseudopotential read in
  atomic valenz-charges read in
  non local Contribution for L=           0  read in
    real space projection operators read in
  non local Contribution for L=           0  read in
    real space projection operators read in
  non local Contribution for L=           1  read in
    real space projection operators read in
    PAW grid and wavefunctions read in
 
   number of l-projection  operators is LMAX  =           3
   number of lm-projection operators is LMMAX =           5
 
 Optimization of the real space projectors (new method)

 maximal supplied QI-value         = 16.25
 optimisation between [QCUT,QGAM] = [ 10.24, 20.48] = [ 29.35,117.42] Ry 
 Optimized for a Real-space Cutoff    1.51 Angstroem

   l    n(q)    QCUT    max X(q) W(low)/X(q) W(high)/X(q)  e(spline) 
   2      8    10.239    65.824    0.20E-03    0.32E-03    0.24E-06
   2      8    10.239    61.429    0.20E-03    0.32E-03    0.24E-06
   0      9    10.239    56.174    0.11E-03    0.60E-04    0.77E-07
   0      9    10.239    31.263    0.96E-04    0.56E-04    0.69E-07
   1      9    10.239    19.828    0.36E-04    0.15E-03    0.11E-06
   1      9    10.239    15.139    0.28E-04    0.12E-03    0.10E-06
 Optimization of the real space projectors (new method)

 maximal supplied QI-value         = 25.13
 optimisation between [QCUT,QGAM] = [ 10.05, 20.36] = [ 28.30,116.06] Ry 
 Optimized for a Real-space Cutoff    1.51 Angstroem

   l    n(q)    QCUT    max X(q) W(low)/X(q) W(high)/X(q)  e(spline) 
   0      9    10.053   115.676    0.19E-03    0.21E-03    0.38E-06
   0      9    10.053    87.132    0.19E-03    0.21E-03    0.38E-06
   1      9    10.053     4.429    0.87E-04    0.11E-03    0.39E-06
   1      9    10.053     2.733    0.59E-04    0.62E-04    0.43E-06
 Optimization of the real space projectors (new method)

 maximal supplied QI-value         = 34.20
 optimisation between [QCUT,QGAM] = [  9.92, 20.18] = [ 27.55,114.04] Ry 
 Optimized for a Real-space Cutoff    1.34 Angstroem

   l    n(q)    QCUT    max X(q) W(low)/X(q) W(high)/X(q)  e(spline) 
   0      8     9.919    19.460    0.16E-03    0.20E-03    0.36E-06
   0      8     9.919    12.209    0.16E-03    0.20E-03    0.35E-06
   1      8     9.919     4.655    0.19E-03    0.46E-03    0.40E-06
 Optimization of the real space projectors (new method)

 maximal supplied QI-value         = 25.13
 optimisation between [QCUT,QGAM] = [ 10.05, 20.36] = [ 28.30,116.06] Ry 
 Optimized for a Real-space Cutoff    1.51 Angstroem

   l    n(q)    QCUT    max X(q) W(low)/X(q) W(high)/X(q)  e(spline) 
   0      9    10.053   115.676    0.19E-03    0.21E-03    0.38E-06
   0      9    10.053    87.132    0.19E-03    0.21E-03    0.38E-06
   1      9    10.053     4.429    0.87E-04    0.11E-03    0.39E-06
   1      9    10.053     2.733    0.59E-04    0.62E-04    0.43E-06
 Optimization of the real space projectors (new method)

 maximal supplied QI-value         = 34.20
 optimisation between [QCUT,QGAM] = [  9.92, 20.18] = [ 27.55,114.04] Ry 
 Optimized for a Real-space Cutoff    1.34 Angstroem

   l    n(q)    QCUT    max X(q) W(low)/X(q) W(high)/X(q)  e(spline) 
   0      8     9.919    19.460    0.16E-03    0.20E-03    0.36E-06
   0      8     9.919    12.209    0.16E-03    0.20E-03    0.35E-06
   1      8     9.919     4.655    0.19E-03    0.46E-03    0.40E-06
  PAW_PBE Co 02Aug2007                  :
 energy of atom  1       EATOM= -813.3670
 kinetic energy error for atom=    0.0093 (will be added to EATOM!!)
  PAW_PBE C 08Apr2002                   :
 energy of atom  2       EATOM= -147.1560
 kinetic energy error for atom=    0.0288 (will be added to EATOM!!)
  PAW_PBE H 15Jun2001                   :
 energy of atom  3       EATOM=  -12.4884
 kinetic energy error for atom=    0.0098 (will be added to EATOM!!)
  PAW_PBE C 08Apr2002                   :
 energy of atom  4       EATOM= -147.1560
 kinetic energy error for atom=    0.0288 (will be added to EATOM!!)
  PAW_PBE H 15Jun2001                   :
 energy of atom  5       EATOM=  -12.4884
 kinetic energy error for atom=    0.0098 (will be added to EATOM!!)
 
 
 POSCAR: cobaltocene.pdb                         
  positions in cartesian coordinates
  No initial velocities read in
 exchange correlation table for  LEXCH =        8
   RHO(1)=    0.500       N(1)  =     2000
   RHO(2)=  100.500       N(2)  =     4000

 VTST: version 3.1, (03/28/14)

 CHAIN: initializing optimizer
 
 OPT: Using VASP Conjugate-Gradient optimizer
 CHAIN: Read ICHAIN            0
 
 POSCAR: cobaltocene.pdb                         
  positions in cartesian coordinates
  No initial velocities read in
 


--------------------------------------------------------------------------------------------------------


 ion  position               nearest neighbor table
   1  0.827  0.159  0.898-  14 2.26  11 2.27  15 2.28  13 2.28  12 2.28   2 2.30   5 2.32   6 2.32
                             3 2.35   4 2.37
   2  0.793  0.219  0.990-   9 1.11   1 2.30
   3  0.860  0.270  0.922-  10 1.11   1 2.35
   4  0.832  0.120  0.010-   8 1.10   1 2.37
   5  0.918  0.106  0.947-   7 1.10   1 2.32
   6  0.936  0.199  0.893-  21 1.11   1 2.32
   7  0.931  0.057  0.927-   5 1.10
   8  0.797  0.079  0.017-   4 1.10
   9  0.749  0.240  0.017-   2 1.11
  10  0.834  0.298  0.882-   3 1.11
  11  0.754  0.223  0.840-  19 1.10   1 2.27
  12  0.858  0.083  0.819-  17 1.10   1 2.28
  13  0.842  0.185  0.788-  20 1.11   1 2.28
  14  0.780  0.057  0.890-  18 1.11   1 2.26
  15  0.715  0.142  0.901-  16 1.10   1 2.28
  16  0.694  0.156  0.950-  15 1.10
  17  0.910  0.064  0.825-  12 1.10
  18  0.788  0.021  0.932-  14 1.11
  19  0.755  0.274  0.859-  11 1.10
  20  0.886  0.218  0.782-  13 1.11
  21  0.949  0.198  0.839-   6 1.11
 
  LATTYP: Found a simple cubic cell.
 ALAT       =    20.0000000000
  
  Lattice vectors:
  
 A1 = (  20.0000000000,   0.0000000000,   0.0000000000)
 A2 = (   0.0000000000,  20.0000000000,   0.0000000000)
 A3 = (   0.0000000000,   0.0000000000,  20.0000000000)


Analysis of symmetry for initial positions (statically):
=====================================================================
 Subroutine PRICEL returns:
 Original cell was already a primitive cell.
 

 Routine SETGRP: Setting up the symmetry group for a 
 simple cubic supercell.


 Subroutine GETGRP returns: Found  1 space group operations
 (whereof  1 operations were pure point group operations)
 out of a pool of 48 trial point group operations.


The static configuration has the point symmetry C_1 .


Analysis of symmetry for dynamics (positions and initial velocities):
=====================================================================
 Subroutine PRICEL returns:
 Original cell was already a primitive cell.
 

 Routine SETGRP: Setting up the symmetry group for a 
 simple cubic supercell.


 Subroutine GETGRP returns: Found  1 space group operations
 (whereof  1 operations were pure point group operations)
 out of a pool of 48 trial point group operations.


The dynamic configuration has the point symmetry C_1 .


 Subroutine INISYM returns: Found  1 space group operations
 (whereof  1 operations are pure point group operations),
 and found     1 'primitive' translations

 
 
 KPOINTS: Gamma-point only                        
  k-points in reciprocal lattice
Space group operators:
 irot       det(A)        alpha          n_x          n_y          n_z        tau_x        tau_y        tau_z
    1     1.000000     0.000000     1.000000     0.000000     0.000000     0.000000     0.000000     0.000000


--------------------------------------------------------------------------------------------------------




 Dimension of arrays:
   k-points           NKPTS =      1   k-points in BZ     NKDIM =      1   number of bands    NBANDS=     48
   number of dos      NEDOS =    301   number of ions     NIONS =     21
   non local maximal  LDIM  =      6   non local SUM 2l+1 LMDIM =     18
   total plane-waves  NPLWV = ******
   max r-space proj   IRMAX =   4982   max aug-charges    IRDMAX=  13725
   dimension x,y,z NGX =   140 NGY =  140 NGZ =  140
   dimension x,y,z NGXF=   280 NGYF=  280 NGZF=  280
   support grid    NGXF=   280 NGYF=  280 NGZF=  280
   ions per type =               1   5   4   5   6
 NGX,Y,Z   is equivalent  to a cutoff of  11.64, 11.64, 11.64 a.u.
 NGXF,Y,Z  is equivalent  to a cutoff of  23.27, 23.27, 23.27 a.u.


 I would recommend the setting:
   dimension x,y,z NGX =   130 NGY =  130 NGZ =  130
 SYSTEM =  basalPlane                              
 POSCAR =  cobaltocene.pdb                         

 Startparameter for this run:
   NWRITE =      2    write-flag & timer
   PREC   = accura    normal or accurate (medium, high low for compatibility)
   ISTART =      0    job   : 0-new  1-cont  2-samecut
   ICHARG =      2    charge: 1-file 2-atom 10-const
   ISPIN  =      1    spin polarized calculation?
   LNONCOLLINEAR =      F non collinear calculations
   LSORBIT =      F    spin-orbit coupling
   INIWAV =      1    electr: 0-lowe 1-rand  2-diag
   LASPH  =      F    aspherical Exc in radial PAW
   METAGGA=      F    non-selfconsistent MetaGGA calc.

 Electronic Relaxation 1
   ENCUT  =  400.0 eV  29.40 Ry    5.42 a.u.  32.61 32.61 32.61*2*pi/ulx,y,z
   ENINI  =  400.0     initial cutoff
   ENAUG  =  645.0 eV  augmentation charge cutoff
   NELM   =    200;   NELMIN=  2; NELMDL= -5     # of ELM steps 
   EDIFF  = 0.1E-03   stopping-criterion for ELM
   LREAL  =      T    real-space projection
   NLSPLINE    = F    spline interpolate recip. space projectors
   LCOMPAT=      F    compatible to vasp.4.4
   GGA_COMPAT  = T    GGA compatible to vasp.4.4-vasp.4.6
   LMAXPAW     = -100 max onsite density
   LMAXMIX     =    2 max onsite mixed and CHGCAR
   VOSKOWN=      0    Vosko Wilk Nusair interpolation
   ROPT   =   -0.00025  -0.00025  -0.00025  -0.00025
   ROPT   =   -0.00025
 Ionic relaxation
   EDIFFG = -.2E-01   stopping-criterion for IOM
   NSW    =  10000    number of steps for IOM
   NBLOCK =      1;   KBLOCK =  10000    inner block; outer block 
   IBRION =      2    ionic relax: 0-MD 1-quasi-New 2-CG
   NFREE  =      1    steps in history (QN), initial steepest desc. (CG)
   ISIF   =      2    stress and relaxation
   IWAVPR =     11    prediction:  0-non 1-charg 2-wave 3-comb
   ISYM   =      2    0-nonsym 1-usesym 2-fastsym
   LCORR  =      T    Harris-Foulkes like correction to forces

   POTIM  = 0.5000    time-step for ionic-motion
   TEIN   =    0.0    initial temperature
   TEBEG  =    0.0;   TEEND  =   0.0 temperature during run
   SMASS  =  -3.00    Nose mass-parameter (am)
   estimated Nose-frequenzy (Omega)   =  0.10E-29 period in steps =****** mass=  -0.914E-26a.u.
   SCALEE = 1.0000    scale energy and forces
   NPACO  =    256;   APACO  = 16.0  distance and # of slots for P.C.
   PSTRESS=    0.0 pullay stress

  Mass of Ions in am
   POMASS =  58.93 12.01  1.00 12.01  1.00
  Ionic Valenz
   ZVAL   =   9.00  4.00  1.00  4.00  1.00
  Atomic Wigner-Seitz radii
   RWIGS  =  -1.00 -1.00 -1.00 -1.00 -1.00
  virtual crystal weights 
   VCA    =   1.00  1.00  1.00  1.00  1.00
   NELECT =      59.0000    total number of electrons
   NUPDOWN=      -1.0000    fix difference up-down

 DOS related values:
   EMIN   =  10.00;   EMAX   =-10.00  energy-range for DOS
   EFERMI =   0.00
   ISMEAR =     0;   SIGMA  =   0.10  broadening in eV -4-tet -1-fermi 0-gaus

 Electronic relaxation 2 (details)
   IALGO  =     38    algorithm
   LDIAG  =      T    sub-space diagonalisation (order eigenvalues)
   LSUBROT=      F    optimize rotation matrix (better conditioning)
   TURBO    =      0    0=normal 1=particle mesh
   IRESTART =      0    0=no restart 2=restart with 2 vectors
   NREBOOT  =      0    no. of reboots
   NMIN     =      0    reboot dimension
   EREF     =   0.00    reference energy to select bands
   IMIX   =      4    mixing-type and parameters
     AMIX     =   0.40;   BMIX     =  1.00
     AMIX_MAG =   1.60;   BMIX_MAG =  1.00
     AMIN     =   0.10
     WC   =   100.;   INIMIX=   1;  MIXPRE=   1;  MAXMIX= -45

 Intra band minimization:
   WEIMIN = 0.0010     energy-eigenvalue tresh-hold
   EBREAK =  0.52E-06  absolut break condition
   DEPER  =   0.30     relativ break condition  

   TIME   =   0.40     timestep for ELM

  volume/ion in A,a.u.               =     380.95      2570.79
  Fermi-wavevector in a.u.,A,eV,Ry     =   0.318661  0.602182  1.381601  0.101545
  Thomas-Fermi vector in A             =   1.203700
 
 Write flags
   LWAVE  =      F    write WAVECAR
   LCHARG =      F    write CHGCAR
   LVTOT  =      F    write LOCPOT, total local potential
   LVHAR  =      F    write LOCPOT, Hartree potential only
   LELF   =      F    write electronic localiz. function (ELF)
   LORBIT =      0    0 simple, 1 ext, 2 COOP (PROOUT)


 Dipole corrections
   LMONO  =      F    monopole corrections only (constant potential shift)
   LDIPOL =      F    correct potential (dipole corrections)
   IDIPOL =      0    1-x, 2-y, 3-z, 4-all directions 
   EPSILON=  1.0000000 bulk dielectric constant

 Exchange correlation treatment:
   GGA     =    --    GGA type
   LEXCH   =     8    internal setting for exchange type
   VOSKOWN=      0    Vosko Wilk Nusair interpolation
   LHFCALC =     F    Hartree Fock is set to
   LHFONE  =     F    Hartree Fock one center treatment
   AEXX    =    0.0000 exact exchange contribution

 Linear response parameters
   LEPSILON=     F    determine dielectric tensor
   LRPA    =     F    only Hartree local field effects (RPA)
   LNABLA  =     F    use nabla operator in PAW spheres
   LVEL    =     F    velocity operator in full k-point grid
   LINTERFAST=   F  fast interpolation
   KINTER  =     0    interpolate to denser k-point grid
   CSHIFT  =0.1000    complex shift for real part using Kramers Kronig
   OMEGAMAX=  -1.0    maximum frequency
   DEG_THRESHOLD= 0.2000000E-02 threshold for treating states as degnerate
   RTIME   =    0.100 relaxation time in fs

 Orbital magnetization related:
   ORBITALMAG=     F  switch on orbital magnetization
   LCHIMAG   =     F  perturbation theory with respect to B field
   DQ        =  0.001000  dq finite difference perturbation B field



--------------------------------------------------------------------------------------------------------


 conjugate gradient relaxation of ions
 charge density and potential will be updated during run
 non-spin polarized calculation
 Variant of blocked Davidson
 Davidson routine will perform the subspace rotation
 perform sub-space diagonalisation
    after iterative eigenvector-optimisation
 modified Broyden-mixing scheme, WC =      100.0
 initial mixing is a Kerker type mixing with AMIX =  0.4000 and BMIX =      1.0000
 Hartree-type preconditioning will be used
 using additional bands           18
 real space projection scheme for non local part
 use partial core corrections
 calculate Harris-corrections to forces 
   (improved forces if not selfconsistent)
 use gradient corrections 
 use of overlap-Matrix (Vanderbilt PP)
 Gauss-broadening in eV      SIGMA  =   0.10


--------------------------------------------------------------------------------------------------------


  energy-cutoff  :      400.00
  volume of cell :     8000.00
      direct lattice vectors                 reciprocal lattice vectors
    20.000000000  0.000000000  0.000000000     0.050000000  0.000000000  0.000000000
     0.000000000 20.000000000  0.000000000     0.000000000  0.050000000  0.000000000
     0.000000000  0.000000000 20.000000000     0.000000000  0.000000000  0.050000000

  length of vectors
    20.000000000 20.000000000 20.000000000     0.050000000  0.050000000  0.050000000


 
 k-points in units of 2pi/SCALE and weight: Gamma-point only                        
   0.00000000  0.00000000  0.00000000       1.000
 
 k-points in reciprocal lattice and weights: Gamma-point only                        
   0.00000000  0.00000000  0.00000000       1.000
 
 position of ions in fractional coordinates (direct lattice) 
   0.82730000  0.15925000  0.89830000
   0.79305000  0.21920000  0.99000000
   0.86010000  0.26965000  0.92200000
   0.83180000  0.12030000  0.01030000
   0.91815000  0.10645000  0.94690000
   0.93645000  0.19865000  0.89320000
   0.93105000  0.05665000  0.92685000
   0.79660000  0.07870000  0.01750000
   0.74895000  0.24000000  0.01665000
   0.83435000  0.29770000  0.88170000
   0.75390000  0.22270000  0.83975000
   0.85830000  0.08270000  0.81950000
   0.84180000  0.18520000  0.78830000
   0.78015000  0.05665000  0.89005000
   0.71470000  0.14245000  0.90135000
   0.69355000  0.15610000  0.95050000
   0.90970000  0.06380000  0.82550000
   0.78825000  0.02100000  0.93155000
   0.75550000  0.27435000  0.85925000
   0.88615000  0.21760000  0.78210000
   0.94895000  0.19795000  0.83925000
 
 position of ions in cartesian coordinates  (Angst):
  16.54600000  3.18500000 17.96600000
  15.86100000  4.38400000 19.80000000
  17.20200000  5.39300000 18.44000000
  16.63600000  2.40600000  0.20600000
  18.36300000  2.12900000 18.93800000
  18.72900000  3.97300000 17.86400000
  18.62100000  1.13300000 18.53700000
  15.93200000  1.57400000  0.35000000
  14.97900000  4.80000000  0.33300000
  16.68700000  5.95400000 17.63400000
  15.07800000  4.45400000 16.79500000
  17.16600000  1.65400000 16.39000000
  16.83600000  3.70400000 15.76600000
  15.60300000  1.13300000 17.80100000
  14.29400000  2.84900000 18.02700000
  13.87100000  3.12200000 19.01000000
  18.19400000  1.27600000 16.51000000
  15.76500000  0.42000000 18.63100000
  15.11000000  5.48700000 17.18500000
  17.72300000  4.35200000 15.64200000
  18.97900000  3.95900000 16.78500000
 


--------------------------------------------------------------------------------------------------------


 use parallel FFT for wavefunctions z direction half grid
 k-point  1 :   0.0000 0.0000 0.0000  plane waves:   72583

 maximum and minimum number of plane-waves per node :     36292    36291

 maximum number of plane-waves:     72583
 maximum index in each direction: 
   IXMAX=   32   IYMAX=   32   IZMAX=   32
   IXMIN=  -32   IYMIN=  -32   IZMIN=    0

 NGX is ok and might be reduce to 130
 NGY is ok and might be reduce to 130
 NGZ is ok and might be reduce to 130

 real space projection operators:
  total allocation   :       4974.16 KBytes
  max/ min on nodes  :       2487.78       2486.38


 parallel 3D FFT for wavefunctions:
    minimum data exchange during FFTs selected (reduces bandwidth)
 parallel 3D FFT for charge:
    minimum data exchange during FFTs selected (reduces bandwidth)


 total amount of memory used by VASP on root node   226320. kBytes
========================================================================

   base      :      30000. kBytes
   nonlr-proj:       3055. kBytes
   fftplans  :      60125. kBytes
   grid      :     130730. kBytes
   one-center:         85. kBytes
   wavefun   :       2325. kBytes
 
     INWAV:  cpu time    0.0001: real time    0.0004
 Broyden mixing: mesh for mixing (old mesh)
   NGX = 65   NGY = 65   NGZ = 65
  (NGX  =280   NGY  =280   NGZ  =280)
  gives a total of 274625 points

 initial charge density was supplied:
 charge density of overlapping atoms calculated
 number of electron      59.0000000 magnetization 
 keeping initial charge density in first step


--------------------------------------------------------------------------------------------------------


 Maximum index for non-local projection operator         2401
 Maximum index for augmentation-charges          453 (set IRDMAX)


--------------------------------------------------------------------------------------------------------


 First call to EWALD:  gamma=   0.089
 Maximum number of real-space cells 3x 3x 3
 Maximum number of reciprocal cells 3x 3x 3

 FEWALD executed in parallel
    FEWALD:  cpu time    0.0019: real time    0.0019


----------------------------------------- Iteration    1(   1)  ---------------------------------------


    POTLOK:  cpu time    1.0517: real time    1.0525
    SETDIJ:  cpu time    0.0053: real time    0.0053
     EDDAV:  cpu time    2.1050: real time    2.1109
       DOS:  cpu time    0.0014: real time    0.0014
    --------------------------------------------
      LOOP:  cpu time    3.1711: real time    3.1804

 eigenvalue-minimisations  :   120
 total energy-change (2. order) : 0.3539651E+03  (-0.1157621E+04)
 number of electron      59.0000000 magnetization 
 augmentation part       59.0000000 magnetization 

 Free energy of the ion-electron system (eV)
  ---------------------------------------------------
  alpha Z        PSCENC =         2.04134517
  Ewald energy   TEWEN  =      4660.57468141
  -Hartree energ DENC   =     -6546.60783372
  -exchange      EXHF   =         0.00000000
  -V(xc)+E(xc)   XCENC  =       157.84429949
  PAW double counting   =      1827.57201779    -1886.38481159
  entropy T*S    EENTRO =        -0.06597525
  eigenvalues    EBANDS =      -270.42492952
  atomic energy  EATOM  =      2409.41629947
  Solvation  Ediel_sol  =         0.00000000
  ---------------------------------------------------
  free energy    TOTEN  =       353.96509326 eV

  energy without entropy =      354.03106851  energy(sigma->0) =      353.99808089


--------------------------------------------------------------------------------------------------------




----------------------------------------- Iteration    1(   2)  ---------------------------------------


     EDDAV:  cpu time    2.8455: real time    2.8467
       DOS:  cpu time    0.0009: real time    0.0009
    --------------------------------------------
      LOOP:  cpu time    2.8476: real time    2.8503

 eigenvalue-minimisations  :   168
 total energy-change (2. order) :-0.2959816E+03  (-0.2747057E+03)
 number of electron      59.0000000 magnetization 
 augmentation part       59.0000000 magnetization 

 Free energy of the ion-electron system (eV)
  ---------------------------------------------------
  alpha Z        PSCENC =         2.04134517
  Ewald energy   TEWEN  =      4660.57468141
  -Hartree energ DENC   =     -6546.60783372
  -exchange      EXHF   =         0.00000000
  -V(xc)+E(xc)   XCENC  =       157.84429949
  PAW double counting   =      1827.57201779    -1886.38481159
  entropy T*S    EENTRO =        -0.05643652
  eigenvalues    EBANDS =      -566.41607374
  atomic energy  EATOM  =      2409.41629947
  Solvation  Ediel_sol  =         0.00000000
  ---------------------------------------------------
  free energy    TOTEN  =        57.98348777 eV

  energy without entropy =       58.03992428  energy(sigma->0) =       58.01170603


--------------------------------------------------------------------------------------------------------




----------------------------------------- Iteration    1(   3)  ---------------------------------------


     EDDAV:  cpu time    2.3352: real time    2.3370
       DOS:  cpu time    0.0010: real time    0.0010
    --------------------------------------------
      LOOP:  cpu time    2.3371: real time    2.3403

 eigenvalue-minimisations  :   132
 total energy-change (2. order) :-0.1430884E+03  (-0.1405875E+03)
 number of electron      59.0000000 magnetization 
 augmentation part       59.0000000 magnetization 

 Free energy of the ion-electron system (eV)
  ---------------------------------------------------
  alpha Z        PSCENC =         2.04134517
  Ewald energy   TEWEN  =      4660.57468141
  -Hartree energ DENC   =     -6546.60783372
  -exchange      EXHF   =         0.00000000
  -V(xc)+E(xc)   XCENC  =       157.84429949
  PAW double counting   =      1827.57201779    -1886.38481159
  entropy T*S    EENTRO =        -0.06048652
  eigenvalues    EBANDS =      -709.50040014
  atomic energy  EATOM  =      2409.41629947
  Solvation  Ediel_sol  =         0.00000000
  ---------------------------------------------------
  free energy    TOTEN  =       -85.10488864 eV

  energy without entropy =      -85.04440211  energy(sigma->0) =      -85.07464537


--------------------------------------------------------------------------------------------------------




----------------------------------------- Iteration    1(   4)  ---------------------------------------


     EDDAV:  cpu time    2.3353: real time    2.3770
       DOS:  cpu time    0.0011: real time    0.0011
    --------------------------------------------
      LOOP:  cpu time    2.3373: real time    2.3805

 eigenvalue-minimisations  :   132
 total energy-change (2. order) :-0.2245550E+02  (-0.2219592E+02)
 number of electron      59.0000000 magnetization 
 augmentation part       59.0000000 magnetization 

 Free energy of the ion-electron system (eV)
  ---------------------------------------------------
  alpha Z        PSCENC =         2.04134517
  Ewald energy   TEWEN  =      4660.57468141
  -Hartree energ DENC   =     -6546.60783372
  -exchange      EXHF   =         0.00000000
  -V(xc)+E(xc)   XCENC  =       157.84429949
  PAW double counting   =      1827.57201779    -1886.38481159
  entropy T*S    EENTRO =        -0.08777214
  eigenvalues    EBANDS =      -731.92861223
  atomic energy  EATOM  =      2409.41629947
  Solvation  Ediel_sol  =         0.00000000
  ---------------------------------------------------
  free energy    TOTEN  =      -107.56038635 eV

  energy without entropy =     -107.47261420  energy(sigma->0) =     -107.51650028


--------------------------------------------------------------------------------------------------------




----------------------------------------- Iteration    1(   5)  ---------------------------------------


     EDDAV:  cpu time    2.1449: real time    2.2401
       DOS:  cpu time    0.0012: real time    0.0012
    CHARGE:  cpu time    0.3156: real time    0.3156
    MIXING:  cpu time    0.0251: real time    0.0251
    --------------------------------------------
      LOOP:  cpu time    2.4877: real time    2.5844

 eigenvalue-minimisations  :   120
 total energy-change (2. order) :-0.7891680E+00  (-0.7607478E+00)
 number of electron      59.0000005 magnetization 
 augmentation part        2.1468050 magnetization 

 Broyden mixing:
  rms(total) = 0.41470E+01    rms(broyden)= 0.41466E+01
  rms(prec ) = 0.46929E+01
  weight for this iteration     100.00

 Free energy of the ion-electron system (eV)
  ---------------------------------------------------
  alpha Z        PSCENC =         2.04134517
  Ewald energy   TEWEN  =      4660.57468141
  -Hartree energ DENC   =     -6546.60783372
  -exchange      EXHF   =         0.00000000
  -V(xc)+E(xc)   XCENC  =       157.84429949
  PAW double counting   =      1827.57201779    -1886.38481159
  entropy T*S    EENTRO =        -0.08783885
  eigenvalues    EBANDS =      -732.71771351
  atomic energy  EATOM  =      2409.41629947
  Solvation  Ediel_sol  =         0.00000000
  ---------------------------------------------------
  free energy    TOTEN  =      -108.34955433 eV

  energy without entropy =     -108.26171549  energy(sigma->0) =     -108.30563491


--------------------------------------------------------------------------------------------------------




----------------------------------------- Iteration    1(   6)  ---------------------------------------


    POTLOK:  cpu time    1.0267: real time    1.0267
    SETDIJ:  cpu time    0.0042: real time    0.0042
     EDDAV:  cpu time    2.1657: real time    2.1665
       DOS:  cpu time    0.0012: real time    0.0012
    CHARGE:  cpu time    0.3064: real time    0.3065
    MIXING:  cpu time    0.0272: real time    0.0273
    --------------------------------------------
      LOOP:  cpu time    3.5327: real time    3.5355

 eigenvalue-minimisations  :   120
 total energy-change (2. order) :-0.1034525E+03  (-0.8660841E+02)
 number of electron      59.0000015 magnetization 
 augmentation part        8.7504517 magnetization 

 Broyden mixing:
  rms(total) = 0.13984E+02    rms(broyden)= 0.13984E+02
  rms(prec ) = 0.14204E+02
  weight for this iteration     100.00

 eigenvalues of (default mixing * dielectric matrix)
  average eigenvalue GAMMA=   0.1007
  0.1007

 Free energy of the ion-electron system (eV)
  ---------------------------------------------------
  alpha Z        PSCENC =         2.04134517
  Ewald energy   TEWEN  =      4660.57468141
  -Hartree energ DENC   =     -6432.93809994
  -exchange      EXHF   =         0.00000000
  -V(xc)+E(xc)   XCENC  =       158.09243316
  PAW double counting   =      2019.31932118    -2045.97473132
  entropy T*S    EENTRO =        -0.05653164
  eigenvalues    EBANDS =      -982.27681521
  atomic energy  EATOM  =      2409.41629947
  Solvation  Ediel_sol  =         0.00000000
  ---------------------------------------------------
  free energy    TOTEN  =      -211.80209771 eV

  energy without entropy =     -211.74556607  energy(sigma->0) =     -211.77383189


--------------------------------------------------------------------------------------------------------




----------------------------------------- Iteration    1(   7)  ---------------------------------------


    POTLOK:  cpu time    1.0224: real time    1.0227
    SETDIJ:  cpu time    0.0039: real time    0.0039
     EDDAV:  cpu time    2.1692: real time    2.1696
       DOS:  cpu time    0.0011: real time    0.0011
    CHARGE:  cpu time    0.3063: real time    0.3063
    MIXING:  cpu time    0.0291: real time    0.0291
    --------------------------------------------
      LOOP:  cpu time    3.5331: real time    3.5355

 eigenvalue-minimisations  :   120
 total energy-change (2. order) : 0.3034415E+02  (-0.4782573E+01)
 number of electron      59.0000015 magnetization 
 augmentation part        8.4427917 magnetization 

 Broyden mixing:
  rms(total) = 0.94494E+01    rms(broyden)= 0.94494E+01
  rms(prec ) = 0.97207E+01
  weight for this iteration     100.00

 eigenvalues of (default mixing * dielectric matrix)
  average eigenvalue GAMMA=   0.4578
  0.4578  0.4578

 Free energy of the ion-electron system (eV)
  ---------------------------------------------------
  alpha Z        PSCENC =         2.04134517
  Ewald energy   TEWEN  =      4660.57468141
  -Hartree energ DENC   =     -6458.71811458
  -exchange      EXHF   =         0.00000000
  -V(xc)+E(xc)   XCENC  =       158.51694412
  PAW double counting   =      2164.39751990    -2198.37603266
  entropy T*S    EENTRO =        -0.05679022
  eigenvalues    EBANDS =      -919.25380123
  atomic energy  EATOM  =      2409.41629947
  Solvation  Ediel_sol  =         0.00000000
  ---------------------------------------------------
  free energy    TOTEN  =      -181.45794862 eV

  energy without entropy =     -181.40115840  energy(sigma->0) =     -181.42955351


--------------------------------------------------------------------------------------------------------




----------------------------------------- Iteration    1(   8)  ---------------------------------------


    POTLOK:  cpu time    0.9944: real time    0.9959
    SETDIJ:  cpu time    0.0043: real time    0.0043
     EDDAV:  cpu time    2.3360: real time    2.3369
       DOS:  cpu time    0.0013: real time    0.0013
    CHARGE:  cpu time    0.3095: real time    0.3103
    MIXING:  cpu time    0.0269: real time    0.0271
    --------------------------------------------
      LOOP:  cpu time    3.6734: real time    3.6785

 eigenvalue-minimisations  :   132
 total energy-change (2. order) : 0.7558395E+02  (-0.8778992E+01)
 number of electron      59.0000014 magnetization 
 augmentation part        7.7359450 magnetization 

 Broyden mixing:
  rms(total) = 0.26223E+01    rms(broyden)= 0.26223E+01
  rms(prec ) = 0.29306E+01
  weight for this iteration     100.00

 eigenvalues of (default mixing * dielectric matrix)
  average eigenvalue GAMMA=   0.5107
  0.5658  0.5658  0.4004

 Free energy of the ion-electron system (eV)
  ---------------------------------------------------
  alpha Z        PSCENC =         2.04134517
  Ewald energy   TEWEN  =      4660.57468141
  -Hartree energ DENC   =     -6547.08173347
  -exchange      EXHF   =         0.00000000
  -V(xc)+E(xc)   XCENC  =       159.53888677
  PAW double counting   =      2723.30421060    -2778.15160469
  entropy T*S    EENTRO =        -0.05718257
  eigenvalues    EBANDS =      -735.45890020
  atomic energy  EATOM  =      2409.41629947
  Solvation  Ediel_sol  =         0.00000000
  ---------------------------------------------------
  free energy    TOTEN  =      -105.87399750 eV

  energy without entropy =     -105.81681493  energy(sigma->0) =     -105.84540621


--------------------------------------------------------------------------------------------------------




----------------------------------------- Iteration    1(   9)  ---------------------------------------


    POTLOK:  cpu time    0.9927: real time    0.9941
    SETDIJ:  cpu time    0.0039: real time    0.0039
     EDDAV:  cpu time    2.3401: real time    2.3423
       DOS:  cpu time    0.0012: real time    0.0012
    CHARGE:  cpu time    0.3089: real time    0.3093
    MIXING:  cpu time    0.0261: real time    0.0262
    --------------------------------------------
      LOOP:  cpu time    3.6740: real time    3.6827

 eigenvalue-minimisations  :   132
 total energy-change (2. order) : 0.9505556E+01  (-0.2029486E+01)
 number of electron      59.0000011 magnetization 
 augmentation part        6.4140024 magnetization 

 Broyden mixing:
  rms(total) = 0.97815E+00    rms(broyden)= 0.97784E+00
  rms(prec ) = 0.10938E+01
  weight for this iteration     100.00

 eigenvalues of (default mixing * dielectric matrix)
  average eigenvalue GAMMA=   0.7021
  1.0282  0.6626  0.6626  0.4551

 Free energy of the ion-electron system (eV)
  ---------------------------------------------------
  alpha Z        PSCENC =         2.04134517
  Ewald energy   TEWEN  =      4660.57468141
  -Hartree energ DENC   =     -6578.27115634
  -exchange      EXHF   =         0.00000000
  -V(xc)+E(xc)   XCENC  =       160.30900118
  PAW double counting   =      2620.76556743    -2680.90416728
  entropy T*S    EENTRO =        -0.05661237
  eigenvalues    EBANDS =      -690.24340016
  atomic energy  EATOM  =      2409.41629947
  Solvation  Ediel_sol  =         0.00000000
  ---------------------------------------------------
  free energy    TOTEN  =       -96.36844148 eV

  energy without entropy =      -96.31182912  energy(sigma->0) =      -96.34013530


--------------------------------------------------------------------------------------------------------




----------------------------------------- Iteration    1(  10)  ---------------------------------------


    POTLOK:  cpu time    0.9984: real time    0.9989
    SETDIJ:  cpu time    0.0040: real time    0.0040
     EDDAV:  cpu time    2.5064: real time    2.5074
       DOS:  cpu time    0.0013: real time    0.0013
    CHARGE:  cpu time    0.3093: real time    0.3097
    MIXING:  cpu time    0.0275: real time    0.0276
    --------------------------------------------
      LOOP:  cpu time    3.8480: real time    3.8516

 eigenvalue-minimisations  :   144
 total energy-change (2. order) : 0.6314214E+00  (-0.5007117E+00)
 number of electron      59.0000010 magnetization 
 augmentation part        5.8702284 magnetization 

 Broyden mixing:
  rms(total) = 0.41289E+00    rms(broyden)= 0.41264E+00
  rms(prec ) = 0.45057E+00
  weight for this iteration     100.00

 eigenvalues of (default mixing * dielectric matrix)
  average eigenvalue GAMMA=   0.9113
  1.9909  0.6634  0.6634  0.4570  0.7821

 Free energy of the ion-electron system (eV)
  ---------------------------------------------------
  alpha Z        PSCENC =         2.04134517
  Ewald energy   TEWEN  =      4660.57468141
  -Hartree energ DENC   =     -6605.39820339
  -exchange      EXHF   =         0.00000000
  -V(xc)+E(xc)   XCENC  =       161.23743463
  PAW double counting   =      2653.79754505    -2712.72776564
  entropy T*S    EENTRO =        -0.06858373
  eigenvalues    EBANDS =      -664.60977303
  atomic energy  EATOM  =      2409.41629947
  Solvation  Ediel_sol  =         0.00000000
  ---------------------------------------------------
  free energy    TOTEN  =       -95.73702006 eV

  energy without entropy =      -95.66843634  energy(sigma->0) =      -95.70272820


--------------------------------------------------------------------------------------------------------




----------------------------------------- Iteration    1(  11)  ---------------------------------------


    POTLOK:  cpu time    0.9927: real time    0.9950
    SETDIJ:  cpu time    0.0045: real time    0.0045
     EDDAV:  cpu time    2.1537: real time    2.1545
       DOS:  cpu time    0.0012: real time    0.0012
    CHARGE:  cpu time    0.3095: real time    0.3101
    MIXING:  cpu time    0.0285: real time    0.0287
    --------------------------------------------
      LOOP:  cpu time    3.4913: real time    3.4970

 eigenvalue-minimisations  :   120
 total energy-change (2. order) : 0.2267929E+00  (-0.1305152E+00)
 number of electron      59.0000009 magnetization 
 augmentation part        5.7027818 magnetization 

 Broyden mixing:
  rms(total) = 0.20649E+00    rms(broyden)= 0.20628E+00
  rms(prec ) = 0.24097E+00
  weight for this iteration     100.00

 eigenvalues of (default mixing * dielectric matrix)
  average eigenvalue GAMMA=   0.9055
  2.2704  0.6633  0.6633  0.8263  0.4499  0.5600

 Free energy of the ion-electron system (eV)
  ---------------------------------------------------
  alpha Z        PSCENC =         2.04134517
  Ewald energy   TEWEN  =      4660.57468141
  -Hartree energ DENC   =     -6631.70881878
  -exchange      EXHF   =         0.00000000
  -V(xc)+E(xc)   XCENC  =       162.20736179
  PAW double counting   =      2742.52575903    -2800.20127846
  entropy T*S    EENTRO =        -0.05710681
  eigenvalues    EBANDS =      -640.30847001
  atomic energy  EATOM  =      2409.41629947
  Solvation  Ediel_sol  =         0.00000000
  ---------------------------------------------------
  free energy    TOTEN  =       -95.51022720 eV

  energy without entropy =      -95.45312039  energy(sigma->0) =      -95.48167379


--------------------------------------------------------------------------------------------------------




----------------------------------------- Iteration    1(  12)  ---------------------------------------


    POTLOK:  cpu time    0.9996: real time    0.9998
    SETDIJ:  cpu time    0.0043: real time    0.0043
     EDDAV:  cpu time    2.6740: real time    2.6743
       DOS:  cpu time    0.0011: real time    0.0011
    CHARGE:  cpu time    0.3068: real time    0.3069
    MIXING:  cpu time    0.0311: real time    0.0311
    --------------------------------------------
      LOOP:  cpu time    4.0181: real time    4.0203

 eigenvalue-minimisations  :   156
 total energy-change (2. order) : 0.7940638E-01  (-0.3649724E-01)
 number of electron      59.0000010 magnetization 
 augmentation part        5.7229002 magnetization 

 Broyden mixing:
  rms(total) = 0.12202E+00    rms(broyden)= 0.12196E+00
  rms(prec ) = 0.13402E+00
  weight for this iteration     100.00

 eigenvalues of (default mixing * dielectric matrix)
  average eigenvalue GAMMA=   0.9031
  2.2363  0.6639  0.6639  0.9150  0.9150  0.4637  0.4637

 Free energy of the ion-electron system (eV)
  ---------------------------------------------------
  alpha Z        PSCENC =         2.04134517
  Ewald energy   TEWEN  =      4660.57468141
  -Hartree energ DENC   =     -6639.36237040
  -exchange      EXHF   =         0.00000000
  -V(xc)+E(xc)   XCENC  =       162.48216322
  PAW double counting   =      2765.15337515    -2822.65502389
  entropy T*S    EENTRO =        -0.06276380
  eigenvalues    EBANDS =      -633.01852714
  atomic energy  EATOM  =      2409.41629947
  Solvation  Ediel_sol  =         0.00000000
  ---------------------------------------------------
  free energy    TOTEN  =       -95.43082081 eV

  energy without entropy =      -95.36805701  energy(sigma->0) =      -95.39943891


--------------------------------------------------------------------------------------------------------




----------------------------------------- Iteration    1(  13)  ---------------------------------------


    POTLOK:  cpu time    0.9950: real time    0.9962
    SETDIJ:  cpu time    0.0041: real time    0.0041
     EDDAV:  cpu time    2.3317: real time    2.3336
       DOS:  cpu time    0.0013: real time    0.0013
    CHARGE:  cpu time    0.3084: real time    0.3089
    MIXING:  cpu time    0.0300: real time    0.0301
    --------------------------------------------
      LOOP:  cpu time    3.6714: real time    3.6767

 eigenvalue-minimisations  :   132
 total energy-change (2. order) : 0.6454934E-02  (-0.7055493E-02)
 number of electron      59.0000010 magnetization 
 augmentation part        5.7312500 magnetization 

 Broyden mixing:
  rms(total) = 0.92802E-01    rms(broyden)= 0.92793E-01
  rms(prec ) = 0.10261E+00
  weight for this iteration     100.00

 eigenvalues of (default mixing * dielectric matrix)
  average eigenvalue GAMMA=   0.9486
  1.9379  1.9379  0.6643  0.6643  0.9105  0.5489  0.4827  0.4423

 Free energy of the ion-electron system (eV)
  ---------------------------------------------------
  alpha Z        PSCENC =         2.04134517
  Ewald energy   TEWEN  =      4660.57468141
  -Hartree energ DENC   =     -6642.11053552
  -exchange      EXHF   =         0.00000000
  -V(xc)+E(xc)   XCENC  =       162.54745053
  PAW double counting   =      2764.57276065    -2822.17995034
  entropy T*S    EENTRO =        -0.06430609
  eigenvalues    EBANDS =      -630.22211116
  atomic energy  EATOM  =      2409.41629947
  Solvation  Ediel_sol  =         0.00000000
  ---------------------------------------------------
  free energy    TOTEN  =       -95.42436588 eV

  energy without entropy =      -95.36005978  energy(sigma->0) =      -95.39221283


--------------------------------------------------------------------------------------------------------




----------------------------------------- Iteration    1(  14)  ---------------------------------------


    POTLOK:  cpu time    0.9989: real time    0.9990
    SETDIJ:  cpu time    0.0045: real time    0.0045
     EDDAV:  cpu time    2.3350: real time    2.3358
       DOS:  cpu time    0.0013: real time    0.0013
    CHARGE:  cpu time    0.3096: real time    0.3096
    MIXING:  cpu time    0.0289: real time    0.0289
    --------------------------------------------
      LOOP:  cpu time    3.6794: real time    3.6820

 eigenvalue-minimisations  :   132
 total energy-change (2. order) : 0.5920788E-02  (-0.2410806E-02)
 number of electron      59.0000010 magnetization 
 augmentation part        5.7339033 magnetization 

 Broyden mixing:
  rms(total) = 0.58234E-01    rms(broyden)= 0.58227E-01
  rms(prec ) = 0.66816E-01
  weight for this iteration     100.00

 eigenvalues of (default mixing * dielectric matrix)
  average eigenvalue GAMMA=   1.0234
  2.3981  2.3981  0.6640  0.6640  0.8280  0.8280  0.5473  0.4417  0.4417

 Free energy of the ion-electron system (eV)
  ---------------------------------------------------
  alpha Z        PSCENC =         2.04134517
  Ewald energy   TEWEN  =      4660.57468141
  -Hartree energ DENC   =     -6645.82196205
  -exchange      EXHF   =         0.00000000
  -V(xc)+E(xc)   XCENC  =       162.62155458
  PAW double counting   =      2761.36640334    -2819.11291891
  entropy T*S    EENTRO =        -0.06280370
  eigenvalues    EBANDS =      -626.44104440
  atomic energy  EATOM  =      2409.41629947
  Solvation  Ediel_sol  =         0.00000000
  ---------------------------------------------------
  free energy    TOTEN  =       -95.41844509 eV

  energy without entropy =      -95.35564139  energy(sigma->0) =      -95.38704324


--------------------------------------------------------------------------------------------------------




----------------------------------------- Iteration    1(  15)  ---------------------------------------


    POTLOK:  cpu time    1.0060: real time    1.0062
    SETDIJ:  cpu time    0.0043: real time    0.0043
     EDDAV:  cpu time    2.3354: real time    2.3357
       DOS:  cpu time    0.0014: real time    0.0014
    CHARGE:  cpu time    0.3093: real time    0.3094
    MIXING:  cpu time    0.0295: real time    0.0295
    --------------------------------------------
      LOOP:  cpu time    3.6869: real time    3.6894

 eigenvalue-minimisations  :   132
 total energy-change (2. order) : 0.2174402E-02  (-0.1064050E-02)
 number of electron      59.0000010 magnetization 
 augmentation part        5.7286390 magnetization 

 Broyden mixing:
  rms(total) = 0.32638E-01    rms(broyden)= 0.32633E-01
  rms(prec ) = 0.40049E-01
  weight for this iteration     100.00

 eigenvalues of (default mixing * dielectric matrix)
  average eigenvalue GAMMA=   1.0100
  2.4817  2.4817  0.6639  0.6639  0.8826  0.8826  0.6562  0.4817  0.4817  0.4235

 Free energy of the ion-electron system (eV)
  ---------------------------------------------------
  alpha Z        PSCENC =         2.04134517
  Ewald energy   TEWEN  =      4660.57468141
  -Hartree energ DENC   =     -6650.48557367
  -exchange      EXHF   =         0.00000000
  -V(xc)+E(xc)   XCENC  =       162.70585006
  PAW double counting   =      2761.34995602    -2819.17416295
  entropy T*S    EENTRO =        -0.06262315
  eigenvalues    EBANDS =      -621.78204306
  atomic energy  EATOM  =      2409.41629947
  Solvation  Ediel_sol  =         0.00000000
  ---------------------------------------------------
  free energy    TOTEN  =       -95.41627069 eV

  energy without entropy =      -95.35364754  energy(sigma->0) =      -95.38495911


--------------------------------------------------------------------------------------------------------




----------------------------------------- Iteration    1(  16)  ---------------------------------------


    POTLOK:  cpu time    1.0032: real time    1.0045
    SETDIJ:  cpu time    0.0042: real time    0.0042
     EDDAV:  cpu time    2.3470: real time    2.3499
       DOS:  cpu time    0.0011: real time    0.0011
    CHARGE:  cpu time    0.3086: real time    0.3090
    MIXING:  cpu time    0.0301: real time    0.0302
    --------------------------------------------
      LOOP:  cpu time    3.6953: real time    3.7019

 eigenvalue-minimisations  :   132
 total energy-change (2. order) :-0.1719695E-02  (-0.3906451E-03)
 number of electron      59.0000010 magnetization 
 augmentation part        5.7343344 magnetization 

 Broyden mixing:
  rms(total) = 0.21055E-01    rms(broyden)= 0.21051E-01
  rms(prec ) = 0.27880E-01
  weight for this iteration     100.00

 eigenvalues of (default mixing * dielectric matrix)
  average eigenvalue GAMMA=   1.0304
  2.5535  2.5535  0.6641  0.6641  1.1238  1.1238  0.7731  0.5375  0.4806  0.4417
  0.4191

 Free energy of the ion-electron system (eV)
  ---------------------------------------------------
  alpha Z        PSCENC =         2.04134517
  Ewald energy   TEWEN  =      4660.57468141
  -Hartree energ DENC   =     -6652.63104886
  -exchange      EXHF   =         0.00000000
  -V(xc)+E(xc)   XCENC  =       162.73759227
  PAW double counting   =      2763.40449504    -2821.20154688
  entropy T*S    EENTRO =        -0.06352101
  eigenvalues    EBANDS =      -619.69628699
  atomic energy  EATOM  =      2409.41629947
  Solvation  Ediel_sol  =         0.00000000
  ---------------------------------------------------
  free energy    TOTEN  =       -95.41799038 eV

  energy without entropy =      -95.35446937  energy(sigma->0) =      -95.38622988


--------------------------------------------------------------------------------------------------------




----------------------------------------- Iteration    1(  17)  ---------------------------------------


    POTLOK:  cpu time    1.0045: real time    1.0054
    SETDIJ:  cpu time    0.0038: real time    0.0038
     EDDAV:  cpu time    2.1650: real time    2.1666
       DOS:  cpu time    0.0012: real time    0.0012
    CHARGE:  cpu time    0.3094: real time    0.3105
    MIXING:  cpu time    0.0304: real time    0.0305
    --------------------------------------------
      LOOP:  cpu time    3.5153: real time    3.5217

 eigenvalue-minimisations  :   120
 total energy-change (2. order) :-0.5784107E-02  (-0.3242695E-03)
 number of electron      59.0000010 magnetization 
 augmentation part        5.7462534 magnetization 

 Broyden mixing:
  rms(total) = 0.96475E-02    rms(broyden)= 0.96429E-02
  rms(prec ) = 0.16214E-01
  weight for this iteration     100.00

 eigenvalues of (default mixing * dielectric matrix)
  average eigenvalue GAMMA=   1.0979
  2.8289  2.6751  1.8884  0.6641  0.6641  1.0762  0.7584  0.7584  0.5403  0.4615
  0.4488  0.4112

 Free energy of the ion-electron system (eV)
  ---------------------------------------------------
  alpha Z        PSCENC =         2.04134517
  Ewald energy   TEWEN  =      4660.57468141
  -Hartree energ DENC   =     -6655.40954513
  -exchange      EXHF   =         0.00000000
  -V(xc)+E(xc)   XCENC  =       162.76470956
  PAW double counting   =      2765.08034990    -2822.81916570
  entropy T*S    EENTRO =        -0.06310919
  eigenvalues    EBANDS =      -617.00933998
  atomic energy  EATOM  =      2409.41629947
  Solvation  Ediel_sol  =         0.00000000
  ---------------------------------------------------
  free energy    TOTEN  =       -95.42377449 eV

  energy without entropy =      -95.36066530  energy(sigma->0) =      -95.39221990


--------------------------------------------------------------------------------------------------------




----------------------------------------- Iteration    1(  18)  ---------------------------------------


    POTLOK:  cpu time    1.0108: real time    1.0109
    SETDIJ:  cpu time    0.0044: real time    0.0044
     EDDAV:  cpu time    2.3331: real time    2.3467
       DOS:  cpu time    0.0013: real time    0.0013
    CHARGE:  cpu time    0.3097: real time    0.3098
    MIXING:  cpu time    0.0330: real time    0.0330
    --------------------------------------------
      LOOP:  cpu time    3.6934: real time    3.7107

 eigenvalue-minimisations  :   132
 total energy-change (2. order) :-0.8422918E-02  (-0.2494044E-03)
 number of electron      59.0000010 magnetization 
 augmentation part        5.7481779 magnetization 

 Broyden mixing:
  rms(total) = 0.11093E-01    rms(broyden)= 0.11092E-01
  rms(prec ) = 0.14076E-01
  weight for this iteration     100.00

 eigenvalues of (default mixing * dielectric matrix)
  average eigenvalue GAMMA=   1.1378
  3.6114  2.5800  2.0570  0.6641  0.6641  1.0530  0.8516  0.8516  0.6023  0.5434
  0.4587  0.4428  0.4114

 Free energy of the ion-electron system (eV)
  ---------------------------------------------------
  alpha Z        PSCENC =         2.04134517
  Ewald energy   TEWEN  =      4660.57468141
  -Hartree energ DENC   =     -6658.35545368
  -exchange      EXHF   =         0.00000000
  -V(xc)+E(xc)   XCENC  =       162.78747570
  PAW double counting   =      2764.19971181    -2821.87258472
  entropy T*S    EENTRO =        -0.06349214
  eigenvalues    EBANDS =      -614.16018043
  atomic energy  EATOM  =      2409.41629947
  Solvation  Ediel_sol  =         0.00000000
  ---------------------------------------------------
  free energy    TOTEN  =       -95.43219741 eV

  energy without entropy =      -95.36870527  energy(sigma->0) =      -95.40045134


--------------------------------------------------------------------------------------------------------




----------------------------------------- Iteration    1(  19)  ---------------------------------------


    POTLOK:  cpu time    1.0129: real time    1.0134
    SETDIJ:  cpu time    0.0041: real time    0.0041
     EDDAV:  cpu time    2.1573: real time    2.1596
       DOS:  cpu time    0.0014: real time    0.0014
    CHARGE:  cpu time    0.3088: real time    0.3094
    MIXING:  cpu time    0.0320: real time    0.0321
    --------------------------------------------
      LOOP:  cpu time    3.5176: real time    3.5225

 eigenvalue-minimisations  :   120
 total energy-change (2. order) :-0.4050270E-02  (-0.9394273E-04)
 number of electron      59.0000010 magnetization 
 augmentation part        5.7454451 magnetization 

 Broyden mixing:
  rms(total) = 0.10185E-01    rms(broyden)= 0.10184E-01
  rms(prec ) = 0.11711E-01
  weight for this iteration     100.00

 eigenvalues of (default mixing * dielectric matrix)
  average eigenvalue GAMMA=   1.2259
  4.8242  2.5314  2.1223  0.6641  0.6641  1.1779  1.1779  0.9077  0.7120  0.5667
  0.4913  0.4702  0.4421  0.4106

 Free energy of the ion-electron system (eV)
  ---------------------------------------------------
  alpha Z        PSCENC =         2.04134517
  Ewald energy   TEWEN  =      4660.57468141
  -Hartree energ DENC   =     -6659.76198277
  -exchange      EXHF   =         0.00000000
  -V(xc)+E(xc)   XCENC  =       162.79776322
  PAW double counting   =      2762.90483988    -2820.55904406
  entropy T*S    EENTRO =        -0.06334549
  eigenvalues    EBANDS =      -612.78680451
  atomic energy  EATOM  =      2409.41629947
  Solvation  Ediel_sol  =         0.00000000
  ---------------------------------------------------
  free energy    TOTEN  =       -95.43624768 eV

  energy without entropy =      -95.37290219  energy(sigma->0) =      -95.40457493


--------------------------------------------------------------------------------------------------------




----------------------------------------- Iteration    1(  20)  ---------------------------------------


    POTLOK:  cpu time    1.0115: real time    1.0130
    SETDIJ:  cpu time    0.0041: real time    0.0041
     EDDAV:  cpu time    1.9923: real time    1.9937
       DOS:  cpu time    0.0011: real time    0.0011
    CHARGE:  cpu time    0.3090: real time    0.3097
    MIXING:  cpu time    0.0326: real time    0.0327
    --------------------------------------------
      LOOP:  cpu time    3.3517: real time    3.3571

 eigenvalue-minimisations  :   108
 total energy-change (2. order) :-0.3454741E-02  (-0.6659415E-04)
 number of electron      59.0000010 magnetization 
 augmentation part        5.7429341 magnetization 

 Broyden mixing:
  rms(total) = 0.84417E-02    rms(broyden)= 0.84414E-02
  rms(prec ) = 0.92341E-02
  weight for this iteration     100.00

 eigenvalues of (default mixing * dielectric matrix)
  average eigenvalue GAMMA=   1.2462
  5.2919  2.5530  2.1787  1.4883  0.6641  0.6641  1.1465  0.8199  0.8199  0.7142
  0.5429  0.5001  0.4537  0.4452  0.4108

 Free energy of the ion-electron system (eV)
  ---------------------------------------------------
  alpha Z        PSCENC =         2.04134517
  Ewald energy   TEWEN  =      4660.57468141
  -Hartree energ DENC   =     -6660.77393758
  -exchange      EXHF   =         0.00000000
  -V(xc)+E(xc)   XCENC  =       162.80358674
  PAW double counting   =      2761.72032356    -2819.37175662
  entropy T*S    EENTRO =        -0.06325412
  eigenvalues    EBANDS =      -611.78699045
  atomic energy  EATOM  =      2409.41629947
  Solvation  Ediel_sol  =         0.00000000
  ---------------------------------------------------
  free energy    TOTEN  =       -95.43970242 eV

  energy without entropy =      -95.37644830  energy(sigma->0) =      -95.40807536


--------------------------------------------------------------------------------------------------------




----------------------------------------- Iteration    1(  21)  ---------------------------------------


    POTLOK:  cpu time    1.0215: real time    1.0574
    SETDIJ:  cpu time    0.0041: real time    0.0055
     EDDAV:  cpu time    1.9680: real time    2.0487
       DOS:  cpu time    0.0010: real time    0.0010
    CHARGE:  cpu time    0.2846: real time    0.3251
    MIXING:  cpu time    0.0332: real time    0.0414
    --------------------------------------------
      LOOP:  cpu time    3.3135: real time    3.4819

 eigenvalue-minimisations  :   108
 total energy-change (2. order) :-0.2499038E-02  (-0.2289787E-04)
 number of electron      59.0000010 magnetization 
 augmentation part        5.7415480 magnetization 

 Broyden mixing:
  rms(total) = 0.58357E-02    rms(broyden)= 0.58354E-02
  rms(prec ) = 0.64800E-02
  weight for this iteration     100.00

 eigenvalues of (default mixing * dielectric matrix)
  average eigenvalue GAMMA=   1.3337
  6.0653  2.9037  2.1880  1.9500  0.6641  0.6641  1.1596  1.1596  0.9370  0.7219
  0.5941  0.4110  0.4383  0.4619  0.5207  0.5000

 Free energy of the ion-electron system (eV)
  ---------------------------------------------------
  alpha Z        PSCENC =         2.04134517
  Ewald energy   TEWEN  =      4660.57468141
  -Hartree energ DENC   =     -6661.14027923
  -exchange      EXHF   =         0.00000000
  -V(xc)+E(xc)   XCENC  =       162.80329791
  PAW double counting   =      2761.26675736    -2818.92336833
  entropy T*S    EENTRO =        -0.06346208
  eigenvalues    EBANDS =      -611.41747315
  atomic energy  EATOM  =      2409.41629947
  Solvation  Ediel_sol  =         0.00000000
  ---------------------------------------------------
  free energy    TOTEN  =       -95.44220146 eV

  energy without entropy =      -95.37873938  energy(sigma->0) =      -95.41047042


--------------------------------------------------------------------------------------------------------




----------------------------------------- Iteration    1(  22)  ---------------------------------------


    POTLOK:  cpu time    1.0039: real time    1.0115
    SETDIJ:  cpu time    0.0042: real time    0.0042
     EDDAV:  cpu time    1.9994: real time    1.9997
       DOS:  cpu time    0.0012: real time    0.0012
    CHARGE:  cpu time    0.3103: real time    0.3105
    MIXING:  cpu time    0.0355: real time    0.0355
    --------------------------------------------
      LOOP:  cpu time    3.3557: real time    3.3660

 eigenvalue-minimisations  :   108
 total energy-change (2. order) :-0.3331784E-02  (-0.2979611E-04)
 number of electron      59.0000010 magnetization 
 augmentation part        5.7421631 magnetization 

 Broyden mixing:
  rms(total) = 0.20099E-02    rms(broyden)= 0.20096E-02
  rms(prec ) = 0.25894E-02
  weight for this iteration     100.00

 eigenvalues of (default mixing * dielectric matrix)
  average eigenvalue GAMMA=   1.3790
  6.6029  3.1951  2.1773  2.1773  1.4245  0.6641  0.6641  1.1794  0.8625  0.8625
  0.7126  0.5989  0.4108  0.4429  0.4552  0.5063  0.5063

 Free energy of the ion-electron system (eV)
  ---------------------------------------------------
  alpha Z        PSCENC =         2.04134517
  Ewald energy   TEWEN  =      4660.57468141
  -Hartree energ DENC   =     -6661.43158480
  -exchange      EXHF   =         0.00000000
  -V(xc)+E(xc)   XCENC  =       162.79883644
  PAW double counting   =      2760.83300455    -2818.50137199
  entropy T*S    EENTRO =        -0.06335729
  eigenvalues    EBANDS =      -611.11338620
  atomic energy  EATOM  =      2409.41629947
  Solvation  Ediel_sol  =         0.00000000
  ---------------------------------------------------
  free energy    TOTEN  =       -95.44553324 eV

  energy without entropy =      -95.38217595  energy(sigma->0) =      -95.41385460


--------------------------------------------------------------------------------------------------------




----------------------------------------- Iteration    1(  23)  ---------------------------------------


    POTLOK:  cpu time    1.0066: real time    1.0072
    SETDIJ:  cpu time    0.0042: real time    0.0042
     EDDAV:  cpu time    2.0066: real time    2.0084
       DOS:  cpu time    0.0012: real time    0.0012
    CHARGE:  cpu time    0.3107: real time    0.3108
    MIXING:  cpu time    0.0353: real time    0.0353
    --------------------------------------------
      LOOP:  cpu time    3.3656: real time    3.3699

 eigenvalue-minimisations  :   108
 total energy-change (2. order) :-0.1503929E-02  (-0.1057501E-04)
 number of electron      59.0000010 magnetization 
 augmentation part        5.7425996 magnetization 

 Broyden mixing:
  rms(total) = 0.13427E-02    rms(broyden)= 0.13424E-02
  rms(prec ) = 0.18113E-02
  weight for this iteration     100.00

 eigenvalues of (default mixing * dielectric matrix)
  average eigenvalue GAMMA=   1.3955
[...]
     EDDAV:  cpu time    1.8037: real time    1.8286
       DOS:  cpu time    0.0012: real time    0.0012
    CHARGE:  cpu time    0.3037: real time    0.3042
    MIXING:  cpu time    0.0248: real time    0.0248
    --------------------------------------------
      LOOP:  cpu time    3.1760: real time    3.2050

 eigenvalue-minimisations  :    96
 total energy-change (2. order) :-0.3004090E-04  (-0.6223685E-04)
 number of electron      59.0000001 magnetization 
 augmentation part        6.3445477 magnetization 

 Broyden mixing:
  rms(total) = 0.10315E-02    rms(broyden)= 0.92961E-03
  rms(prec ) = 0.96178E-03
  weight for this iteration     100.00

 Free energy of the ion-electron system (eV)
  ---------------------------------------------------
  alpha Z        PSCENC =         2.04134517
  Ewald energy   TEWEN  =      5810.66380805
  -Hartree energ DENC   =     -7823.71539236
  -exchange      EXHF   =         0.00000000
  -V(xc)+E(xc)   XCENC  =       180.61480588
  PAW double counting   =      5184.33813346    -5244.64547368
  entropy T*S    EENTRO =        -0.08987332
  eigenvalues    EBANDS =      -650.39163745
  atomic energy  EATOM  =      2409.41629947
  Solvation  Ediel_sol  =         0.00000000
  ---------------------------------------------------
  free energy    TOTEN  =      -131.76798478 eV

  energy without entropy =     -131.67811146  energy(sigma->0) =     -131.72304812


--------------------------------------------------------------------------------------------------------




----------------------------------------- Iteration   96(   2)  ---------------------------------------


    POTLOK:  cpu time    1.0358: real time    1.0369
    SETDIJ:  cpu time    0.0041: real time    0.0041
     EDDAV:  cpu time    1.4696: real time    1.4711
       DOS:  cpu time    0.0011: real time    0.0011
    --------------------------------------------
      LOOP:  cpu time    2.5118: real time    2.5162

 eigenvalue-minimisations  :    72
 total energy-change (2. order) :-0.4925372E-04  (-0.1395885E-05)
 number of electron      59.0000001 magnetization 
 augmentation part        6.3445477 magnetization 

 Free energy of the ion-electron system (eV)
  ---------------------------------------------------
  alpha Z        PSCENC =         2.04134517
  Ewald energy   TEWEN  =      5810.66380805
  -Hartree energ DENC   =     -7823.70981445
  -exchange      EXHF   =         0.00000000
  -V(xc)+E(xc)   XCENC  =       180.61480513
  PAW double counting   =      5184.38508092    -5244.69090189
  entropy T*S    EENTRO =        -0.08982582
  eigenvalues    EBANDS =      -650.39883061
  atomic energy  EATOM  =      2409.41629947
  Solvation  Ediel_sol  =         0.00000000
  ---------------------------------------------------
  free energy    TOTEN  =      -131.76803403 eV

  energy without entropy =     -131.67820822  energy(sigma->0) =     -131.72312112


--------------------------------------------------------------------------------------------------------




 average (electrostatic) potential at core
  the test charge radii are     1.0452  0.6991  0.5201  0.6991  0.5201
  (the norm of the test charge is              1.0000)
       1 -91.8459       2 -58.7301       3 -58.7334       4 -58.7336       5 -58.7300
       6 -58.7325       7 -42.0550       8 -42.0507       9 -42.0541      10 -42.0539
      11 -58.7310      12 -58.7318      13 -58.7349      14 -58.7337      15 -58.7300
      16 -42.0532      17 -42.0564      18 -42.0513      19 -42.0543      20 -42.0549
      21 -42.0558
 
 
 
 E-fermi :  -2.1087     XC(G=0):  -0.3741     alpha+bet : -0.1838


 k-point     1 :       0.0000    0.0000    0.0000
  band No.  band energies     occupation 
      1     -21.9984      2.00000
      2     -21.6427      2.00000
      3     -17.3778      2.00000
      4     -17.3687      2.00000
      5     -17.3655      2.00000
      6     -17.3566      2.00000
      7     -13.2128      2.00000
      8     -13.2091      2.00000
      9     -13.0411      2.00000
     10     -13.0358      2.00000
     11     -12.9704      2.00000
     12     -12.7000      2.00000
     13     -10.1534      2.00000
     14      -9.7299      2.00000
     15      -9.7258      2.00000
     16      -9.4870      2.00000
     17      -9.4808      2.00000
     18      -9.0119      2.00000
     19      -9.0116      2.00000
     20      -8.9469      2.00000
     21      -8.9466      2.00000
     22      -8.8537      2.00000
     23      -6.6857      2.00000
     24      -6.6826      2.00000
     25      -6.1161      2.00000
     26      -6.1133      2.00000
     27      -4.7628      2.00000
     28      -4.5926      2.00000
     29      -4.5895      2.00000
     30      -2.0634      0.52223
     31      -2.0585      0.47777
     32      -0.4522      0.00000
     33      -0.0101      0.00000
     34      -0.0025      0.00000
     35       0.0691      0.00000
     36       0.1864      0.00000
     37       0.3005      0.00000
     38       0.3346      0.00000
     39       0.3940      0.00000
     40       0.4507      0.00000
     41       0.5075      0.00000
     42       0.5166      0.00000
     43       0.5255      0.00000
     44       0.5764      0.00000
     45       0.5879      0.00000
     46       0.5983      0.00000
     47       0.6066      0.00000
     48       0.6327      0.00000


--------------------------------------------------------------------------------------------------------


 soft charge-density along one line, spin component           1
         0         1         2         3         4         5         6         7         8         9
 total charge-density along one line
 
 pseudopotential strength for first ion, spin component:           1
 -9.023  -0.173   0.128  -0.058   0.014  -9.359  -0.167   0.123
 -0.173  -9.117  -0.031  -0.018   0.130  -0.167  -9.451  -0.030
  0.128  -0.031  -9.238  -0.058   0.077   0.123  -0.030  -9.567
 -0.058  -0.018  -0.058  -9.136  -0.169  -0.056  -0.018  -0.057
  0.014   0.130   0.077  -0.169  -9.036   0.014   0.126   0.074
 -9.359  -0.167   0.123  -0.056   0.014  -9.647  -0.161   0.119
 -0.167  -9.451  -0.030  -0.018   0.126  -0.161  -9.735  -0.029
  0.123  -0.030  -9.567  -0.057   0.074   0.119  -0.029  -9.848
 -0.056  -0.018  -0.057  -9.470  -0.164  -0.054  -0.018  -0.055
  0.014   0.126   0.074  -0.164  -9.373   0.013   0.121   0.071
  0.017   0.022   0.019   0.040   0.010   0.018   0.022   0.019
  0.030   0.038   0.032   0.069   0.018   0.031   0.038   0.033
 -0.000   0.000   0.000   0.000   0.000  -0.000   0.000   0.000
  0.000  -0.000   0.000  -0.000   0.000   0.000  -0.000   0.000
 -0.000   0.000   0.000   0.000  -0.000  -0.000   0.000   0.000
 -0.000   0.000   0.000   0.000   0.000  -0.000   0.000   0.000
  0.000  -0.000   0.000  -0.000   0.000   0.000  -0.000   0.000
 -0.000   0.000   0.000   0.000  -0.000  -0.000   0.000   0.000
 total augmentation occupancy for first ion, spin component:           1
  3.395   1.503  -1.112   0.481  -0.143  -2.268  -1.765   1.595  -0.302   0.266  -0.885   0.218  -0.006  -0.001  -0.003   0.001
  1.503   4.234   0.285   0.071  -1.201  -1.765  -3.241  -0.159   0.318   1.652  -1.151   0.283   0.006  -0.003   0.001  -0.001
 -1.112   0.285   5.275   0.460  -0.709   1.595  -0.159  -4.679  -0.250   1.001  -0.961   0.236   0.003   0.009   0.005  -0.001
  0.481   0.071   0.460   4.336   1.488  -0.302   0.318  -0.250  -2.858  -1.718  -2.065   0.508   0.000  -0.008   0.006   0.000
 -0.143  -1.201  -0.709   1.488   3.564   0.266   1.652   1.001  -1.718  -2.555  -0.544   0.134   0.002  -0.001  -0.008  -0.000
 -2.268  -1.765   1.595  -0.302   0.266   2.773   1.902  -1.856   0.202  -0.333   0.788  -0.197   0.006   0.001   0.004  -0.001
 -1.765  -3.241  -0.159   0.318   1.652   1.902   3.813   0.087  -0.530  -1.893   1.024  -0.257  -0.006   0.002  -0.000   0.001
  1.595  -0.159  -4.679  -0.250   1.001  -1.856   0.087   5.468   0.134  -1.157   0.855  -0.214  -0.003  -0.009  -0.005   0.000
 -0.302   0.318  -0.250  -2.858  -1.718   0.202  -0.530   0.134   3.166   1.837   1.837  -0.461   0.000   0.007  -0.005  -0.000
  0.266   1.652   1.001  -1.718  -2.555  -0.333  -1.893  -1.157   1.837   3.122   0.484  -0.121  -0.002   0.001   0.008   0.000
 -0.885  -1.151  -0.961  -2.065  -0.544   0.788   1.024   0.855   1.837   0.484   2.897  -0.641   0.002  -0.005   0.005  -0.000
  0.218   0.283   0.236   0.508   0.134  -0.197  -0.257  -0.214  -0.461  -0.121  -0.641   0.156  -0.000   0.001  -0.001   0.000
 -0.006   0.006   0.003   0.000   0.002   0.006  -0.006  -0.003   0.000  -0.002   0.002  -0.000   0.393   0.056   0.043  -0.053
 -0.001  -0.003   0.009  -0.008  -0.001   0.001   0.002  -0.009   0.007   0.001  -0.005   0.001   0.056   0.501   0.101  -0.016
 -0.003   0.001   0.005   0.006  -0.008   0.004  -0.000  -0.005  -0.005   0.008   0.005  -0.001   0.043   0.101   0.446  -0.012
  0.001  -0.001  -0.001   0.000  -0.000  -0.001   0.001   0.000  -0.000   0.000  -0.000   0.000  -0.053  -0.016  -0.012   0.009
  0.000   0.000  -0.002   0.001   0.000  -0.000  -0.000   0.002  -0.001  -0.000   0.001  -0.000  -0.016  -0.084  -0.029   0.004
  0.001   0.000  -0.001  -0.000   0.001  -0.001  -0.000   0.001   0.000  -0.001  -0.001   0.000  -0.012  -0.029  -0.068   0.003


------------------------ aborting loop because EDIFF is reached ----------------------------------------


    CHARGE:  cpu time    0.3045: real time    0.3046
    FORLOC:  cpu time    0.1597: real time    0.1601
    FORNL :  cpu time    0.6429: real time    0.6440
    STRESS:  cpu time    2.0075: real time    2.0095
    FORCOR:  cpu time    1.0785: real time    1.0794
    FORHAR:  cpu time    0.3953: real time    0.3959
    MIXING:  cpu time    0.0249: real time    0.0249
    OFIELD:  cpu time    0.0000: real time    0.0000

  Number of pair interactions contributing to vdW energy:   16971
  Edisp (eV):   -0.53921
    FORVDW:  cpu time    0.0022: real time    0.0022

  FORCE on cell =-STRESS in cart. coord.  units (eV):
  Direction    XX          YY          ZZ          XY          YZ          ZX
  --------------------------------------------------------------------------------------
  Alpha Z     2.04135     2.04135     2.04135
  Ewald    1935.84091  1766.58958  2108.23142   116.75271   153.95115   274.73239
  Hartree  2606.03421  2354.76799  2862.97846   182.94385   240.60547   429.89864
  E(xc)    -226.33957  -225.61933  -227.07720    -0.58027    -0.76485    -1.36638
  Local   -5200.97953 -4764.07576 -5646.97265  -312.76905  -411.97132  -735.62354
  n-local   -70.31194   -71.18356   -69.46453     0.66652     0.91760     1.60664
  augment   153.88214   155.94676   151.56545    -1.86210    -2.17227    -4.06926
  Kinetic   798.23280   779.87643   817.25331    14.97520    19.51951    35.06119
  Fock        0.00000     0.00000     0.00000     0.00000     0.00000     0.00000
  vdW        -0.33384    -0.10492    -0.57137    -0.18725    -0.24297    -0.43697
  -------------------------------------------------------------------------------------
  Total      -1.93348    -1.76145    -2.01576    -0.06038    -0.15768    -0.19729
  in kB      -0.38722    -0.35277    -0.40370    -0.01209    -0.03158    -0.03951
  external pressure =       -0.38 kB  Pullay stress =        0.00 kB


 VOLUME and BASIS-vectors are now :
 -----------------------------------------------------------------------------
  energy-cutoff  :      400.00
  volume of cell :     8000.00
      direct lattice vectors                 reciprocal lattice vectors
    20.000000000  0.000000000  0.000000000     0.050000000  0.000000000  0.000000000
     0.000000000 20.000000000  0.000000000     0.000000000  0.050000000  0.000000000
     0.000000000  0.000000000 20.000000000     0.000000000  0.000000000  0.050000000

  length of vectors
    20.000000000 20.000000000 20.000000000     0.050000000  0.050000000  0.050000000


 FORCES acting on ions
    electron-ion (+dipol)            ewald-force                    non-local-force                 convergence-correction
 -----------------------------------------------------------------------------------------------
   0.399E+01 0.168E+01 -.372E+01   -.403E+01 -.171E+01 0.375E+01   0.393E-01 0.233E-01 -.383E-01   0.582E-02 0.390E-02 -.213E-02
   0.111E+03 -.167E+03 -.254E+03   -.112E+03 0.169E+03 0.257E+03   0.399E+00 -.207E+01 -.346E+01   0.127E-01 -.124E-01 0.428E-02
   -.791E+02 -.311E+03 -.453E+02   0.806E+02 0.314E+03 0.468E+02   -.149E+01 -.351E+01 -.138E+01   0.180E-01 0.215E-02 -.130E-01
   0.480E+01 0.127E+03 -.297E+03   -.411E+01 -.128E+03 0.301E+03   -.656E+00 0.882E+00 -.389E+01   -.302E-02 -.104E-01 0.749E-02
   -.252E+03 0.166E+03 -.117E+03   0.255E+03 -.168E+03 0.119E+03   -.324E+01 0.126E+01 -.209E+01   -.131E-01 0.445E-02 0.144E-01
   -.304E+03 -.105E+03 0.393E+02   0.308E+03 0.106E+03 -.387E+02   -.376E+01 -.144E+01 -.528E+00   -.634E-02 0.214E-01 -.382E-02
   -.678E+02 0.734E+02 -.116E+02   0.709E+02 -.782E+02 0.111E+02   -.312E+01 0.486E+01 0.506E+00   0.808E-04 -.242E-02 0.123E-02
   0.252E+02 0.590E+02 -.773E+02   -.276E+02 -.631E+02 0.807E+02   0.240E+01 0.401E+01 -.343E+01   0.121E-02 0.165E-02 -.124E-02
   0.639E+02 -.477E+02 -.612E+02   -.686E+02 0.500E+02 0.637E+02   0.470E+01 -.233E+01 -.246E+01   -.187E-02 0.295E-03 0.199E-02
   -.499E+01 -.994E+02 0.143E+02   0.438E+01 0.105E+03 -.163E+02   0.617E+00 -.539E+01 0.203E+01   0.233E-02 -.135E-02 -.107E-02
   0.208E+03 -.189E+03 0.161E+03   -.211E+03 0.191E+03 -.163E+03   0.279E+01 -.149E+01 0.254E+01   0.137E-01 0.113E-02 -.164E-01
   -.956E+02 0.219E+03 0.218E+03   0.959E+02 -.222E+03 -.221E+03   -.252E+00 0.260E+01 0.313E+01   -.117E-01 0.503E-02 0.569E-03
   -.491E+02 -.806E+02 0.310E+03   0.488E+02 0.810E+02 -.314E+03   0.198E+00 -.403E+00 0.403E+01   -.330E-03 0.182E-01 -.624E-02
   0.132E+03 0.295E+03 0.121E+02   -.134E+03 -.298E+03 -.132E+02   0.201E+01 0.334E+01 0.103E+01   -.132E-01 -.727E-02 0.116E-01
   0.320E+03 0.434E+02 -.232E+02   -.324E+03 -.442E+02 0.225E+02   0.390E+01 0.817E+00 0.702E+00   0.200E-02 -.229E-01 0.221E-02
   0.925E+02 0.256E+01 -.391E+02   -.971E+02 -.221E+01 0.426E+02   0.461E+01 -.355E+00 -.350E+01   -.463E-03 -.269E-02 0.960E-03
   -.584E+02 0.662E+02 0.482E+02   0.628E+02 -.696E+02 -.499E+02   -.438E+01 0.342E+01 0.167E+01   0.225E-02 -.158E-02 -.971E-03
   0.246E+02 0.939E+02 -.261E+02   -.252E+02 -.989E+02 0.288E+02   0.573E+00 0.509E+01 -.272E+01   -.127E-02 0.190E-02 -.392E-03
   0.521E+02 -.816E+02 0.272E+02   -.543E+02 0.870E+02 -.277E+02   0.219E+01 -.535E+01 0.432E+00   0.103E-02 0.162E-02 -.180E-02
   -.413E+02 -.424E+02 0.812E+02   0.446E+02 0.454E+02 -.849E+02   -.336E+01 -.302E+01 0.363E+01   -.191E-02 0.668E-03 0.134E-02
   -.865E+02 -.244E+02 0.451E+02   0.907E+02 0.254E+02 -.490E+02   -.422E+01 -.926E+00 0.387E+01   -.149E-02 0.202E-02 -.567E-04
 -----------------------------------------------------------------------------------------------
   0.496E-01 -.228E-02 -.621E-01   0.171E-12 -.853E-13 -.156E-12   -.549E-01 -.169E-02 0.661E-01   0.438E-02 0.331E-02 -.110E-02
 
 
 POSITION                                       TOTAL-FORCE (eV/Angst)
 -----------------------------------------------------------------------------------
     16.57521      3.20442     18.03372         0.000370      0.003089     -0.002817
     16.58327      4.24884     -0.15614         0.001800      0.004344     -0.003539
     17.44238      4.89379     18.89789        -0.012291      0.008811     -0.000779
     17.06627      2.91547      0.04225        -0.000109     -0.007200     -0.007136
     18.22696      2.73810     19.22201         0.004602     -0.003034      0.000680
     18.45804      3.95974     18.51350         0.011607     -0.001576     -0.004012
     18.81309      1.82715     19.12806        -0.007963     -0.004107      0.009935
     16.61718      2.16358      0.68678        -0.000088     -0.005973     -0.007634
     15.70220      4.68647      0.30687        -0.000485     -0.008644      0.002549
     17.32720      5.90579     18.51689         0.001249     -0.003346      0.000169
     15.12913      3.77791     16.64108        -0.004946      0.003157      0.003462
     16.50607      1.93210     16.38077        -0.011480     -0.004362      0.005368
     16.29530      3.28729     15.96975         0.003615      0.000157     -0.001401
     15.47243      1.58649     17.30982         0.007146      0.006635     -0.005691
     14.62095      2.72738     17.46932         0.002709      0.005222     -0.002371
     13.75589      2.79342     18.12453        -0.000045     -0.004130      0.005494
     17.32632      1.29098     16.06729        -0.006914     -0.008296      0.000857
     15.36468      0.63211     17.81990         0.006262      0.008385      0.007793
     14.71812      4.78128     16.55918         0.006150     -0.000815     -0.003297
     16.92472      3.85415     15.28783         0.003245     -0.004577      0.000678
     19.24960      4.13454     17.78870        -0.004435      0.016261      0.001694
 -----------------------------------------------------------------------------------
    total drift:                               -0.000901     -0.000655      0.002913


--------------------------------------------------------------------------------------------------------



  FREE ENERGIE OF THE ION-ELECTRON SYSTEM (eV)
  ---------------------------------------------------
  free  energy   TOTEN  =      -132.30724201 eV

  energy  without entropy=     -132.21741619  energy(sigma->0) =     -132.26232910
 
 d Force = 0.2482039E-04[ 0.212E-04, 0.284E-04]  d Energy = 0.5058295E-05 0.198E-04
 d Force = 0.6784072E-01[ 0.679E-01, 0.678E-01]  d Ewald  = 0.6784072E-01-0.203E-09


--------------------------------------------------------------------------------------------------------


    POTLOK:  cpu time    1.0380: real time    1.0410


--------------------------------------------------------------------------------------------------------


 stress matrix after NEB project (eV)
     -1.93348     -0.06038     -0.19729
     -0.06038     -1.76145     -0.15768
     -0.19729     -0.15768     -2.01576
  FORCES: max atom, RMS     0.016940    0.009875
  FORCE total and by dimension    0.045251    0.016261
  Stress total and by dimension    3.322530    2.015761
 Conjugate gradient step on ions:
 trial-energy change:   -0.000005  1 .order   -0.000025   -0.000028   -0.000021
  (g-gl).g = 0.179E-03      g.g   = 0.175E-03  gl.gl    = 0.290E-03
 g(Force)  = 0.175E-03   g(Stress)= 0.000E+00 ortho     = 0.512E-05
 gamma     =   0.61734
 trial     =   0.15988
 opt step  =   0.62846  (harmonic =   0.62846) maximal distance =0.00108011
 next E    =  -132.307293   (d E  =  -0.00006)


--------------------------------------------------------------------------------------------------------


  
 reached required accuracy - stopping structural energy minimisation
     LOOP+:  cpu time   11.3511: real time   11.3981
    4ORBIT:  cpu time    0.0000: real time    0.0000

 total amount of memory used by VASP on root node   226320. kBytes
========================================================================

   base      :      30000. kBytes
   nonlr-proj:       3055. kBytes
   fftplans  :      60125. kBytes
   grid      :     130730. kBytes
   one-center:         85. kBytes
   wavefun   :       2325. kBytes
 
  
  
 General timing and accounting informations for this job:
 ========================================================
  
                  Total CPU time used (sec):     2626.492
                            User time (sec):     2463.928
                          System time (sec):      162.563
                         Elapsed time (sec):     2673.880
  
                   Maximum memory used (kb):      328948.
                   Average memory used (kb):           0.
  
                          Minor page faults:      3000872
                          Major page faults:           70
                 Voluntary context switches:        13673
