<?xml version="1.0" encoding="ISO-8859-1"?>
<modeling>
 <generator>
  <i name="program" type="string">vasp </i>
  <i name="version" type="string">5.4.1  </i>
  <i name="subversion" type="string">05Feb16 (build Apr 21 2017 13:36:42) gamma-only                       parallel </i>
  <i name="platform" type="string">IFC91_ompi </i>
  <i name="date" type="string">2020 09 10 </i>
  <i name="time" type="string">15:05:45 </i>
 </generator>
 <incar>
  <i type="string" name="SYSTEM"> basalPlane</i>
  <i type="int" name="ISTART">     0</i>
  <i type="string" name="PREC">accurate  !=accurate, max(enmax) no wra</i>
  <i type="string" name="ALGO"> Normal    !=Normal, blocked Davidson it</i>
  <i type="int" name="NSIM">     4</i>
  <i type="int" name="ISPIN">     1</i>
  <i type="int" name="ICHARG">     2</i>
  <i type="int" name="INIWAV">     1</i>
  <i type="int" name="NELM">   200</i>
  <i type="int" name="NELMDL">    -5</i>
  <i type="int" name="NELMIN">     2</i>
  <i type="int" name="IBRION">     2</i>
  <i name="EDIFF">      0.00010000</i>
  <i name="EDIFFG">     -0.02000000</i>
  <i type="int" name="NSW"> 10000</i>
  <i type="int" name="ISIF">     2</i>
  <i type="int" name="ISYM">     2</i>
  <i name="ENCUT">    400.00000000</i>
  <i name="ENAUG">    645.00000000</i>
  <i type="string" name="LREAL"> Auto     !=Auto projection operators ev</i>
  <i type="logical" name="LPLANE"> T  </i>
  <i type="int" name="ISMEAR">     0</i>
  <i name="SIGMA">      0.10000000</i>
  <i type="int" name="NWRITE">     2</i>
  <i type="logical" name="LWAVE"> F  </i>
  <i type="logical" name="LCHARG"> F  </i>
  <i type="logical" name="LORBIT"> F  </i>
  <i type="logical" name="LELF"> F  </i>
  <i type="logical" name="LSCALU"> F  </i>
  <v type="int" name="KPOINT_BSE">    -1     0     0     0</v>
  <i type="int" name="NELM">   200</i>
 </incar>
 <kpoints>
  <varray name="kpointlist" >
   <v>       0.00000000       0.00000000       0.00000000 </v>
  </varray>
  <varray name="weights" >
   <v>       1.00000000 </v>
  </varray>
 </kpoints>
 <parameters>
  <separator name="general" >
   <i type="string" name="SYSTEM">basalPlane</i>
   <i type="logical" name="LCOMPAT"> F  </i>
  </separator>
  <separator name="electronic" >
   <i type="string" name="PREC">accura</i>
   <i name="ENMAX">    400.00000000</i>
   <i name="ENAUG">    645.00000000</i>
   <i name="EDIFF">      0.00010000</i>
   <i type="int" name="IALGO">    38</i>
   <i type="int" name="IWAVPR">    11</i>
   <i type="int" name="NBANDS">    48</i>
   <i name="NELECT">     59.00000000</i>
   <i type="int" name="TURBO">     0</i>
   <i type="int" name="IRESTART">     0</i>
   <i type="int" name="NREBOOT">     0</i>
   <i type="int" name="NMIN">     0</i>
   <i name="EREF">      0.00000000</i>
   <separator name="electronic smearing" >
    <i type="int" name="ISMEAR">     0</i>
    <i name="SIGMA">      0.10000000</i>
    <i name="KSPACING">      0.50000000</i>
    <i type="logical" name="KGAMMA"> T  </i>
   </separator>
   <separator name="electronic projectors" >
    <i type="logical" name="LREAL"> T  </i>
    <v name="ROPT">     -0.00025000     -0.00025000     -0.00025000     -0.00025000     -0.00025000</v>
    <i type="int" name="LMAXPAW">  -100</i>
    <i type="int" name="LMAXMIX">     2</i>
    <i type="logical" name="NLSPLINE"> F  </i>
   </separator>
   <separator name="electronic startup" >
    <i type="int" name="ISTART">     0</i>
    <i type="int" name="ICHARG">     2</i>
    <i type="int" name="INIWAV">     1</i>
   </separator>
   <separator name="electronic spin" >
    <i type="int" name="ISPIN">     1</i>
    <i type="logical" name="LNONCOLLINEAR"> F  </i>
    <v name="MAGMOM">      1.00000000      1.00000000      1.00000000      1.00000000      1.00000000      1.00000000      1.00000000      1.00000000      1.00000000      1.00000000      1.00000000      1.00000000      1.00000000      1.00000000      1.00000000      1.00000000      1.00000000      1.00000000      1.00000000      1.00000000
      1.00000000</v>
    <i name="NUPDOWN">     -1.00000000</i>
    <i type="logical" name="LSORBIT"> F  </i>
    <v name="SAXIS">      0.00000000      0.00000000      1.00000000</v>
    <i type="logical" name="LSPIRAL"> F  </i>
    <v name="QSPIRAL">      0.00000000      0.00000000      0.00000000</v>
    <i type="logical" name="LZEROZ"> F  </i>
   </separator>
   <separator name="electronic exchange-correlation" >
    <i type="logical" name="LASPH"> F  </i>
    <i type="logical" name="LMETAGGA"> F  </i>
   </separator>
   <separator name="electronic convergence" >
    <i type="int" name="NELM">   200</i>
    <i type="int" name="NELMDL">    -5</i>
    <i type="int" name="NELMIN">     2</i>
    <i name="ENINI">    400.00000000</i>
    <separator name="electronic convergence detail" >
     <i type="logical" name="LDIAG"> T  </i>
     <i type="logical" name="LSUBROT"> F  </i>
     <i name="WEIMIN">      0.00100000</i>
     <i name="EBREAK">      0.00000052</i>
     <i name="DEPER">      0.30000000</i>
     <i type="int" name="NRMM">     4</i>
     <i name="TIME">      0.40000000</i>
    </separator>
   </separator>
   <separator name="electronic mixer" >
    <i name="AMIX">      0.40000000</i>
    <i name="BMIX">      1.00000000</i>
    <i name="AMIN">      0.10000000</i>
    <i name="AMIX_MAG">      1.60000000</i>
    <i name="BMIX_MAG">      1.00000000</i>
    <separator name="electronic mixer details" >
     <i type="int" name="IMIX">     4</i>
     <i type="logical" name="MIXFIRST"> F  </i>
     <i type="int" name="MAXMIX">   -45</i>
     <i name="WC">    100.00000000</i>
     <i type="int" name="INIMIX">     1</i>
     <i type="int" name="MIXPRE">     1</i>
     <i type="int" name="MREMOVE">     5</i>
    </separator>
   </separator>
   <separator name="electronic dipolcorrection" >
    <i type="logical" name="LDIPOL"> F  </i>
    <i type="logical" name="LMONO"> F  </i>
    <i type="int" name="IDIPOL">     0</i>
    <i name="EPSILON">      1.00000000</i>
    <v name="DIPOL">   -100.00000000   -100.00000000   -100.00000000</v>
    <i name="EFIELD">      0.00000000</i>
   </separator>
  </separator>
  <separator name="grids" >
   <i type="int" name="NGX">   140</i>
   <i type="int" name="NGY">   140</i>
   <i type="int" name="NGZ">   140</i>
   <i type="int" name="NGXF">   280</i>
   <i type="int" name="NGYF">   280</i>
   <i type="int" name="NGZF">   280</i>
   <i type="logical" name="ADDGRID"> F  </i>
  </separator>
  <separator name="ionic" >
   <i type="int" name="NSW"> 10000</i>
   <i type="int" name="IBRION">     2</i>
   <i type="int" name="ISIF">     2</i>
   <i name="PSTRESS">      0.00000000</i>
   <i name="EDIFFG">     -0.02000000</i>
   <i type="int" name="NFREE">     1</i>
   <i name="POTIM">      0.50000000</i>
   <i name="SMASS">     -3.00000000</i>
   <i name="SCALEE">      1.00000000</i>
  </separator>
  <separator name="ionic md" >
   <i name="TEBEG">      0.00010000</i>
   <i name="TEEND">      0.00010000</i>
   <i type="int" name="NBLOCK">     1</i>
   <i type="int" name="KBLOCK"> 10000</i>
   <i type="int" name="NPACO">   256</i>
   <i name="APACO">     16.00000000</i>
  </separator>
  <separator name="symmetry" >
   <i type="int" name="ISYM">     2</i>
   <i name="SYMPREC">      0.00001000</i>
  </separator>
  <separator name="dos" >
   <i type="logical" name="LORBIT"> F  </i>
   <v name="RWIGS">     -1.00000000     -1.00000000     -1.00000000     -1.00000000     -1.00000000</v>
   <i type="int" name="NEDOS">   301</i>
   <i name="EMIN">     10.00000000</i>
   <i name="EMAX">    -10.00000000</i>
   <i name="EFERMI">      0.00000000</i>
  </separator>
  <separator name="writing" >
   <i type="int" name="NWRITE">     2</i>
   <i type="logical" name="LWAVE"> F  </i>
   <i type="logical" name="LCHARG"> F  </i>
   <i type="logical" name="LPARD"> F  </i>
   <i type="logical" name="LVTOT"> F  </i>
   <i type="logical" name="LVHAR"> F  </i>
   <i type="logical" name="LELF"> F  </i>
   <i type="logical" name="LOPTICS"> F  </i>
   <v name="STM">      0.00000000      0.00000000      0.00000000      0.00000000      0.00000000      0.00000000      0.00000000</v>
  </separator>
  <separator name="performance" >
   <i type="int" name="NPAR">    12</i>
   <i type="int" name="NSIM">     4</i>
   <i type="int" name="NBLK">    -1</i>
   <i type="logical" name="LPLANE"> T  </i>
   <i type="logical" name="LSCALAPACK"> T  </i>
   <i type="logical" name="LSCAAWARE"> F  </i>
   <i type="logical" name="LSCALU"> F  </i>
   <i type="logical" name="LASYNC"> F  </i>
   <i type="logical" name="LORBITALREAL"> F  </i>
  </separator>
  <separator name="miscellaneous" >
   <i type="int" name="IDIOT">     3</i>
   <i type="logical" name="LMUSIC"> F  </i>
   <v name="POMASS">     58.93300000     12.01100000      1.00000000     12.01100000      1.00000000</v>
   <v name="DARWINR">      0.00000000      0.00000000      0.00000000      0.00000000      0.00000000</v>
   <v name="DARWINV">      1.00000000      1.00000000      1.00000000      1.00000000      1.00000000</v>
   <i type="logical" name="LCORR"> T  </i>
  </separator>
  <i type="logical" name="GGA_COMPAT"> T  </i>
  <i type="logical" name="LBERRY"> F  </i>
  <i type="int" name="ICORELEVEL">     0</i>
  <i type="logical" name="LDAU"> F  </i>
  <i type="int" name="I_CONSTRAINED_M">     0</i>
  <separator name="electronic exchange-correlation" >
   <i type="string" name="GGA">--</i>
   <i type="int" name="VOSKOWN">     0</i>
   <i type="logical" name="LHFCALC"> F  </i>
   <i type="string" name="PRECFOCK"></i>
   <i type="logical" name="LSYMGRAD"> F  </i>
   <i type="logical" name="LHFONE"> F  </i>
   <i type="logical" name="LRHFCALC"> F  </i>
   <i type="logical" name="LTHOMAS"> F  </i>
   <i type="logical" name="LMODELHF"> F  </i>
   <i name="ENCUT4O">     -1.00000000</i>
   <i type="int" name="EXXOEP">     0</i>
   <i type="int" name="FOURORBIT">     0</i>
   <i name="AEXX">      0.00000000</i>
   <i name="HFALPHA">      0.00000000</i>
   <i name="MCALPHA">      0.00000000</i>
   <i name="ALDAX">      1.00000000</i>
   <i name="AGGAX">      1.00000000</i>
   <i name="ALDAC">      1.00000000</i>
   <i name="AGGAC">      1.00000000</i>
   <i type="int" name="NKREDX">     1</i>
   <i type="int" name="NKREDY">     1</i>
   <i type="int" name="NKREDZ">     1</i>
   <i type="logical" name="SHIFTRED"> F  </i>
   <i type="logical" name="ODDONLY"> F  </i>
   <i type="logical" name="EVENONLY"> F  </i>
   <i type="int" name="LMAXFOCK">     0</i>
   <i type="int" name="NMAXFOCKAE">     0</i>
   <i type="logical" name="LFOCKAEDFT"> F  </i>
   <i name="HFSCREEN">      0.00000000</i>
   <i name="HFSCREENC">      0.00000000</i>
   <i type="int" name="NBANDSGWLOW">     0</i>
  </separator>
  <separator name="vdW DFT" >
   <i type="logical" name="LUSE_VDW"> F  </i>
   <i name="Zab_VDW">     -0.84910000</i>
   <i name="PARAM1">      0.12340000</i>
   <i name="PARAM2">      1.00000000</i>
   <i name="PARAM3">      0.00000000</i>
  </separator>
  <separator name="model GW" >
   <i type="int" name="MODEL_GW">     0</i>
   <i name="MODEL_EPS0">    228.57142857</i>
   <i name="MODEL_ALPHA">      1.00000000</i>
  </separator>
  <separator name="linear response parameters" >
   <i type="logical" name="LEPSILON"> F  </i>
   <i type="logical" name="LRPA"> F  </i>
   <i type="logical" name="LNABLA"> F  </i>
   <i type="logical" name="LVEL"> F  </i>
   <i type="int" name="KINTER">     0</i>
   <i name="CSHIFT">      0.10000000</i>
   <i name="OMEGAMAX">     -1.00000000</i>
   <i name="DEG_THRESHOLD">      0.00200000</i>
  </separator>
  <separator name="orbital magnetization" >
   <i type="logical" name="NUCIND"> F  </i>
   <v name="MAGPOS">      0.00000000      0.00000000      0.00000000</v>
   <i type="logical" name="LNICSALL"> T  </i>
   <i type="logical" name="ORBITALMAG"> F  </i>
   <i type="logical" name="LMAGBLOCH"> F  </i>
   <i type="logical" name="LCHIMAG"> F  </i>
   <i type="logical" name="LGAUGE"> T  </i>
   <i type="int" name="MAGATOM">     0</i>
   <v name="MAGDIPOL">      0.00000000      0.00000000      0.00000000</v>
   <v name="AVECCONST">      0.00000000      0.00000000      0.00000000</v>
  </separator>
  <separator name="response functions" >
   <i type="logical" name="LADDER"> F  </i>
   <i type="logical" name="LFXC"> F  </i>
   <i type="logical" name="LHARTREE"> T  </i>
   <i type="int" name="IBSE">     0</i>
   <v type="int" name="KPOINT">    -1     0     0     0</v>
   <i type="logical" name="LTCTE"> F  </i>
   <i type="logical" name="LTETE"> F  </i>
   <i type="logical" name="LTRIPLET"> F  </i>
   <i type="logical" name="LFXCEPS"> F  </i>
   <i type="logical" name="LFXHEG"> F  </i>
   <i type="int" name="NATURALO">     0</i>
   <i type="logical" name="L2ORDER"> F  </i>
   <i type="logical" name="LUSEW"> F  </i>
   <i name="ENCUTGW">     -2.00000000</i>
   <i name="ENCUTGWSOFT">     -2.00000000</i>
   <i name="ENCUTLF">     -1.00000000</i>
   <i type="int" name="LMAXMP2">    -1</i>
   <i name="SCISSOR">      0.00000000</i>
   <i type="int" name="NOMEGA">     0</i>
   <i type="int" name="NOMEGAR">     0</i>
   <i type="int" name="NBANDSGW">    -1</i>
   <i type="int" name="NBANDSO">    -1</i>
   <i type="int" name="NBANDSV">    -1</i>
   <i type="int" name="NELM">   200</i>
   <i type="int" name="NELMHF">     1</i>
   <i type="int" name="DIM">     3</i>
   <i type="int" name="ANTIRES">     0</i>
   <i name="OMEGAMAX">    -30.00000000</i>
   <i name="OMEGAMIN">    -30.00000000</i>
   <i name="OMEGATL">   -200.00000000</i>
   <i type="int" name="OMEGAGRID">     0</i>
   <i name="CSHIFT">     -0.10000000</i>
   <i type="logical" name="SELFENERGY"> F  </i>
   <i type="logical" name="LSPECTRAL"> F  </i>
   <i type="logical" name="LSPECTRALGW"> F  </i>
   <i type="logical" name="LSINGLES"> F  </i>
   <i type="logical" name="LFERMIGW"> F  </i>
   <i type="logical" name="ODDONLYGW"> F  </i>
   <i type="logical" name="EVENONLYGW"> F  </i>
   <i type="int" name="NKREDLFX">     1</i>
   <i type="int" name="NKREDLFY">     1</i>
   <i type="int" name="NKREDLFZ">     1</i>
   <i type="int" name="MAXMEM">  1800</i>
   <i type="int" name="TELESCOPE">     0</i>
   <i type="int" name="TAUPAR">     1</i>
   <i type="int" name="OMEGAPAR">    -1</i>
   <i name="LAMBDA">      1.00000000</i>
  </separator>
  <separator name="External order field" >
   <i name="OFIELD_KAPPA">      0.00000000</i>
   <v name="OFIELD_K">      0.00000000      0.00000000      0.00000000</v>
   <i name="OFIELD_Q6_NEAR">      0.00000000</i>
   <i name="OFIELD_Q6_FAR">      0.00000000</i>
   <i name="OFIELD_A">      0.00000000</i>
  </separator>
 </parameters>
 <atominfo>
  <atoms>      21 </atoms>
  <types>       5 </types>
  <array name="atoms" >
   <dimension dim="1">ion</dimension>
   <field type="string">element</field>
   <field type="int">atomtype</field>
   <set>
    <rc><c>Co</c><c>   1</c></rc>
    <rc><c>C </c><c>   2</c></rc>
    <rc><c>C </c><c>   2</c></rc>
    <rc><c>C </c><c>   2</c></rc>
    <rc><c>C </c><c>   2</c></rc>
    <rc><c>C </c><c>   2</c></rc>
    <rc><c>H </c><c>   3</c></rc>
    <rc><c>H </c><c>   3</c></rc>
    <rc><c>H </c><c>   3</c></rc>
    <rc><c>H </c><c>   3</c></rc>
    <rc><c>C </c><c>   4</c></rc>
    <rc><c>C </c><c>   4</c></rc>
    <rc><c>C </c><c>   4</c></rc>
    <rc><c>C </c><c>   4</c></rc>
    <rc><c>C </c><c>   4</c></rc>
    <rc><c>H </c><c>   5</c></rc>
    <rc><c>H </c><c>   5</c></rc>
    <rc><c>H </c><c>   5</c></rc>
    <rc><c>H </c><c>   5</c></rc>
    <rc><c>H </c><c>   5</c></rc>
    <rc><c>H </c><c>   5</c></rc>
   </set>
  </array>
  <array name="atomtypes" >
   <dimension dim="1">type</dimension>
   <field type="int">atomspertype</field>
   <field type="string">element</field>
   <field>mass</field>
   <field>valence</field>
   <field type="string">pseudopotential</field>
   <set>
    <rc><c>   1</c><c>Co</c><c>     58.93300000</c><c>      9.00000000</c><c>  PAW_PBE Co 02Aug2007                  </c></rc>
    <rc><c>   5</c><c>C </c><c>     12.01100000</c><c>      4.00000000</c><c>  PAW_PBE C 08Apr2002                   </c></rc>
    <rc><c>   4</c><c>H </c><c>      1.00000000</c><c>      1.00000000</c><c>  PAW_PBE H 15Jun2001                   </c></rc>
    <rc><c>   5</c><c>C </c><c>     12.01100000</c><c>      4.00000000</c><c>  PAW_PBE C 08Apr2002                   </c></rc>
    <rc><c>   6</c><c>H </c><c>      1.00000000</c><c>      1.00000000</c><c>  PAW_PBE H 15Jun2001                   </c></rc>
   </set>
  </array>
 </atominfo>
 <structure name="initialpos" >
  <crystal>
   <varray name="basis" >
    <v>      20.00000000       0.00000000       0.00000000 </v>
    <v>       0.00000000      20.00000000       0.00000000 </v>
    <v>       0.00000000       0.00000000      20.00000000 </v>
   </varray>
   <i name="volume">   8000.00000000 </i>
   <varray name="rec_basis" >
    <v>       0.05000000       0.00000000       0.00000000 </v>
    <v>       0.00000000       0.05000000       0.00000000 </v>
    <v>       0.00000000       0.00000000       0.05000000 </v>
   </varray>
  </crystal>
  <varray name="positions" >
   <v>       0.82730000       0.15925000       0.89830000 </v>
   <v>       0.79305000       0.21920000       0.99000000 </v>
   <v>       0.86010000       0.26965000       0.92200000 </v>
   <v>       0.83180000       0.12030000       0.01030000 </v>
   <v>       0.91815000       0.10645000       0.94690000 </v>
   <v>       0.93645000       0.19865000       0.89320000 </v>
   <v>       0.93105000       0.05665000       0.92685000 </v>
   <v>       0.79660000       0.07870000       0.01750000 </v>
   <v>       0.74895000       0.24000000       0.01665000 </v>
   <v>       0.83435000       0.29770000       0.88170000 </v>
   <v>       0.75390000       0.22270000       0.83975000 </v>
   <v>       0.85830000       0.08270000       0.81950000 </v>
   <v>       0.84180000       0.18520000       0.78830000 </v>
   <v>       0.78015000       0.05665000       0.89005000 </v>
   <v>       0.71470000       0.14245000       0.90135000 </v>
   <v>       0.69355000       0.15610000       0.95050000 </v>
   <v>       0.90970000       0.06380000       0.82550000 </v>
   <v>       0.78825000       0.02100000       0.93155000 </v>
   <v>       0.75550000       0.27435000       0.85925000 </v>
   <v>       0.88615000       0.21760000       0.78210000 </v>
   <v>       0.94895000       0.19795000       0.83925000 </v>
  </varray>
 </structure>
 <calculation>
  <scstep>
   <time name="dav">    2.11    2.11</time>
   <time name="total">    3.17    3.18</time>
   <energy>
    <i name="alphaZ">      2.04134517 </i>
    <i name="ewald">   4660.57468141 </i>
    <i name="hartreedc">  -6546.60783372 </i>
    <i name="XCdc">    157.84429949 </i>
    <i name="pawpsdc">   1827.57201779 </i>
    <i name="pawaedc">  -1886.38481159 </i>
    <i name="eentropy">     -0.06597525 </i>
    <i name="bandstr">   -270.42492952 </i>
    <i name="atom">   2409.41629947 </i>
    <i name="e_fr_energy">    353.96509326 </i>
    <i name="e_wo_entrp">    354.03106851 </i>
    <i name="e_0_energy">    353.99808089 </i>
   </energy>
  </scstep>
  <scstep>
   <time name="dav">    2.85    2.85</time>
   <time name="total">    2.85    2.85</time>
   <energy>
    <i name="e_fr_energy">     57.98348777 </i>
    <i name="e_wo_entrp">     58.03992428 </i>
    <i name="e_0_energy">     58.01170603 </i>
   </energy>
  </scstep>
  <scstep>
   <time name="dav">    2.34    2.34</time>
   <time name="total">    2.34    2.34</time>
   <energy>
    <i name="e_fr_energy">    -85.10488864 </i>
    <i name="e_wo_entrp">    -85.04440211 </i>
    <i name="e_0_energy">    -85.07464537 </i>
   </energy>
  </scstep>
  <scstep>
   <time name="dav">    2.34    2.38</time>
   <time name="total">    2.34    2.38</time>
   <energy>
    <i name="e_fr_energy">   -107.56038635 </i>
    <i name="e_wo_entrp">   -107.47261420 </i>
    <i name="e_0_energy">   -107.51650028 </i>
   </energy>
  </scstep>
  <scstep>
   <time name="dav">    2.14    2.24</time>
   <time name="total">    2.49    2.58</time>
   <energy>
    <i name="e_fr_energy">   -108.34955433 </i>
    <i name="e_wo_entrp">   -108.26171549 </i>
    <i name="e_0_energy">   -108.30563491 </i>
   </energy>
  </scstep>
  <scstep>
   <time name="dav">    2.17    2.17</time>
   <time name="total">    3.53    3.54</time>
   <energy>
    <i name="e_fr_energy">   -211.80209771 </i>
    <i name="e_wo_entrp">   -211.74556607 </i>
    <i name="e_0_energy">   -211.77383189 </i>
   </energy>
  </scstep>
  <scstep>
   <time name="dav">    2.17    2.17</time>
   <time name="total">    3.53    3.54</time>
   <energy>
    <i name="e_fr_energy">   -181.45794862 </i>
    <i name="e_wo_entrp">   -181.40115840 </i>
    <i name="e_0_energy">   -181.42955351 </i>
   </energy>
  </scstep>
  <scstep>
   <time name="dav">    2.34    2.34</time>
   <time name="total">    3.67    3.68</time>
   <energy>
    <i name="e_fr_energy">   -105.87399750 </i>
    <i name="e_wo_entrp">   -105.81681493 </i>
    <i name="e_0_energy">   -105.84540621 </i>
   </energy>
  </scstep>
  <scstep>
   <time name="dav">    2.34    2.34</time>
   <time name="total">    3.67    3.68</time>
   <energy>
    <i name="e_fr_energy">    -96.36844148 </i>
    <i name="e_wo_entrp">    -96.31182912 </i>
    <i name="e_0_energy">    -96.34013530 </i>
   </energy>
  </scstep>
  <scstep>
   <time name="dav">    2.51    2.51</time>
   <time name="total">    3.85    3.85</time>
   <energy>
    <i name="e_fr_energy">    -95.73702006 </i>
    <i name="e_wo_entrp">    -95.66843634 </i>
    <i name="e_0_energy">    -95.70272820 </i>
   </energy>
  </scstep>
  <scstep>
   <time name="dav">    2.15    2.15</time>
   <time name="total">    3.49    3.50</time>
   <energy>
    <i name="e_fr_energy">    -95.51022720 </i>
    <i name="e_wo_entrp">    -95.45312039 </i>
    <i name="e_0_energy">    -95.48167379 </i>
   </energy>
  </scstep>
  <scstep>
   <time name="dav">    2.67    2.67</time>
   <time name="total">    4.02    4.02</time>
   <energy>
    <i name="e_fr_energy">    -95.43082081 </i>
    <i name="e_wo_entrp">    -95.36805701 </i>
    <i name="e_0_energy">    -95.39943891 </i>
   </energy>
  </scstep>
  <scstep>
   <time name="dav">    2.33    2.33</time>
   <time name="total">    3.67    3.68</time>
   <energy>
    <i name="e_fr_energy">    -95.42436588 </i>
    <i name="e_wo_entrp">    -95.36005978 </i>
    <i name="e_0_energy">    -95.39221283 </i>
   </energy>
  </scstep>
  <scstep>
   <time name="dav">    2.33    2.34</time>
   <time name="total">    3.68    3.68</time>
   <energy>
    <i name="e_fr_energy">    -95.41844509 </i>
    <i name="e_wo_entrp">    -95.35564139 </i>
    <i name="e_0_energy">    -95.38704324 </i>
   </energy>
  </scstep>
  <scstep>
   <time name="dav">    2.34    2.34</time>
   <time name="total">    3.69    3.69</time>
   <energy>
    <i name="e_fr_energy">    -95.41627069 </i>
    <i name="e_wo_entrp">    -95.35364754 </i>
    <i name="e_0_energy">    -95.38495911 </i>
   </energy>
  </scstep>
  <scstep>
   <time name="dav">    2.35    2.35</time>
   <time name="total">    3.70    3.70</time>
   <energy>
    <i name="e_fr_energy">    -95.41799038 </i>
    <i name="e_wo_entrp">    -95.35446937 </i>
    <i name="e_0_energy">    -95.38622988 </i>
   </energy>
  </scstep>
  <scstep>
   <time name="dav">    2.16    2.17</time>
   <time name="total">    3.52    3.52</time>
   <energy>
    <i name="e_fr_energy">    -95.42377449 </i>
    <i name="e_wo_entrp">    -95.36066530 </i>
    <i name="e_0_energy">    -95.39221990 </i>
   </energy>
  </scstep>
  <scstep>
   <time name="dav">    2.33    2.35</time>
   <time name="total">    3.69    3.71</time>
   <energy>
    <i name="e_fr_energy">    -95.43219741 </i>
    <i name="e_wo_entrp">    -95.36870527 </i>
    <i name="e_0_energy">    -95.40045134 </i>
   </energy>
  </scstep>
  <scstep>
   <time name="dav">    2.16    2.16</time>
   <time name="total">    3.52    3.52</time>
   <energy>
    <i name="e_fr_energy">    -95.43624768 </i>
    <i name="e_wo_entrp">    -95.37290219 </i>
    <i name="e_0_energy">    -95.40457493 </i>
   </energy>
  </scstep>
  <scstep>
   <time name="dav">    1.99    1.99</time>
   <time name="total">    3.35    3.36</time>
   <energy>
    <i name="e_fr_energy">    -95.43970242 </i>
    <i name="e_wo_entrp">    -95.37644830 </i>
    <i name="e_0_energy">    -95.40807536 </i>
   </energy>
  </scstep>
  <scstep>
   <time name="dav">    1.97    2.05</time>
   <time name="total">    3.31    3.48</time>
   <energy>
    <i name="e_fr_energy">    -95.44220146 </i>
    <i name="e_wo_entrp">    -95.37873938 </i>
    <i name="e_0_energy">    -95.41047042 </i>
   </energy>
  </scstep>
  <scstep>
   <time name="dav">    2.00    2.00</time>
   <time name="total">    3.36    3.37</time>
   <energy>
    <i name="e_fr_energy">    -95.44553324 </i>
    <i name="e_wo_entrp">    -95.38217595 </i>
    <i name="e_0_energy">    -95.41385460 </i>
   </energy>
  </scstep>
  <scstep>
   <time name="dav">    2.01    2.01</time>
   <time name="total">    3.37    3.37</time>
   <energy>
    <i name="e_fr_energy">    -95.44703717 </i>
    <i name="e_wo_entrp">    -95.38371602 </i>
    <i name="e_0_energy">    -95.41537659 </i>
   </energy>
  </scstep>
  <scstep>
   <time name="dav">    2.00    2.01</time>
   <time name="total">    3.36    3.36</time>
   <energy>
    <i name="e_fr_energy">    -95.44791751 </i>
    <i name="e_wo_entrp">    -95.38457810 </i>
    <i name="e_0_energy">    -95.41624781 </i>
   </energy>
  </scstep>
  <scstep>
   <time name="dav">    1.99    2.00</time>
   <time name="total">    3.35    3.36</time>
   <energy>
    <i name="e_fr_energy">    -95.44865361 </i>
    <i name="e_wo_entrp">    -95.38529233 </i>
    <i name="e_0_energy">    -95.41697297 </i>
   </energy>
  </scstep>
  <scstep>
   <time name="dav">    1.67    1.67</time>
   <time name="total">    3.03    3.04</time>
   <energy>
    <i name="e_fr_energy">    -95.44888879 </i>
    <i name="e_wo_entrp">    -95.38552711 </i>
    <i name="e_0_energy">    -95.41720795 </i>
   </energy>
  </scstep>
  <scstep>
   <time name="dav">    1.66    1.66</time>
   <time name="total">    3.02    3.02</time>
   <energy>
    <i name="e_fr_energy">    -95.44911477 </i>
    <i name="e_wo_entrp">    -95.38576201 </i>
    <i name="e_0_energy">    -95.41743839 </i>
   </energy>
  </scstep>
  <scstep>
   <time name="dav">    1.66    1.67</time>
   <time name="total">    3.03    3.03</time>
   <energy>
    <i name="e_fr_energy">    -95.44926167 </i>
    <i name="e_wo_entrp">    -95.38590320 </i>
    <i name="e_0_energy">    -95.41758244 </i>
   </energy>
  </scstep>
  <scstep>
   <time name="dav">    1.66    1.67</time>
   <time name="total">    2.68    2.68</time>
   <energy>
    <i name="alphaZ">      2.04134517 </i>
    <i name="ewald">   4660.57468141 </i>
    <i name="hartreedc">  -6661.48390947 </i>
    <i name="XCdc">    162.79076183 </i>
    <i name="pawpsdc">   2760.33309296 </i>
    <i name="pawaedc">  -2818.01108504 </i>
    <i name="eentropy">     -0.06335501 </i>
    <i name="bandstr">   -611.04713975 </i>
    <i name="atom">   2409.41629947 </i>
    <i name="e_fr_energy">    -95.44930844 </i>
    <i name="e_wo_entrp">    -95.38595343 </i>
    <i name="e_0_energy">    -95.41763093 </i>
   </energy>
  </scstep>
  <structure>
   <crystal>
    <varray name="basis" >
     <v>      20.00000000       0.00000000       0.00000000 </v>
     <v>       0.00000000      20.00000000       0.00000000 </v>
     <v>       0.00000000       0.00000000      20.00000000 </v>
    </varray>
    <i name="volume">   8000.00000000 </i>
    <varray name="rec_basis" >
     <v>       0.05000000       0.00000000       0.00000000 </v>
     <v>       0.00000000       0.05000000       0.00000000 </v>
     <v>       0.00000000       0.00000000       0.05000000 </v>
    </varray>
   </crystal>
   <varray name="positions" >
    <v>       0.82730000       0.15925000       0.89830000 </v>
    <v>       0.79305000       0.21920000       0.99000000 </v>
    <v>       0.86010000       0.26965000       0.92200000 </v>
    <v>       0.83180000       0.12030000       0.01030000 </v>
    <v>       0.91815000       0.10645000       0.94690000 </v>
    <v>       0.93645000       0.19865000       0.89320000 </v>
    <v>       0.93105000       0.05665000       0.92685000 </v>
    <v>       0.79660000       0.07870000       0.01750000 </v>
    <v>       0.74895000       0.24000000       0.01665000 </v>
    <v>       0.83435000       0.29770000       0.88170000 </v>
    <v>       0.75390000       0.22270000       0.83975000 </v>
    <v>       0.85830000       0.08270000       0.81950000 </v>
    <v>       0.84180000       0.18520000       0.78830000 </v>
    <v>       0.78015000       0.05665000       0.89005000 </v>
    <v>       0.71470000       0.14245000       0.90135000 </v>
    <v>       0.69355000       0.15610000       0.95050000 </v>
    <v>       0.90970000       0.06380000       0.82550000 </v>
    <v>       0.78825000       0.02100000       0.93155000 </v>
    <v>       0.75550000       0.27435000       0.85925000 </v>
    <v>       0.88615000       0.21760000       0.78210000 </v>
    <v>       0.94895000       0.19795000       0.83925000 </v>
   </varray>
  </structure>
  <varray name="forces" >
   <v>       0.09078502       0.13516267       0.75824350 </v>
   <v>       4.41347926      -3.19829880      -3.46488506 </v>
   <v>       0.65714675      -4.76844180       2.07161158 </v>
   <v>       2.52914530       3.95590890      -3.21179800 </v>
   <v>      -3.70870220       4.73190876       0.08677036 </v>
   <v>      -4.25821110      -0.87414335       3.53998902 </v>
   <v>      -0.08106909      -0.04095267       0.13007372 </v>
   <v>      -0.16477415       0.04998126      -0.08365758 </v>
   <v>       0.43245882      -0.11443549      -0.12369588 </v>
   <v>       0.20844828       0.00791546       0.09912793 </v>
   <v>       2.08755712      -5.31099458       0.27438263 </v>
   <v>      -4.32436907       3.59985287       2.02686728 </v>
   <v>      -3.20046173      -2.97181686       3.75297237 </v>
   <v>       0.99460613       5.52738453      -2.25043221 </v>
   <v>       4.39194253      -0.20168959      -3.28644837 </v>
   <v>       0.08635778      -0.28073522       0.09243819 </v>
   <v>      -0.14163273      -0.07146164      -0.03200569 </v>
   <v>       0.06893281      -0.00772096      -0.35195348 </v>
   <v>      -0.25716791       0.03284771       0.02699272 </v>
   <v>      -0.03756054      -0.04066409      -0.14357363 </v>
   <v>       0.21308874      -0.15960712       0.08898061 </v>
  </varray>
  <varray name="stress" >
   <v>      -7.69892532       2.14076882       4.64385806 </v>
   <v>       2.14076882     -10.08497459       2.28345314 </v>
   <v>       4.64385806       2.28345313      -5.40235055 </v>
  </varray>
  <energy>
   <i name="e_fr_energy">    -96.17842358 </i>
   <i name="e_wo_entrp">    -96.14674608 </i>
   <i name="e_0_energy">     -0.06335501 </i>
  </energy>
  <time name="totalsc">  102.75  103.21</time>
 </calculation>
 <calculation>
  <scstep>
   <time name="dav">    1.83    1.83</time>
   <time name="total">    3.19    3.19</time>
   <energy>
    <i name="alphaZ">      2.04134517 </i>
    <i name="ewald">   5237.72025922 </i>
    <i name="hartreedc">  -7238.01883722 </i>
    <i name="XCdc">    165.06447049 </i>
    <i name="pawpsdc">   2760.39376148 </i>
    <i name="pawaedc">  -2818.07143684 </i>
    <i name="eentropy">     -0.05646161 </i>
    <i name="bandstr">   -616.03149730 </i>
    <i name="atom">   2409.41629947 </i>
    <i name="e_fr_energy">    -97.54209713 </i>
    <i name="e_wo_entrp">    -97.48563552 </i>
    <i name="e_0_energy">    -97.51386633 </i>
   </energy>
  </scstep>
  <scstep>
   <time name="dav">    2.53    2.53</time>
   <time name="total">    3.88    3.88</time>
   <energy>
    <i name="e_fr_energy">   -108.67374002 </i>
    <i name="e_wo_entrp">   -108.61716693 </i>
    <i name="e_0_energy">   -108.64545348 </i>
   </energy>
  </scstep>
  <scstep>
   <time name="dav">    2.53    2.53</time>
   <time name="total">    3.87    3.88</time>
   <energy>
    <i name="e_fr_energy">   -112.20239760 </i>
    <i name="e_wo_entrp">   -112.12997910 </i>
    <i name="e_0_energy">   -112.16618835 </i>
   </energy>
  </scstep>
  <scstep>
   <time name="dav">    2.36    2.36</time>
   <time name="total">    3.70    3.71</time>
   <energy>
    <i name="e_fr_energy">   -107.00708757 </i>
    <i name="e_wo_entrp">   -106.95058938 </i>
    <i name="e_0_energy">   -106.97883848 </i>
   </energy>
  </scstep>
  <scstep>
   <time name="dav">    2.49    2.49</time>
   <time name="total">    3.82    3.83</time>
   <energy>
    <i name="e_fr_energy">   -106.63848452 </i>
    <i name="e_wo_entrp">   -106.58152676 </i>
    <i name="e_0_energy">   -106.61000564 </i>
   </energy>
  </scstep>
  <scstep>
   <time name="dav">    2.51    2.51</time>
   <time name="total">    3.84    3.84</time>
   <energy>
    <i name="e_fr_energy">   -106.48623049 </i>
    <i name="e_wo_entrp">   -106.42963720 </i>
    <i name="e_0_energy">   -106.45793385 </i>
   </energy>
  </scstep>
  <scstep>
   <time name="dav">    2.68    2.71</time>
   <time name="total">    4.01    4.06</time>
   <energy>
    <i name="e_fr_energy">   -106.46641066 </i>
    <i name="e_wo_entrp">   -106.40976379 </i>
    <i name="e_0_energy">   -106.43808722 </i>
   </energy>
  </scstep>
  <scstep>
   <time name="dav">    2.33    2.41</time>
   <time name="total">    3.66    3.75</time>
   <energy>
    <i name="e_fr_energy">   -106.46688528 </i>
    <i name="e_wo_entrp">   -106.41012293 </i>
    <i name="e_0_energy">   -106.43850410 </i>
   </energy>
  </scstep>
  <scstep>
   <time name="dav">    2.35    2.35</time>
   <time name="total">    3.82    3.83</time>
   <energy>
    <i name="e_fr_energy">   -106.46701841 </i>
    <i name="e_wo_entrp">   -106.41029895 </i>
    <i name="e_0_energy">   -106.43865868 </i>
   </energy>
  </scstep>
  <scstep>
   <time name="dav">    2.85    2.85</time>
   <time name="total">    5.36    5.36</time>
   <energy>
    <i name="e_fr_energy">   -106.46725710 </i>
    <i name="e_wo_entrp">   -106.41059162 </i>
    <i name="e_0_energy">   -106.43892436 </i>
   </energy>
  </scstep>
  <scstep>
   <time name="dav">    2.33    2.33</time>
   <time name="total">    3.66    3.69</time>
   <energy>
    <i name="e_fr_energy">   -106.46782944 </i>
    <i name="e_wo_entrp">   -106.41117080 </i>
    <i name="e_0_energy">   -106.43950012 </i>
   </energy>
  </scstep>
  <scstep>
   <time name="dav">    2.17    2.17</time>
   <time name="total">    3.51    3.52</time>
   <energy>
    <i name="e_fr_energy">   -106.46882508 </i>
    <i name="e_wo_entrp">   -106.41217717 </i>
    <i name="e_0_energy">   -106.44050113 </i>
   </energy>
  </scstep>
  <scstep>
   <time name="dav">    1.95    2.10</time>
   <time name="total">    3.30    3.45</time>
   <energy>
    <i name="e_fr_energy">   -106.46979594 </i>
    <i name="e_wo_entrp">   -106.41316563 </i>
    <i name="e_0_energy">   -106.44148078 </i>
   </energy>
  </scstep>
  <scstep>
   <time name="dav">    2.01    2.01</time>
   <time name="total">    3.36    3.37</time>
   <energy>
    <i name="e_fr_energy">   -106.47048603 </i>
    <i name="e_wo_entrp">   -106.41386173 </i>
    <i name="e_0_energy">   -106.44217388 </i>
   </energy>
  </scstep>
  <scstep>
   <time name="dav">    2.00    2.00</time>
   <time name="total">    3.34    3.35</time>
   <energy>
    <i name="e_fr_energy">   -106.47093345 </i>
    <i name="e_wo_entrp">   -106.41430846 </i>
    <i name="e_0_energy">   -106.44262096 </i>
   </energy>
  </scstep>
  <scstep>
   <time name="dav">    2.00    2.00</time>
   <time name="total">    3.34    4.16</time>
   <energy>
    <i name="e_fr_energy">   -106.47116926 </i>
    <i name="e_wo_entrp">   -106.41454038 </i>
    <i name="e_0_energy">   -106.44285482 </i>
   </energy>
  </scstep>
  <scstep>
   <time name="dav">    2.00    2.01</time>
   <time name="total">    3.36    3.36</time>
   <energy>
    <i name="e_fr_energy">   -106.47138240 </i>
    <i name="e_wo_entrp">   -106.41475003 </i>
    <i name="e_0_energy">   -106.44306621 </i>
   </energy>
  </scstep>
  <scstep>
   <time name="dav">    2.01    2.01</time>
   <time name="total">    3.01    3.03</time>
   <energy>
    <i name="alphaZ">      2.04134517 </i>
    <i name="ewald">   5237.72025922 </i>
    <i name="hartreedc">  -7244.14763026 </i>
    <i name="XCdc">    164.02347107 </i>
    <i name="pawpsdc">   2962.11410734 </i>
    <i name="pawaedc">  -3020.83448179 </i>
    <i name="eentropy">     -0.05663350 </i>
    <i name="bandstr">   -616.74820555 </i>
    <i name="atom">   2409.41629947 </i>
    <i name="e_fr_energy">   -106.47146883 </i>
    <i name="e_wo_entrp">   -106.41483534 </i>
    <i name="e_0_energy">   -106.44315209 </i>
   </energy>
  </scstep>
  <structure>
   <crystal>
    <varray name="basis" >
     <v>      20.00000000       0.00000000       0.00000000 </v>
     <v>       0.00000000      20.00000000       0.00000000 </v>
     <v>       0.00000000       0.00000000      20.00000000 </v>
    </varray>
    <i name="volume">   8000.00000000 </i>
    <varray name="rec_basis" >
     <v>       0.05000000       0.00000000       0.00000000 </v>
     <v>       0.00000000       0.05000000       0.00000000 </v>
     <v>       0.00000000       0.00000000       0.05000000 </v>
    </varray>
   </crystal>
   <varray name="positions" >
    <v>       0.82751899       0.15957603       0.90012898 </v>
    <v>       0.80369590       0.21148528       0.98164224 </v>
    <v>       0.86168513       0.25814789       0.92699700 </v>
    <v>       0.83790063       0.12984218       0.00255272 </v>
    <v>       0.90920412       0.11786399       0.94710930 </v>
    <v>       0.92617863       0.19654145       0.90173892 </v>
    <v>       0.93085445       0.05655122       0.92716376 </v>
    <v>       0.79620254       0.07882056       0.01729821 </v>
    <v>       0.74999315       0.23972397       0.01635163 </v>
    <v>       0.83485280       0.29771909       0.88193911 </v>
    <v>       0.75893546       0.20988918       0.84041185 </v>
    <v>       0.84786905       0.09138332       0.82438907 </v>
    <v>       0.83408006       0.17803158       0.79735267 </v>
    <v>       0.78254912       0.06998278       0.88462166 </v>
    <v>       0.72529395       0.14196350       0.89342265 </v>
    <v>       0.69375831       0.15542283       0.95072297 </v>
    <v>       0.90935836       0.06362763       0.82542280 </v>
    <v>       0.78841628       0.02098138       0.93070104 </v>
    <v>       0.75487968       0.27442923       0.85931511 </v>
    <v>       0.88605940       0.21750191       0.78175368 </v>
    <v>       0.94946400       0.19756501       0.83946463 </v>
   </varray>
  </structure>
  <varray name="forces" >
   <v>       0.13506234       0.08074597       0.34112018 </v>
   <v>       1.94594966      -0.53717920       0.43133851 </v>
   <v>      -0.74407472      -3.46251472      -0.34414193 </v>
   <v>      -0.06934378       1.22349619      -3.27755586 </v>
   <v>      -1.86270734       1.25864562      -0.32868788 </v>
   <v>      -2.79944968      -0.62389638       0.62037260 </v>
   <v>      -1.38775346       3.69299778       1.32967340 </v>
   <v>       2.59582264       3.30893451      -0.77872126 </v>
   <v>       3.45121527      -1.91140079      -2.40754499 </v>
   <v>       1.51837348      -2.05054387       2.70002821 </v>
   <v>       1.62041404      -1.87569726       1.14081162 </v>
   <v>      -1.04825134       1.91051181       2.04465170 </v>
   <v>      -0.60853657      -1.06030636       2.62546694 </v>
   <v>       1.00179778       2.31128564      -0.27090517 </v>
   <v>       2.84501751       0.25791551      -0.23452727 </v>
   <v>       1.85644402      -1.05655650      -3.43702305 </v>
   <v>      -4.04915306       1.59313627      -0.16392898 </v>
   <v>      -0.37483805       3.00974268      -3.17680464 </v>
   <v>       0.10725666      -3.58817785      -1.13695024 </v>
   <v>      -2.98302874      -2.40211342       0.79010636 </v>
   <v>      -1.15021664      -0.07902562       3.53322176 </v>
  </varray>
  <varray name="stress" >
   <v>      -9.76195222       2.60902998       5.95662193 </v>
   <v>       2.60902997     -12.94404399       2.96038877 </v>
   <v>       5.95662194       2.96038877      -7.26180531 </v>
  </varray>
  <energy>
   <i name="e_fr_energy">   -107.28906807 </i>
   <i name="e_wo_entrp">   -107.26075132 </i>
   <i name="e_0_energy">     -0.05663350 </i>
  </energy>
  <time name="totalsc">   72.38   73.61</time>
 </calculation>
 <calculation>
  <scstep>
   <time name="dav">    1.82    1.83</time>
   <time name="total">    3.17    3.18</time>
   <energy>
    <i name="alphaZ">      2.04134517 </i>
    <i name="ewald">   5780.60377804 </i>
    <i name="hartreedc">  -7741.98113942 </i>
    <i name="XCdc">    167.92405992 </i>
    <i name="pawpsdc">   2961.86533635 </i>
    <i name="pawaedc">  -3020.58648231 </i>
    <i name="eentropy">     -0.06461181 </i>
    <i name="bandstr">   -664.50782463 </i>
    <i name="atom">   2409.41629947 </i>
    <i name="e_fr_energy">   -105.28923923 </i>
    <i name="e_wo_entrp">   -105.22462742 </i>
    <i name="e_0_energy">   -105.25693333 </i>
   </energy>
  </scstep>
  <scstep>
   <time name="dav">    2.46    2.46</time>
   <time name="total">    3.78    3.79</time>
   <energy>
    <i name="e_fr_energy">   -109.66528067 </i>
    <i name="e_wo_entrp">   -109.60596811 </i>
    <i name="e_0_energy">   -109.63562439 </i>
   </energy>
  </scstep>
  <scstep>
   <time name="dav">    2.49    2.49</time>
   <time name="total">    3.82    3.82</time>
   <energy>
    <i name="e_fr_energy">   -109.69498288 </i>
    <i name="e_wo_entrp">   -109.62370192 </i>
    <i name="e_0_energy">   -109.65934240 </i>
   </energy>
  </scstep>
  <scstep>
   <time name="dav">    2.61    2.73</time>
   <time name="total">    3.91    4.07</time>
   <energy>
    <i name="e_fr_energy">   -109.06184771 </i>
    <i name="e_wo_entrp">   -108.97654152 </i>
    <i name="e_0_energy">   -109.01919461 </i>
   </energy>
  </scstep>
  <scstep>
   <time name="dav">    2.64    2.64</time>
   <time name="total">    3.96    3.96</time>
   <energy>
    <i name="e_fr_energy">   -108.97082726 </i>
    <i name="e_wo_entrp">   -108.90184271 </i>
    <i name="e_0_energy">   -108.93633498 </i>
   </energy>
  </scstep>
  <scstep>
   <time name="dav">    2.63    2.63</time>
   <time name="total">    3.95    3.96</time>
   <energy>
    <i name="e_fr_energy">   -108.90554259 </i>
    <i name="e_wo_entrp">   -108.83281690 </i>
    <i name="e_0_energy">   -108.86917974 </i>
   </energy>
  </scstep>
  <scstep>
   <time name="dav">    2.36    2.36</time>
   <time name="total">    3.70    3.70</time>
   <energy>
    <i name="e_fr_energy">   -108.90447627 </i>
    <i name="e_wo_entrp">   -108.82951914 </i>
    <i name="e_0_energy">   -108.86699770 </i>
   </energy>
  </scstep>
  <scstep>
   <time name="dav">    2.16    2.16</time>
   <time name="total">    3.50    3.50</time>
   <energy>
    <i name="e_fr_energy">   -108.90371450 </i>
    <i name="e_wo_entrp">   -108.82984527 </i>
    <i name="e_0_energy">   -108.86677988 </i>
   </energy>
  </scstep>
  <scstep>
   <time name="dav">    2.33    2.33</time>
   <time name="total">    3.67    3.67</time>
   <energy>
    <i name="e_fr_energy">   -108.90509236 </i>
    <i name="e_wo_entrp">   -108.83049481 </i>
    <i name="e_0_energy">   -108.86779359 </i>
   </energy>
  </scstep>
  <scstep>
   <time name="dav">    2.18    2.18</time>
   <time name="total">    3.52    3.52</time>
   <energy>
    <i name="e_fr_energy">   -108.90675545 </i>
    <i name="e_wo_entrp">   -108.83275475 </i>
    <i name="e_0_energy">   -108.86975510 </i>
   </energy>
  </scstep>
  <scstep>
   <time name="dav">    1.99    1.99</time>
   <time name="total">    3.33    3.33</time>
   <energy>
    <i name="e_fr_energy">   -108.90832085 </i>
    <i name="e_wo_entrp">   -108.83414900 </i>
    <i name="e_0_energy">   -108.87123493 </i>
   </energy>
  </scstep>
  <scstep>
   <time name="dav">    2.00    2.00</time>
   <time name="total">    3.35    3.35</time>
   <energy>
    <i name="e_fr_energy">   -108.90986214 </i>
    <i name="e_wo_entrp">   -108.83569190 </i>
    <i name="e_0_energy">   -108.87277702 </i>
   </energy>
  </scstep>
  <scstep>
   <time name="dav">    2.17    2.17</time>
   <time name="total">    3.50    4.97</time>
   <energy>
    <i name="e_fr_energy">   -108.91072032 </i>
    <i name="e_wo_entrp">   -108.83657067 </i>
    <i name="e_0_energy">   -108.87364549 </i>
   </energy>
  </scstep>
  <scstep>
   <time name="dav">    2.00    2.00</time>
   <time name="total">    3.33    3.35</time>
   <energy>
    <i name="e_fr_energy">   -108.91158557 </i>
    <i name="e_wo_entrp">   -108.83731193 </i>
    <i name="e_0_energy">   -108.87444875 </i>
   </energy>
  </scstep>
  <scstep>
   <time name="dav">    2.17    2.17</time>
   <time name="total">    3.52    3.53</time>
   <energy>
    <i name="e_fr_energy">   -108.91197878 </i>
    <i name="e_wo_entrp">   -108.83770273 </i>
    <i name="e_0_energy">   -108.87484076 </i>
   </energy>
  </scstep>
  <scstep>
   <time name="dav">    2.00    2.00</time>
   <time name="total">    3.35    3.35</time>
   <energy>
    <i name="e_fr_energy">   -108.91232007 </i>
    <i name="e_wo_entrp">   -108.83804373 </i>
    <i name="e_0_energy">   -108.87518190 </i>
   </energy>
  </scstep>
  <scstep>
   <time name="dav">    2.00    2.00</time>
   <time name="total">    3.35    3.36</time>
   <energy>
    <i name="e_fr_energy">   -108.91248059 </i>
    <i name="e_wo_entrp">   -108.83818851 </i>
    <i name="e_0_energy">   -108.87533455 </i>
   </energy>
  </scstep>
  <scstep>
   <time name="dav">    2.00    2.00</time>
   <time name="total">    3.01    3.02</time>
   <energy>
    <i name="alphaZ">      2.04134517 </i>
    <i name="ewald">   5780.60377804 </i>
    <i name="hartreedc">  -7756.60147529 </i>
    <i name="XCdc">    168.10187286 </i>
    <i name="pawpsdc">   3791.56389987 </i>
    <i name="pawaedc">  -3852.61255022 </i>
    <i name="eentropy">     -0.07429109 </i>
    <i name="bandstr">   -651.35144794 </i>
    <i name="atom">   2409.41629947 </i>
    <i name="e_fr_energy">   -108.91256913 </i>
    <i name="e_wo_entrp">   -108.83827804 </i>
    <i name="e_0_energy">   -108.87542359 </i>
   </energy>
  </scstep>
  <structure>
   <crystal>
    <varray name="basis" >
     <v>      20.00000000       0.00000000       0.00000000 </v>
     <v>       0.00000000      20.00000000       0.00000000 </v>
     <v>       0.00000000       0.00000000      20.00000000 </v>
    </varray>
    <i name="volume">   8000.00000000 </i>
    <varray name="rec_basis" >
     <v>       0.05000000       0.00000000       0.00000000 </v>
     <v>       0.00000000       0.05000000       0.00000000 </v>
     <v>       0.00000000       0.00000000       0.05000000 </v>
    </varray>
   </crystal>
   <varray name="positions" >
    <v>       0.82767902       0.15981429       0.90146560 </v>
    <v>       0.81147592       0.20584736       0.97553439 </v>
    <v>       0.86284353       0.24974214       0.93064881 </v>
    <v>       0.84235898       0.13681560      -0.00310900 </v>
    <v>       0.90266647       0.12620533       0.94726226 </v>
    <v>       0.91867232       0.19500052       0.90797917 </v>
    <v>       0.93071154       0.05647903       0.92739305 </v>
    <v>       0.79591208       0.07890867       0.01715074 </v>
    <v>       0.75075548       0.23952224       0.01613358 </v>
    <v>       0.83522025       0.29773305       0.88211385 </v>
    <v>       0.76261538       0.20052703       0.84089553 </v>
    <v>       0.84024611       0.09772909       0.82796201 </v>
    <v>       0.82843833       0.17279291       0.80396835 </v>
    <v>       0.78430240       0.07972638       0.88065463 </v>
    <v>       0.73303600       0.14160796       0.88762935 </v>
    <v>       0.69391054       0.15492795       0.95088592 </v>
    <v>       0.90910869       0.06350165       0.82536638 </v>
    <v>       0.78853779       0.02096777       0.93008062 </v>
    <v>       0.75442634       0.27448714       0.85936269 </v>
    <v>       0.88599319       0.21743023       0.78150059 </v>
    <v>       0.94983963       0.19728365       0.83962149 </v>
   </varray>
  </structure>
  <varray name="forces" >
   <v>       0.11148852      -0.04336905      -1.69341274 </v>
   <v>       0.31589264       2.92685845       4.42398042 </v>
   <v>      -0.69325889      -1.59155333      -1.15969244 </v>
   <v>      -0.94409157      -0.51557467      -1.62641082 </v>
   <v>       1.03631401      -0.71428631       0.45186164 </v>
   <v>      -0.45412438      -0.00055966      -0.36639953 </v>
   <v>      -1.58364841       3.95302781       1.22517427 </v>
   <v>       2.76058193       3.40022386      -1.00412164 </v>
   <v>       3.26501616      -2.02545942      -2.47396863 </v>
   <v>       1.43455992      -2.51215735       2.96866554 </v>
   <v>       0.21463208       0.01184419       0.74867638 </v>
   <v>       0.65861460      -0.06384154       0.37314552 </v>
   <v>       0.21804843       0.13334274       0.46499172 </v>
   <v>      -0.34162120      -1.14187534       0.03323272 </v>
   <v>       0.69210071       0.18066972       0.77447196 </v>
   <v>       2.21721357      -0.98399317      -3.90276874 </v>
   <v>      -4.35302756       1.89365286       0.06666571 </v>
   <v>      -0.33283238       3.44518772      -3.07887332 </v>
   <v>       0.43834611      -3.74842690      -1.14703876 </v>
   <v>      -3.05682515      -2.59763698       1.15449087 </v>
   <v>      -1.60337913      -0.00607364       3.76732988 </v>
  </varray>
  <varray name="stress" >
   <v>      -6.80899867       2.30736685       5.51630407 </v>
   <v>       2.30736685      -9.64420883       3.16089790 </v>
   <v>       5.51630407       3.16089790      -4.44017174 </v>
  </varray>
  <energy>
   <i name="e_fr_energy">   -109.68962833 </i>
   <i name="e_wo_entrp">   -109.65248279 </i>
   <i name="e_0_energy">     -0.07429109 </i>
  </energy>
  <time name="totalsc">   70.04   71.82</time>
 </calculation>
 <calculation>
  <scstep>
   <time name="dav">    1.81    1.89</time>
   <time name="total">    3.17    3.31</time>
   <energy>
    <i name="alphaZ">      2.04134517 </i>
    <i name="ewald">   6584.89153392 </i>
    <i name="hartreedc">  -8448.68925746 </i>
    <i name="XCdc">    176.39512280 </i>
    <i name="pawpsdc">   3791.50387632 </i>
    <i name="pawaedc">  -3852.55195344 </i>
    <i name="eentropy">     -0.05641896 </i>
    <i name="bandstr">   -771.89562266 </i>
    <i name="atom">   2409.41629947 </i>
    <i name="e_fr_energy">   -108.94507484 </i>
    <i name="e_wo_entrp">   -108.88865588 </i>
    <i name="e_0_energy">   -108.91686536 </i>
   </energy>
  </scstep>
  <scstep>
   <time name="dav">    2.47    2.47</time>
   <time name="total">    3.78    3.79</time>
   <energy>
    <i name="e_fr_energy">   -113.23715867 </i>
    <i name="e_wo_entrp">   -113.18073971 </i>
    <i name="e_0_energy">   -113.20894919 </i>
   </energy>
  </scstep>
  <scstep>
   <time name="dav">    2.47    2.48</time>
   <time name="total">    3.79    3.80</time>
   <energy>
    <i name="e_fr_energy">   -112.54142260 </i>
    <i name="e_wo_entrp">   -112.48500364 </i>
    <i name="e_0_energy">   -112.51321312 </i>
   </energy>
  </scstep>
  <scstep>
   <time name="dav">    2.47    2.47</time>
   <time name="total">    3.78    3.79</time>
   <energy>
    <i name="e_fr_energy">   -112.44200041 </i>
    <i name="e_wo_entrp">   -112.38558146 </i>
    <i name="e_0_energy">   -112.41379094 </i>
   </energy>
  </scstep>
  <scstep>
   <time name="dav">    2.47    2.47</time>
   <time name="total">    3.79    3.80</time>
   <energy>
    <i name="e_fr_energy">   -111.79550386 </i>
    <i name="e_wo_entrp">   -111.73908490 </i>
    <i name="e_0_energy">   -111.76729438 </i>
   </energy>
  </scstep>
  <scstep>
   <time name="dav">    2.64    2.64</time>
   <time name="total">    3.96    3.97</time>
   <energy>
    <i name="e_fr_energy">   -111.79313591 </i>
    <i name="e_wo_entrp">   -111.73671695 </i>
    <i name="e_0_energy">   -111.76492643 </i>
   </energy>
  </scstep>
  <scstep>
   <time name="dav">    2.49    2.49</time>
   <time name="total">    3.82    3.83</time>
   <energy>
    <i name="e_fr_energy">   -111.79480608 </i>
    <i name="e_wo_entrp">   -111.73838712 </i>
    <i name="e_0_energy">   -111.76659660 </i>
   </energy>
  </scstep>
  <scstep>
   <time name="dav">    2.34    2.34</time>
   <time name="total">    3.67    3.68</time>
   <energy>
    <i name="e_fr_energy">   -111.79663498 </i>
    <i name="e_wo_entrp">   -111.74021603 </i>
    <i name="e_0_energy">   -111.76842550 </i>
   </energy>
  </scstep>
  <scstep>
   <time name="dav">    2.66    2.67</time>
   <time name="total">    4.00    4.01</time>
   <energy>
    <i name="e_fr_energy">   -111.79840267 </i>
    <i name="e_wo_entrp">   -111.74198371 </i>
    <i name="e_0_energy">   -111.77019319 </i>
   </energy>
  </scstep>
  <scstep>
   <time name="dav">    1.82    1.83</time>
   <time name="total">    3.14    3.17</time>
   <energy>
    <i name="e_fr_energy">   -111.80059171 </i>
    <i name="e_wo_entrp">   -111.74417275 </i>
    <i name="e_0_energy">   -111.77238223 </i>
   </energy>
  </scstep>
  <scstep>
   <time name="dav">    2.00    2.00</time>
   <time name="total">    3.34    3.34</time>
   <energy>
    <i name="e_fr_energy">   -111.80204033 </i>
    <i name="e_wo_entrp">   -111.74562137 </i>
    <i name="e_0_energy">   -111.77383085 </i>
   </energy>
  </scstep>
  <scstep>
   <time name="dav">    2.34    2.34</time>
   <time name="total">    3.68    3.69</time>
   <energy>
    <i name="e_fr_energy">   -111.80412950 </i>
    <i name="e_wo_entrp">   -111.74771054 </i>
    <i name="e_0_energy">   -111.77592002 </i>
   </energy>
  </scstep>
  <scstep>
   <time name="dav">    1.66    1.66</time>
   <time name="total">    3.00    3.01</time>
   <energy>
    <i name="e_fr_energy">   -111.80512464 </i>
    <i name="e_wo_entrp">   -111.74870568 </i>
    <i name="e_0_energy">   -111.77691516 </i>
   </energy>
  </scstep>
  <scstep>
   <time name="dav">    1.99    2.00</time>
   <time name="total">    3.34    3.35</time>
   <energy>
    <i name="e_fr_energy">   -111.80584668 </i>
    <i name="e_wo_entrp">   -111.74942772 </i>
    <i name="e_0_energy">   -111.77763720 </i>
   </energy>
  </scstep>
  <scstep>
   <time name="dav">    1.83    1.84</time>
   <time name="total">    3.18    3.19</time>
   <energy>
    <i name="e_fr_energy">   -111.80621755 </i>
    <i name="e_wo_entrp">   -111.74979859 </i>
    <i name="e_0_energy">   -111.77800807 </i>
   </energy>
  </scstep>
  <scstep>
   <time name="dav">    2.00    2.00</time>
   <time name="total">    3.36    3.36</time>
   <energy>
    <i name="e_fr_energy">   -111.80635020 </i>
    <i name="e_wo_entrp">   -111.74993124 </i>
    <i name="e_0_energy">   -111.77814072 </i>
   </energy>
  </scstep>
  <scstep>
   <time name="dav">    2.00    2.00</time>
   <time name="total">    3.35    3.40</time>
   <energy>
    <i name="e_fr_energy">   -111.80645496 </i>
    <i name="e_wo_entrp">   -111.75003600 </i>
    <i name="e_0_energy">   -111.77824548 </i>
   </energy>
  </scstep>
  <scstep>
   <time name="dav">    1.94    2.06</time>
   <time name="total">    2.95    3.10</time>
   <energy>
    <i name="alphaZ">      2.04134517 </i>
    <i name="ewald">   6584.89153392 </i>
    <i name="hartreedc">  -8510.66436420 </i>
    <i name="XCdc">    178.08510640 </i>
    <i name="pawpsdc">   5923.89975387 </i>
    <i name="pawaedc">  -5989.09670616 </i>
    <i name="eentropy">     -0.05641896 </i>
    <i name="bandstr">   -710.32306117 </i>
    <i name="atom">   2409.41629947 </i>
    <i name="e_fr_energy">   -111.80651164 </i>
    <i name="e_wo_entrp">   -111.75009268 </i>
    <i name="e_0_energy">   -111.77830216 </i>
   </energy>
  </scstep>
  <structure>
   <crystal>
    <varray name="basis" >
     <v>      20.00000000       0.00000000       0.00000000 </v>
     <v>       0.00000000      20.00000000       0.00000000 </v>
     <v>       0.00000000       0.00000000      20.00000000 </v>
    </varray>
    <i name="volume">   8000.00000000 </i>
    <varray name="rec_basis" >
     <v>       0.05000000       0.00000000       0.00000000 </v>
     <v>       0.00000000       0.05000000       0.00000000 </v>
     <v>       0.00000000       0.00000000       0.05000000 </v>
    </varray>
   </crystal>
   <varray name="positions" >
    <v>       0.82810448       0.15996128       0.89892076 </v>
    <v>       0.82029984       0.20678552       0.97946251 </v>
    <v>       0.86243728       0.23730353       0.93175150 </v>
    <v>       0.84480129       0.14286885      -0.01277527 </v>
    <v>       0.89827631       0.13321928       0.94847123 </v>
    <v>       0.90981181       0.19339691       0.91361665 </v>
    <v>       0.92688328       0.06558896       0.93047821 </v>
    <v>       0.80202436       0.08690083       0.01466428 </v>
    <v>       0.75913456       0.23460625       0.01015849 </v>
    <v>       0.83893559       0.29191047       0.88919336 </v>
    <v>       0.76694059       0.19081946       0.84313805 </v>
    <v>       0.83384983       0.10417931       0.83254428 </v>
    <v>       0.82307851       0.16765537       0.81192800 </v>
    <v>       0.78533175       0.08720493       0.87660679 </v>
    <v>       0.74269458       0.14165806       0.88340478 </v>
    <v>       0.69922061       0.15212702       0.94198714 </v>
    <v>       0.89873466       0.06777064       0.82546261 </v>
    <v>       0.78789080       0.02895863       0.92228162 </v>
    <v>       0.75497347       0.26583774       0.85674698 </v>
    <v>       0.87882169       0.21131999       0.78391992 </v>
    <v>       0.94650471       0.19697698       0.84853812 </v>
   </varray>
  </structure>
  <varray name="forces" >
   <v>       1.15901831       1.99141900       5.14349077 </v>
   <v>      -4.11915442       3.99308700       3.71202575 </v>
   <v>      -2.09913623       8.22867941      -0.77174795 </v>
   <v>      -4.28212673      -4.80924899       6.89266130 </v>
   <v>       7.01918344      -5.56696533      -0.85333553 </v>
   <v>       7.71773291      -0.22049298      -4.22053142 </v>
   <v>      -1.45273071       3.83055229       1.05829958 </v>
   <v>       2.47772941       3.02528428      -1.26581067 </v>
   <v>       3.61161840      -1.72226288      -2.01395812 </v>
   <v>       1.48885593      -2.63019554       2.57421267 </v>
   <v>      -4.44033422       7.88364808      -2.29925206 </v>
   <v>       6.43854251      -7.05056297      -5.16914994 </v>
   <v>       3.86702477       4.58817482      -7.72884879 </v>
   <v>      -3.45009840      -9.09048508       2.97175554 </v>
   <v>      -8.01019703      -0.95231766       4.28051034 </v>
   <v>       2.28504882      -0.72926053      -3.63144942 </v>
   <v>      -3.74191825       1.91287513       0.23026867 </v>
   <v>      -0.24160745       3.34413502      -2.67178297 </v>
   <v>       0.42306167      -3.75385449      -1.03309176 </v>
   <v>      -2.99282287      -2.26743888       1.15478329 </v>
   <v>      -1.65768987      -0.00476972       3.64095072 </v>
  </varray>
  <varray name="stress" >
   <v>       2.70664812       1.31151068       3.07605394 </v>
   <v>       1.31151068       0.52633330       1.45017535 </v>
   <v>       3.07605394       1.45017535       3.31318712 </v>
  </varray>
  <energy>
   <i name="e_fr_energy">   -112.65948752 </i>
   <i name="e_wo_entrp">   -112.63127804 </i>
   <i name="e_0_energy">     -0.05641896 </i>
  </energy>
  <time name="totalsc">   69.44   70.00</time>
 </calculation>
 <calculation>
  <scstep>
   <time name="dav">    1.82    1.82</time>
   <time name="total">    3.18    3.18</time>
   <energy>
    <i name="alphaZ">      2.04134517 </i>
    <i name="ewald">   6319.58805026 </i>
    <i name="hartreedc">  -8284.88325452 </i>
    <i name="XCdc">    175.22213728 </i>
    <i name="pawpsdc">   5923.84939119 </i>
    <i name="pawaedc">  -5989.04685667 </i>
    <i name="eentropy">     -0.05641896 </i>
    <i name="bandstr">   -669.33751394 </i>
    <i name="atom">   2409.41629947 </i>
    <i name="e_fr_energy">   -113.20682073 </i>
    <i name="e_wo_entrp">   -113.15040177 </i>
    <i name="e_0_energy">   -113.17861125 </i>
   </energy>
  </scstep>
  <scstep>
   <time name="dav">    2.30    2.30</time>
   <time name="total">    3.65    3.65</time>
   <energy>
    <i name="e_fr_energy">   -113.23821478 </i>
    <i name="e_wo_entrp">   -113.18179582 </i>
    <i name="e_0_energy">   -113.21000530 </i>
   </energy>
  </scstep>
  <scstep>
   <time name="dav">    2.46    2.47</time>
   <time name="total">    3.81    3.82</time>
   <energy>
    <i name="e_fr_energy">   -113.25040480 </i>
    <i name="e_wo_entrp">   -113.19398584 </i>
    <i name="e_0_energy">   -113.22219532 </i>
   </energy>
  </scstep>
  <scstep>
   <time name="dav">    2.30    2.30</time>
   <time name="total">    3.65    3.66</time>
   <energy>
    <i name="e_fr_energy">   -113.29282662 </i>
    <i name="e_wo_entrp">   -113.23640767 </i>
    <i name="e_0_energy">   -113.26461714 </i>
   </energy>
  </scstep>
  <scstep>
   <time name="dav">    2.30    2.30</time>
   <time name="total">    3.64    3.70</time>
   <energy>
    <i name="e_fr_energy">   -113.19180368 </i>
    <i name="e_wo_entrp">   -113.13538472 </i>
    <i name="e_0_energy">   -113.16359420 </i>
   </energy>
  </scstep>
  <scstep>
   <time name="dav">    2.29    2.30</time>
   <time name="total">    3.64    3.64</time>
   <energy>
    <i name="e_fr_energy">   -113.19390726 </i>
    <i name="e_wo_entrp">   -113.13748830 </i>
    <i name="e_0_energy">   -113.16569778 </i>
   </energy>
  </scstep>
  <scstep>
   <time name="dav">    2.67    2.67</time>
   <time name="total">    4.01    4.02</time>
   <energy>
    <i name="e_fr_energy">   -113.19415811 </i>
    <i name="e_wo_entrp">   -113.13773915 </i>
    <i name="e_0_energy">   -113.16594863 </i>
   </energy>
  </scstep>
  <scstep>
   <time name="dav">    1.99    1.99</time>
   <time name="total">    3.33    3.34</time>
   <energy>
    <i name="e_fr_energy">   -113.19450160 </i>
    <i name="e_wo_entrp">   -113.13808264 </i>
    <i name="e_0_energy">   -113.16629212 </i>
   </energy>
  </scstep>
  <scstep>
   <time name="dav">    2.00    2.00</time>
   <time name="total">    3.35    3.35</time>
   <energy>
    <i name="e_fr_energy">   -113.19468158 </i>
    <i name="e_wo_entrp">   -113.13826262 </i>
    <i name="e_0_energy">   -113.16647210 </i>
   </energy>
  </scstep>
  <scstep>
   <time name="dav">    2.00    2.00</time>
   <time name="total">    3.34    3.38</time>
   <energy>
    <i name="e_fr_energy">   -113.19487254 </i>
    <i name="e_wo_entrp">   -113.13845359 </i>
    <i name="e_0_energy">   -113.16666306 </i>
   </energy>
  </scstep>
  <scstep>
   <time name="dav">    2.00    2.00</time>
   <time name="total">    3.34    3.35</time>
   <energy>
    <i name="e_fr_energy">   -113.19503273 </i>
    <i name="e_wo_entrp">   -113.13861377 </i>
    <i name="e_0_energy">   -113.16682325 </i>
   </energy>
  </scstep>
  <scstep>
   <time name="dav">    1.83    1.84</time>
   <time name="total">    3.19    3.19</time>
   <energy>
    <i name="e_fr_energy">   -113.19514009 </i>
    <i name="e_wo_entrp">   -113.13872113 </i>
    <i name="e_0_energy">   -113.16693061 </i>
   </energy>
  </scstep>
  <scstep>
   <time name="dav">    2.02    2.04</time>
   <time name="total">    3.38    3.39</time>
   <energy>
    <i name="e_fr_energy">   -113.19524155 </i>
    <i name="e_wo_entrp">   -113.13882259 </i>
    <i name="e_0_energy">   -113.16703207 </i>
   </energy>
  </scstep>
  <scstep>
   <time name="dav">    2.00    2.01</time>
   <time name="total">    3.02    3.02</time>
   <energy>
    <i name="alphaZ">      2.04134517 </i>
    <i name="ewald">   6319.58805026 </i>
    <i name="hartreedc">  -8263.35756941 </i>
    <i name="XCdc">    174.61377170 </i>
    <i name="pawpsdc">   5079.40314783 </i>
    <i name="pawaedc">  -5143.08045563 </i>
    <i name="eentropy">     -0.05641896 </i>
    <i name="bandstr">   -691.76345504 </i>
    <i name="atom">   2409.41629947 </i>
    <i name="e_fr_energy">   -113.19528461 </i>
    <i name="e_wo_entrp">   -113.13886565 </i>
    <i name="e_0_energy">   -113.16707513 </i>
   </energy>
  </scstep>
  <structure>
   <crystal>
    <varray name="basis" >
     <v>      20.00000000       0.00000000       0.00000000 </v>
     <v>       0.00000000      20.00000000       0.00000000 </v>
     <v>       0.00000000       0.00000000      20.00000000 </v>
    </varray>
    <i name="volume">   8000.00000000 </i>
    <varray name="rec_basis" >
     <v>       0.05000000       0.00000000       0.00000000 </v>
     <v>       0.00000000       0.05000000       0.00000000 </v>
     <v>       0.00000000       0.00000000       0.05000000 </v>
    </varray>
   </crystal>
   <varray name="positions" >
    <v>       0.82797327       0.15991595       0.89970555 </v>
    <v>       0.81757869       0.20649621       0.97825114 </v>
    <v>       0.86256256       0.24113939       0.93141145 </v>
    <v>       0.84404812       0.14100213      -0.00979435 </v>
    <v>       0.89963016       0.13105630       0.94809840 </v>
    <v>       0.91254424       0.19389144       0.91187814 </v>
    <v>       0.92806385       0.06277961       0.92952680 </v>
    <v>       0.80013944       0.08443618       0.01543106 </v>
    <v>       0.75655060       0.23612226       0.01200111 </v>
    <v>       0.83778985       0.29370605       0.88701016 </v>
    <v>       0.76560677       0.19381311       0.84244649 </v>
    <v>       0.83582233       0.10219017       0.83113119 </v>
    <v>       0.82473139       0.16923970       0.80947338 </v>
    <v>       0.78501432       0.08489867       0.87785507 </v>
    <v>       0.73971604       0.14164261       0.88470756 </v>
    <v>       0.69758307       0.15299078       0.94473137 </v>
    <v>       0.90193384       0.06645415       0.82543294 </v>
    <v>       0.78809032       0.02649438       0.92468670 </v>
    <v>       0.75480474       0.26850507       0.85755362 </v>
    <v>       0.88103326       0.21320429       0.78317384 </v>
    <v>       0.94753314       0.19707155       0.84578838 </v>
   </varray>
  </structure>
  <varray name="forces" >
   <v>       0.66440265       1.39645456       2.36681288 </v>
   <v>      -1.91042321       3.36158156       3.63516156 </v>
   <v>      -1.08558330       3.24883476      -0.92253973 </v>
   <v>      -2.34643850      -2.78033079       3.14944596 </v>
   <v>       4.22723928      -3.05374996      -0.09957965 </v>
   <v>       3.51755595       0.08779887      -2.18884353 </v>
   <v>      -1.45830267       3.89101879       1.10455212 </v>
   <v>       2.54409189       3.05684537      -1.17234004 </v>
   <v>       3.47983470      -1.81110990      -2.17579261 </v>
   <v>       1.55061557      -2.57177807       2.70168978 </v>
   <v>      -2.20310031       3.92422129      -0.92459286 </v>
   <v>       3.51528194      -3.59275721      -2.90527444 </v>
   <v>       1.92339116       2.27912147      -3.65410970 </v>
   <v>      -2.32200397      -5.44368652       1.35797447 </v>
   <v>      -3.94177113      -0.28546482       2.33320755 </v>
   <v>       2.24957438      -0.79933398      -3.77975547 </v>
   <v>      -3.86548308       1.88535071       0.16138891 </v>
   <v>      -0.27179153       3.34863681      -2.71779681 </v>
   <v>       0.40191686      -3.82464730      -1.14062210 </v>
   <v>      -3.06073788      -2.32686370       1.10029940 </v>
   <v>      -1.60826881       0.00985808       3.77071433 </v>
  </varray>
  <varray name="stress" >
   <v>      -1.36237995       1.89729514       4.39582598 </v>
   <v>       1.89729514      -3.98646533       2.17814372 </v>
   <v>       4.39582597       2.17814372       0.08026671 </v>
  </varray>
  <energy>
   <i name="e_fr_energy">   -114.02851541 </i>
   <i name="e_wo_entrp">   -114.00030593 </i>
   <i name="e_0_energy">     -0.05641896 </i>
  </energy>
  <time name="totalsc">   54.74   55.08</time>
 </calculation>
 <calculation>
  <scstep>
   <time name="dav">    1.82    1.82</time>
   <time name="total">    3.17    3.18</time>
   <energy>
    <i name="alphaZ">      2.04134517 </i>
    <i name="ewald">   6359.63051664 </i>
    <i name="hartreedc">  -8297.14113083 </i>
    <i name="XCdc">    176.08052802 </i>
    <i name="pawpsdc">   5079.49162802 </i>
    <i name="pawaedc">  -5143.16811722 </i>
    <i name="eentropy">     -0.05642567 </i>
    <i name="bandstr">   -708.25095011 </i>
    <i name="atom">   2409.41629947 </i>
    <i name="e_fr_energy">   -121.95630651 </i>
    <i name="e_wo_entrp">   -121.89988084 </i>
    <i name="e_0_energy">   -121.92809368 </i>
   </energy>
  </scstep>
  <scstep>
   <time name="dav">    2.47    2.47</time>
   <time name="total">    3.78    3.79</time>
   <energy>
    <i name="e_fr_energy">   -122.67031013 </i>
    <i name="e_wo_entrp">   -122.61357755 </i>
    <i name="e_0_energy">   -122.64194384 </i>
   </energy>
  </scstep>
  <scstep>
   <time name="dav">    2.47    2.47</time>
   <time name="total">    3.81    3.81</time>
   <energy>
    <i name="e_fr_energy">   -122.72843815 </i>
    <i name="e_wo_entrp">   -122.67166796 </i>
    <i name="e_0_energy">   -122.70005305 </i>
   </energy>
  </scstep>
  <scstep>
   <time name="dav">    2.45    2.46</time>
   <time name="total">    3.78    3.78</time>
   <energy>
    <i name="e_fr_energy">   -122.11472797 </i>
    <i name="e_wo_entrp">   -122.05403433 </i>
    <i name="e_0_energy">   -122.08438115 </i>
   </energy>
  </scstep>
  <scstep>
   <time name="dav">    2.64    2.64</time>
   <time name="total">    3.96    3.97</time>
   <energy>
    <i name="e_fr_energy">   -122.03552606 </i>
    <i name="e_wo_entrp">   -121.94158341 </i>
    <i name="e_0_energy">   -121.98855473 </i>
   </energy>
  </scstep>
  <scstep>
   <time name="dav">    2.47    2.47</time>
   <time name="total">    3.80    3.80</time>
   <energy>
    <i name="e_fr_energy">   -122.03106470 </i>
    <i name="e_wo_entrp">   -121.94236630 </i>
    <i name="e_0_energy">   -121.98671550 </i>
   </energy>
  </scstep>
  <scstep>
   <time name="dav">    2.68    2.69</time>
   <time name="total">    4.02    4.02</time>
   <energy>
    <i name="e_fr_energy">   -122.02586243 </i>
    <i name="e_wo_entrp">   -121.93763206 </i>
    <i name="e_0_energy">   -121.98174724 </i>
   </energy>
  </scstep>
  <scstep>
   <time name="dav">    2.50    2.50</time>
   <time name="total">    3.84    3.84</time>
   <energy>
    <i name="e_fr_energy">   -122.02700225 </i>
    <i name="e_wo_entrp">   -121.93720966 </i>
    <i name="e_0_energy">   -121.98210596 </i>
   </energy>
  </scstep>
  <scstep>
   <time name="dav">    1.82    1.82</time>
   <time name="total">    3.15    4.62</time>
   <energy>
    <i name="e_fr_energy">   -122.02761175 </i>
    <i name="e_wo_entrp">   -121.93998429 </i>
    <i name="e_0_energy">   -121.98379802 </i>
   </energy>
  </scstep>
  <scstep>
   <time name="dav">    1.99    1.99</time>
   <time name="total">    3.33    3.34</time>
   <energy>
    <i name="e_fr_energy">   -122.02844902 </i>
    <i name="e_wo_entrp">   -121.94076318 </i>
    <i name="e_0_energy">   -121.98460610 </i>
   </energy>
  </scstep>
  <scstep>
   <time name="dav">    1.99    1.99</time>
   <time name="total">    3.33    3.34</time>
   <energy>
    <i name="e_fr_energy">   -122.02957810 </i>
    <i name="e_wo_entrp">   -121.94289715 </i>
    <i name="e_0_energy">   -121.98623762 </i>
   </energy>
  </scstep>
  <scstep>
   <time name="dav">    2.15    2.16</time>
   <time name="total">    3.49    3.53</time>
   <energy>
    <i name="e_fr_energy">   -122.03053309 </i>
    <i name="e_wo_entrp">   -121.94369063 </i>
    <i name="e_0_energy">   -121.98711186 </i>
   </energy>
  </scstep>
  <scstep>
   <time name="dav">    2.00    2.00</time>
   <time name="total">    3.35    3.36</time>
   <energy>
    <i name="e_fr_energy">   -122.03110565 </i>
    <i name="e_wo_entrp">   -121.94398527 </i>
    <i name="e_0_energy">   -121.98754546 </i>
   </energy>
  </scstep>
  <scstep>
   <time name="dav">    1.83    1.83</time>
   <time name="total">    3.18    3.19</time>
   <energy>
    <i name="e_fr_energy">   -122.03144325 </i>
    <i name="e_wo_entrp">   -121.94408848 </i>
    <i name="e_0_energy">   -121.98776586 </i>
   </energy>
  </scstep>
  <scstep>
   <time name="dav">    1.83    1.83</time>
   <time name="total">    3.19    3.20</time>
   <energy>
    <i name="e_fr_energy">   -122.03172363 </i>
    <i name="e_wo_entrp">   -121.94435607 </i>
    <i name="e_0_energy">   -121.98803985 </i>
   </energy>
  </scstep>
  <scstep>
   <time name="dav">    2.02    2.07</time>
   <time name="total">    3.40    3.48</time>
   <energy>
    <i name="e_fr_energy">   -122.03185364 </i>
    <i name="e_wo_entrp">   -121.94447753 </i>
    <i name="e_0_energy">   -121.98816559 </i>
   </energy>
  </scstep>
  <scstep>
   <time name="dav">    2.00    2.00</time>
   <time name="total">    3.03    3.03</time>
   <energy>
    <i name="alphaZ">      2.04134517 </i>
    <i name="ewald">   6359.63051664 </i>
    <i name="hartreedc">  -8326.04957515 </i>
    <i name="XCdc">    177.11262361 </i>
    <i name="pawpsdc">   5157.05979135 </i>
    <i name="pawaedc">  -5220.72946095 </i>
    <i name="eentropy">     -0.08733932 </i>
    <i name="bandstr">   -680.42612695 </i>
    <i name="atom">   2409.41629947 </i>
    <i name="e_fr_energy">   -122.03192613 </i>
    <i name="e_wo_entrp">   -121.94458681 </i>
    <i name="e_0_energy">   -121.98825647 </i>
   </energy>
  </scstep>
  <structure>
   <crystal>
    <varray name="basis" >
     <v>      20.00000000       0.00000000       0.00000000 </v>
     <v>       0.00000000      20.00000000       0.00000000 </v>
     <v>       0.00000000       0.00000000      20.00000000 </v>
    </varray>
    <i name="volume">   8000.00000000 </i>
    <varray name="rec_basis" >
     <v>       0.05000000       0.00000000       0.00000000 </v>
     <v>       0.00000000       0.05000000       0.00000000 </v>
     <v>       0.00000000       0.00000000       0.05000000 </v>
    </varray>
   </crystal>
   <varray name="positions" >
    <v>       0.82893235       0.16159389       0.90128614 </v>
    <v>       0.81936388       0.21079959       0.98422215 </v>
    <v>       0.86112613       0.23926429       0.93084545 </v>
    <v>       0.84244468       0.14053069      -0.01053061 </v>
    <v>       0.90252327       0.13070373       0.94853013 </v>
    <v>       0.91259711       0.19326768       0.91190128 </v>
    <v>       0.92465004       0.07138885       0.93219639 </v>
    <v>       0.80583895       0.09157739       0.01295395 </v>
    <v>       0.76435488       0.23180950       0.00678863 </v>
    <v>       0.84125913       0.28810558       0.89332887 </v>
    <v>       0.76502011       0.19395226       0.84239350 </v>
    <v>       0.83698678       0.10096070       0.82985046 </v>
    <v>       0.82452747       0.16954680       0.80885561 </v>
    <v>       0.78280020       0.08199823       0.87759190 </v>
    <v>       0.73953449       0.14133584       0.88548987 </v>
    <v>       0.70258000       0.15080191       0.93634600 </v>
    <v>       0.89278250       0.07056004       0.82566269 </v>
    <v>       0.78748414       0.03397173       0.91802407 </v>
    <v>       0.75551593       0.26018066       0.85505467 </v>
    <v>       0.87425862       0.20775637       0.78553747 </v>
    <v>       0.94416934       0.19694427       0.85417138 </v>
   </varray>
  </structure>
  <varray name="forces" >
   <v>      -1.61984984      -2.25395787      -0.37174537 </v>
   <v>      -1.55056542       0.75580502       1.97638026 </v>
   <v>      -0.80165936       5.23707790       0.04568005 </v>
   <v>      -1.33531471      -1.88491461       3.07223657 </v>
   <v>       2.29769433      -2.77710707       0.53770519 </v>
   <v>       4.42988692       0.08039041      -2.30800652 </v>
   <v>      -1.01787063       3.74181652       1.18833581 </v>
   <v>       2.42556303       2.97488545      -0.99455525 </v>
   <v>       3.30260515      -1.05868340      -1.29292675 </v>
   <v>       1.59859433      -2.25855805       2.48079147 </v>
   <v>      -2.00044697       3.72646919      -0.18550121 </v>
   <v>       1.42801074      -2.52556139      -1.31279689 </v>
   <v>       2.69660312       1.32960640      -2.61097067 </v>
   <v>       0.30535237      -1.88465378       0.67532065 </v>
   <v>      -3.33929692      -0.32068833       1.61615852 </v>
   <v>       1.69088316      -0.69182821      -3.26983814 </v>
   <v>      -3.41899342       1.58042434      -0.17574298 </v>
   <v>      -0.52188111       2.52851883      -2.43285433 </v>
   <v>       0.09071678      -4.03993031      -1.25676158 </v>
   <v>      -3.33874052      -2.24451150       0.85012339 </v>
   <v>      -1.32129102      -0.01459953       3.76896779 </v>
  </varray>
  <varray name="stress" >
   <v>      -0.93611472       1.57223795       4.08193153 </v>
   <v>       1.57223795      -3.76547129       2.02132960 </v>
   <v>       4.08193154       2.02132959       0.23558300 </v>
  </varray>
  <energy>
   <i name="e_fr_energy">   -122.88594312 </i>
   <i name="e_wo_entrp">   -122.84227346 </i>
   <i name="e_0_energy">     -0.08733932 </i>
  </energy>
  <time name="totalsc">   65.94   67.65</time>
 </calculation>
 <calculation>
  <scstep>
   <time name="dav">    2.00    2.01</time>
   <time name="total">    3.37    3.37</time>
   <energy>
    <i name="alphaZ">      2.04134517 </i>
    <i name="ewald">   6721.69578935 </i>
    <i name="hartreedc">  -8464.08584378 </i>
    <i name="XCdc">    183.93459969 </i>
    <i name="pawpsdc">   5157.07272109 </i>
    <i name="pawaedc">  -5220.74290079 </i>
    <i name="eentropy">     -0.05641896 </i>
    <i name="bandstr">   -840.74664604 </i>
    <i name="atom">   2409.41629947 </i>
    <i name="e_fr_energy">    -51.47105480 </i>
    <i name="e_wo_entrp">    -51.41463584 </i>
    <i name="e_0_energy">    -51.44284532 </i>
   </energy>
  </scstep>
  <scstep>
   <time name="dav">    2.32    2.33</time>
   <time name="total">    3.66    3.67</time>
   <energy>
    <i name="e_fr_energy">    -64.11176829 </i>
    <i name="e_wo_entrp">    -64.05534933 </i>
    <i name="e_0_energy">    -64.08355881 </i>
   </energy>
  </scstep>
  <scstep>
   <time name="dav">    2.63    2.63</time>
   <time name="total">    3.97    3.97</time>
   <energy>
    <i name="e_fr_energy">    -58.00079227 </i>
    <i name="e_wo_entrp">    -57.94437331 </i>
    <i name="e_0_energy">    -57.97258279 </i>
   </energy>
  </scstep>
  <scstep>
   <time name="dav">    2.46    2.46</time>
   <time name="total">    3.80    3.81</time>
   <energy>
    <i name="e_fr_energy">    -56.10111695 </i>
    <i name="e_wo_entrp">    -56.04469799 </i>
    <i name="e_0_energy">    -56.07290747 </i>
   </energy>
  </scstep>
  <scstep>
   <time name="dav">    2.48    2.48</time>
   <time name="total">    3.81    3.82</time>
   <energy>
    <i name="e_fr_energy">    -54.89002143 </i>
    <i name="e_wo_entrp">    -54.83360247 </i>
    <i name="e_0_energy">    -54.86181195 </i>
   </energy>
  </scstep>
  <scstep>
   <time name="dav">    2.64    2.65</time>
   <time name="total">    3.97    3.98</time>
   <energy>
    <i name="e_fr_energy">    -54.43992224 </i>
    <i name="e_wo_entrp">    -54.38350328 </i>
    <i name="e_0_energy">    -54.41171276 </i>
   </energy>
  </scstep>
  <scstep>
   <time name="dav">    2.50    2.51</time>
   <time name="total">    3.84    3.85</time>
[...]
   <v>       0.00626176       0.00838519       0.00779282 </v>
   <v>       0.00614985      -0.00081485      -0.00329735 </v>
   <v>       0.00324541      -0.00457748       0.00067828 </v>
   <v>      -0.00443535       0.01626126       0.00169355 </v>
  </varray>
  <varray name="stress" >
   <v>      -0.38722250      -0.01209324      -0.03951080 </v>
   <v>      -0.01209325      -0.35276955      -0.03157798 </v>
   <v>      -0.03951080      -0.03157798      -0.40370077 </v>
  </varray>
  <energy>
   <i name="e_fr_energy">   -132.30724201 </i>
   <i name="e_wo_entrp">   -132.26232910 </i>
   <i name="e_0_energy">     -0.08982582 </i>
  </energy>
  <time name="totalsc">   11.35   11.40</time>
  <eigenvalues>
   <array>
    <dimension dim="1">band</dimension>
    <dimension dim="2">kpoint</dimension>
    <dimension dim="3">spin</dimension>
    <field>eigene</field>
    <field>occ</field>
    <set>
     <set comment="spin 1">
      <set comment="kpoint 1">
       <r>  -21.9984    1.0000 </r>
       <r>  -21.6427    1.0000 </r>
       <r>  -17.3778    1.0000 </r>
       <r>  -17.3687    1.0000 </r>
       <r>  -17.3655    1.0000 </r>
       <r>  -17.3566    1.0000 </r>
       <r>  -13.2128    1.0000 </r>
       <r>  -13.2091    1.0000 </r>
       <r>  -13.0411    1.0000 </r>
       <r>  -13.0358    1.0000 </r>
       <r>  -12.9704    1.0000 </r>
       <r>  -12.7000    1.0000 </r>
       <r>  -10.1534    1.0000 </r>
       <r>   -9.7299    1.0000 </r>
       <r>   -9.7258    1.0000 </r>
       <r>   -9.4870    1.0000 </r>
       <r>   -9.4808    1.0000 </r>
       <r>   -9.0119    1.0000 </r>
       <r>   -9.0116    1.0000 </r>
       <r>   -8.9469    1.0000 </r>
       <r>   -8.9466    1.0000 </r>
       <r>   -8.8537    1.0000 </r>
       <r>   -6.6857    1.0000 </r>
       <r>   -6.6826    1.0000 </r>
       <r>   -6.1161    1.0000 </r>
       <r>   -6.1133    1.0000 </r>
       <r>   -4.7628    1.0000 </r>
       <r>   -4.5926    1.0000 </r>
       <r>   -4.5895    1.0000 </r>
       <r>   -2.0634    0.2611 </r>
       <r>   -2.0585    0.2389 </r>
       <r>   -0.4522    0.0000 </r>
       <r>   -0.0101    0.0000 </r>
       <r>   -0.0025    0.0000 </r>
       <r>    0.0691    0.0000 </r>
       <r>    0.1864    0.0000 </r>
       <r>    0.3005    0.0000 </r>
       <r>    0.3346    0.0000 </r>
       <r>    0.3940    0.0000 </r>
       <r>    0.4507    0.0000 </r>
       <r>    0.5075    0.0000 </r>
       <r>    0.5166    0.0000 </r>
       <r>    0.5255    0.0000 </r>
       <r>    0.5764    0.0000 </r>
       <r>    0.5879    0.0000 </r>
       <r>    0.5983    0.0000 </r>
       <r>    0.6066    0.0000 </r>
       <r>    0.6327    0.0000 </r>
      </set>
     </set>
    </set>
   </array>
  </eigenvalues>
  <separator name="orbital magnetization" >
   <v name="MAGDIPOLOUT">      0.00000000      0.00000000      0.00000000</v>
  </separator>
  <dos>
   <i name="efermi">     -2.10867541 </i>
   <total>
    <array>
     <dimension dim="1">gridpoints</dimension>
     <dimension dim="2">spin</dimension>
     <field>energy</field>
     <field>total</field>
     <field>integrated</field>
     <set>
      <set comment="spin 1">
       <r>   -23.1299     0.0000     0.0000 </r>
       <r>   -23.0469     0.0000     0.0000 </r>
       <r>   -22.9640     0.0000     0.0000 </r>
       <r>   -22.8810     0.0000     0.0000 </r>
       <r>   -22.7980     0.0000     0.0000 </r>
       <r>   -22.7150     0.0000     0.0000 </r>
       <r>   -22.6320     0.0000     0.0000 </r>
       <r>   -22.5491     0.0000     0.0000 </r>
       <r>   -22.4661     0.0000     0.0000 </r>
       <r>   -22.3831     0.0000     0.0000 </r>
       <r>   -22.3001     0.0002     0.0000 </r>
       <r>   -22.2171     0.0236     0.0020 </r>
       <r>   -22.1342     0.6368     0.0548 </r>
       <r>   -22.0512     4.8249     0.4552 </r>
       <r>   -21.9682    10.5475     1.3304 </r>
       <r>   -21.8852     6.7562     1.8911 </r>
       <r>   -21.8022     1.5356     2.0185 </r>
       <r>   -21.7192     3.1352     2.2786 </r>
       <r>   -21.6363     9.5605     3.0720 </r>
       <r>   -21.5533     8.6977     3.7937 </r>
       <r>   -21.4703     2.3076     3.9852 </r>
       <r>   -21.3873     0.1746     3.9997 </r>
       <r>   -21.3043     0.0037     4.0000 </r>
       <r>   -21.2214     0.0000     4.0000 </r>
       <r>   -21.1384     0.0000     4.0000 </r>
       <r>   -21.0554     0.0000     4.0000 </r>
       <r>   -20.9724     0.0000     4.0000 </r>
       <r>   -20.8894     0.0000     4.0000 </r>
       <r>   -20.8065     0.0000     4.0000 </r>
       <r>   -20.7235     0.0000     4.0000 </r>
       <r>   -20.6405     0.0000     4.0000 </r>
       <r>   -20.5575     0.0000     4.0000 </r>
       <r>   -20.4745     0.0000     4.0000 </r>
       <r>   -20.3916     0.0000     4.0000 </r>
       <r>   -20.3086     0.0000     4.0000 </r>
       <r>   -20.2256     0.0000     4.0000 </r>
       <r>   -20.1426     0.0000     4.0000 </r>
       <r>   -20.0596     0.0000     4.0000 </r>
       <r>   -19.9767     0.0000     4.0000 </r>
       <r>   -19.8937     0.0000     4.0000 </r>
       <r>   -19.8107     0.0000     4.0000 </r>
       <r>   -19.7277     0.0000     4.0000 </r>
       <r>   -19.6447     0.0000     4.0000 </r>
       <r>   -19.5618     0.0000     4.0000 </r>
       <r>   -19.4788     0.0000     4.0000 </r>
       <r>   -19.3958     0.0000     4.0000 </r>
       <r>   -19.3128     0.0000     4.0000 </r>
       <r>   -19.2298     0.0000     4.0000 </r>
       <r>   -19.1469     0.0000     4.0000 </r>
       <r>   -19.0639     0.0000     4.0000 </r>
       <r>   -18.9809     0.0000     4.0000 </r>
       <r>   -18.8979     0.0000     4.0000 </r>
       <r>   -18.8149     0.0000     4.0000 </r>
       <r>   -18.7319     0.0000     4.0000 </r>
       <r>   -18.6490     0.0000     4.0000 </r>
       <r>   -18.5660     0.0000     4.0000 </r>
       <r>   -18.4830     0.0000     4.0000 </r>
       <r>   -18.4000     0.0000     4.0000 </r>
       <r>   -18.3170     0.0000     4.0000 </r>
       <r>   -18.2341     0.0000     4.0000 </r>
       <r>   -18.1511     0.0000     4.0000 </r>
       <r>   -18.0681     0.0000     4.0000 </r>
       <r>   -17.9851     0.0000     4.0000 </r>
       <r>   -17.9021     0.0000     4.0000 </r>
       <r>   -17.8192     0.0000     4.0000 </r>
       <r>   -17.7362     0.0000     4.0000 </r>
       <r>   -17.6532     0.0028     4.0002 </r>
       <r>   -17.5702     0.2042     4.0172 </r>
       <r>   -17.4872     4.1912     4.3650 </r>
       <r>   -17.4043    24.6033     6.4066 </r>
       <r>   -17.3213    42.3858     9.9237 </r>
       <r>   -17.2383    21.6449    11.7199 </r>
       <r>   -17.1553     3.2365    11.9884 </r>
       <r>   -17.0723     0.1379    11.9999 </r>
       <r>   -16.9894     0.0016    12.0000 </r>
       <r>   -16.9064     0.0000    12.0000 </r>
       <r>   -16.8234     0.0000    12.0000 </r>
       <r>   -16.7404     0.0000    12.0000 </r>
       <r>   -16.6574     0.0000    12.0000 </r>
       <r>   -16.5745     0.0000    12.0000 </r>
       <r>   -16.4915     0.0000    12.0000 </r>
       <r>   -16.4085     0.0000    12.0000 </r>
       <r>   -16.3255     0.0000    12.0000 </r>
       <r>   -16.2425     0.0000    12.0000 </r>
       <r>   -16.1596     0.0000    12.0000 </r>
       <r>   -16.0766     0.0000    12.0000 </r>
       <r>   -15.9936     0.0000    12.0000 </r>
       <r>   -15.9106     0.0000    12.0000 </r>
       <r>   -15.8276     0.0000    12.0000 </r>
       <r>   -15.7446     0.0000    12.0000 </r>
       <r>   -15.6617     0.0000    12.0000 </r>
       <r>   -15.5787     0.0000    12.0000 </r>
       <r>   -15.4957     0.0000    12.0000 </r>
       <r>   -15.4127     0.0000    12.0000 </r>
       <r>   -15.3297     0.0000    12.0000 </r>
       <r>   -15.2468     0.0000    12.0000 </r>
       <r>   -15.1638     0.0000    12.0000 </r>
       <r>   -15.0808     0.0000    12.0000 </r>
       <r>   -14.9978     0.0000    12.0000 </r>
       <r>   -14.9148     0.0000    12.0000 </r>
       <r>   -14.8319     0.0000    12.0000 </r>
       <r>   -14.7489     0.0000    12.0000 </r>
       <r>   -14.6659     0.0000    12.0000 </r>
       <r>   -14.5829     0.0000    12.0000 </r>
       <r>   -14.4999     0.0000    12.0000 </r>
       <r>   -14.4170     0.0000    12.0000 </r>
       <r>   -14.3340     0.0000    12.0000 </r>
       <r>   -14.2510     0.0000    12.0000 </r>
       <r>   -14.1680     0.0000    12.0000 </r>
       <r>   -14.0850     0.0000    12.0000 </r>
       <r>   -14.0021     0.0000    12.0000 </r>
       <r>   -13.9191     0.0000    12.0000 </r>
       <r>   -13.8361     0.0000    12.0000 </r>
       <r>   -13.7531     0.0000    12.0000 </r>
       <r>   -13.6701     0.0000    12.0000 </r>
       <r>   -13.5872     0.0000    12.0000 </r>
       <r>   -13.5042     0.0008    12.0001 </r>
       <r>   -13.4212     0.0704    12.0059 </r>
       <r>   -13.3382     1.6641    12.1440 </r>
       <r>   -13.2552    11.1216    13.0669 </r>
       <r>   -13.1723    22.7280    14.9529 </r>
       <r>   -13.0893    23.0724    16.8674 </r>
       <r>   -13.0063    29.3816    19.3055 </r>
       <r>   -12.9233    23.9007    21.2888 </r>
       <r>   -12.8403     8.2221    21.9711 </r>
       <r>   -12.7573     5.3408    22.4143 </r>
       <r>   -12.6744    10.4634    23.2825 </r>
       <r>   -12.5914     7.1437    23.8753 </r>
       <r>   -12.5084     1.4213    23.9932 </r>
       <r>   -12.4254     0.0801    23.9999 </r>
       <r>   -12.3424     0.0012    24.0000 </r>
       <r>   -12.2595     0.0000    24.0000 </r>
       <r>   -12.1765     0.0000    24.0000 </r>
       <r>   -12.0935     0.0000    24.0000 </r>
       <r>   -12.0105     0.0000    24.0000 </r>
       <r>   -11.9275     0.0000    24.0000 </r>
       <r>   -11.8446     0.0000    24.0000 </r>
       <r>   -11.7616     0.0000    24.0000 </r>
       <r>   -11.6786     0.0000    24.0000 </r>
       <r>   -11.5956     0.0000    24.0000 </r>
       <r>   -11.5126     0.0000    24.0000 </r>
       <r>   -11.4297     0.0000    24.0000 </r>
       <r>   -11.3467     0.0000    24.0000 </r>
       <r>   -11.2637     0.0000    24.0000 </r>
       <r>   -11.1807     0.0000    24.0000 </r>
       <r>   -11.0977     0.0000    24.0000 </r>
       <r>   -11.0148     0.0000    24.0000 </r>
       <r>   -10.9318     0.0000    24.0000 </r>
       <r>   -10.8488     0.0000    24.0000 </r>
       <r>   -10.7658     0.0000    24.0000 </r>
       <r>   -10.6828     0.0000    24.0000 </r>
       <r>   -10.5999     0.0000    24.0000 </r>
       <r>   -10.5169     0.0000    24.0000 </r>
       <r>   -10.4339     0.0009    24.0001 </r>
       <r>   -10.3509     0.0619    24.0052 </r>
       <r>   -10.2679     1.2048    24.1052 </r>
       <r>   -10.1850     6.6270    24.6551 </r>
       <r>   -10.1020    10.5756    25.5327 </r>
       <r>   -10.0190     4.9411    25.9427 </r>
       <r>    -9.9360     0.7436    26.0044 </r>
       <r>    -9.8530     1.7976    26.1536 </r>
       <r>    -9.7701    11.4258    27.1017 </r>
       <r>    -9.6871    21.4256    28.8796 </r>
       <r>    -9.6041    13.7257    30.0186 </r>
       <r>    -9.5211    14.1319    31.1912 </r>
       <r>    -9.4381    21.3669    32.9643 </r>
       <r>    -9.3551    10.8212    33.8622 </r>
       <r>    -9.2722     1.5992    33.9949 </r>
       <r>    -9.1892     0.3668    34.0254 </r>
       <r>    -9.1062     4.6586    34.4119 </r>
       <r>    -9.0232    22.9677    36.3178 </r>
       <r>    -8.9402    41.2856    39.7437 </r>
       <r>    -8.8573    33.0973    42.4901 </r>
       <r>    -8.7743    14.6683    43.7073 </r>
       <r>    -8.6913     3.2585    43.9777 </r>
       <r>    -8.6083     0.2624    43.9995 </r>
       <r>    -8.5253     0.0063    44.0000 </r>
       <r>    -8.4424     0.0000    44.0000 </r>
       <r>    -8.3594     0.0000    44.0000 </r>
       <r>    -8.2764     0.0000    44.0000 </r>
       <r>    -8.1934     0.0000    44.0000 </r>
       <r>    -8.1104     0.0000    44.0000 </r>
       <r>    -8.0275     0.0000    44.0000 </r>
       <r>    -7.9445     0.0000    44.0000 </r>
       <r>    -7.8615     0.0000    44.0000 </r>
       <r>    -7.7785     0.0000    44.0000 </r>
       <r>    -7.6955     0.0000    44.0000 </r>
       <r>    -7.6126     0.0000    44.0000 </r>
       <r>    -7.5296     0.0000    44.0000 </r>
       <r>    -7.4466     0.0000    44.0000 </r>
       <r>    -7.3636     0.0000    44.0000 </r>
       <r>    -7.2806     0.0000    44.0000 </r>
       <r>    -7.1977     0.0000    44.0000 </r>
       <r>    -7.1147     0.0000    44.0000 </r>
       <r>    -7.0317     0.0000    44.0000 </r>
       <r>    -6.9487     0.0044    44.0004 </r>
       <r>    -6.8657     0.2427    44.0205 </r>
       <r>    -6.7828     3.6892    44.3266 </r>
       <r>    -6.6998    15.9545    45.6505 </r>
       <r>    -6.6168    20.0978    47.3183 </r>
       <r>    -6.5338     7.4074    47.9329 </r>
       <r>    -6.4508     0.7848    47.9981 </r>
       <r>    -6.3678     0.0315    48.0007 </r>
       <r>    -6.2849     0.3804    48.0322 </r>
       <r>    -6.2019     4.8564    48.4352 </r>
       <r>    -6.1189    17.7114    49.9049 </r>
       <r>    -6.0359    18.8506    51.4692 </r>
       <r>    -5.9529     5.8621    51.9556 </r>
       <r>    -5.8700     0.5220    51.9989 </r>
       <r>    -5.7870     0.0129    52.0000 </r>
       <r>    -5.7040     0.0001    52.0000 </r>
       <r>    -5.6210     0.0000    52.0000 </r>
       <r>    -5.5380     0.0000    52.0000 </r>
       <r>    -5.4551     0.0000    52.0000 </r>
       <r>    -5.3721     0.0000    52.0000 </r>
       <r>    -5.2891     0.0000    52.0000 </r>
       <r>    -5.2061     0.0000    52.0000 </r>
       <r>    -5.1231     0.0000    52.0000 </r>
       <r>    -5.0402     0.0011    52.0001 </r>
       <r>    -4.9572     0.0711    52.0060 </r>
       <r>    -4.8742     1.3180    52.1154 </r>
       <r>    -4.7912     7.0129    52.6973 </r>
       <r>    -4.7082    12.7454    53.7549 </r>
       <r>    -4.6253    17.4807    55.2055 </r>
       <r>    -4.5423    21.8332    57.0172 </r>
       <r>    -4.4593    10.3372    57.8750 </r>
       <r>    -4.3763     1.4487    57.9952 </r>
       <r>    -4.2933     0.0572    57.9999 </r>
       <r>    -4.2104     0.0006    58.0000 </r>
       <r>    -4.1274     0.0000    58.0000 </r>
       <r>    -4.0444     0.0000    58.0000 </r>
       <r>    -3.9614     0.0000    58.0000 </r>
       <r>    -3.8784     0.0000    58.0000 </r>
       <r>    -3.7955     0.0000    58.0000 </r>
       <r>    -3.7125     0.0000    58.0000 </r>
       <r>    -3.6295     0.0000    58.0000 </r>
       <r>    -3.5465     0.0000    58.0000 </r>
       <r>    -3.4635     0.0000    58.0000 </r>
       <r>    -3.3805     0.0000    58.0000 </r>
       <r>    -3.2976     0.0000    58.0000 </r>
       <r>    -3.2146     0.0000    58.0000 </r>
       <r>    -3.1316     0.0000    58.0000 </r>
       <r>    -3.0486     0.0000    58.0000 </r>
       <r>    -2.9656     0.0000    58.0000 </r>
       <r>    -2.8827     0.0000    58.0000 </r>
       <r>    -2.7997     0.0000    58.0000 </r>
       <r>    -2.7167     0.0000    58.0000 </r>
       <r>    -2.6337     0.0000    58.0000 </r>
       <r>    -2.5507     0.0000    58.0000 </r>
       <r>    -2.4678     0.0000    58.0000 </r>
       <r>    -2.3848     0.0001    58.0000 </r>
       <r>    -2.3018     0.0159    58.0013 </r>
       <r>    -2.2188     0.6026    58.0513 </r>
       <r>    -2.1358     6.3677    58.5797 </r>
       <r>    -2.0529    19.3106    60.1821 </r>
       <r>    -1.9699    17.1343    61.6039 </r>
       <r>    -1.8869     4.4380    61.9722 </r>
       <r>    -1.8039     0.3281    61.9994 </r>
       <r>    -1.7209     0.0067    62.0000 </r>
       <r>    -1.6380     0.0000    62.0000 </r>
       <r>    -1.5550     0.0000    62.0000 </r>
       <r>    -1.4720     0.0000    62.0000 </r>
       <r>    -1.3890     0.0000    62.0000 </r>
       <r>    -1.3060     0.0000    62.0000 </r>
       <r>    -1.2231     0.0000    62.0000 </r>
       <r>    -1.1401     0.0000    62.0000 </r>
       <r>    -1.0571     0.0000    62.0000 </r>
       <r>    -0.9741     0.0000    62.0000 </r>
       <r>    -0.8911     0.0000    62.0000 </r>
       <r>    -0.8082     0.0000    62.0000 </r>
       <r>    -0.7252     0.0014    62.0001 </r>
       <r>    -0.6422     0.0854    62.0072 </r>
       <r>    -0.5592     1.4806    62.1301 </r>
       <r>    -0.4762     7.2734    62.7336 </r>
       <r>    -0.3932    10.3838    63.5953 </r>
       <r>    -0.3103     4.3382    63.9553 </r>
       <r>    -0.2273     0.5654    64.0022 </r>
       <r>    -0.1443     1.2424    64.1053 </r>
       <r>    -0.0613    10.0630    64.9403 </r>
       <r>     0.0217    26.4653    67.1364 </r>
       <r>     0.1046    27.3319    69.4044 </r>
       <r>     0.1876    19.9425    71.0593 </r>
       <r>     0.2706    22.0930    72.8925 </r>
       <r>     0.3536    31.9858    75.5467 </r>
       <r>     0.4366    41.5690    78.9962 </r>
       <r>     0.5195    60.6870    84.0320 </r>
       <r>     0.6025    76.8400    90.4082 </r>
       <r>     0.6855    51.9493    94.7190 </r>
       <r>     0.7685    14.0944    95.8886 </r>
       <r>     0.8515     1.3048    95.9968 </r>
       <r>     0.9344     0.0377    96.0000 </r>
       <r>     1.0174     0.0003    96.0000 </r>
       <r>     1.1004     0.0000    96.0000 </r>
       <r>     1.1834     0.0000    96.0000 </r>
       <r>     1.2664     0.0000    96.0000 </r>
       <r>     1.3493     0.0000    96.0000 </r>
       <r>     1.4323     0.0000    96.0000 </r>
       <r>     1.5153     0.0000    96.0000 </r>
       <r>     1.5983     0.0000    96.0000 </r>
       <r>     1.6813     0.0000    96.0000 </r>
       <r>     1.7642     0.0000    96.0000 </r>
      </set>
     </set>
    </array>
   </total>
  </dos>
 </calculation>
 <structure name="finalpos" >
  <crystal>
   <varray name="basis" >
    <v>      20.00000000       0.00000000       0.00000000 </v>
    <v>       0.00000000      20.00000000       0.00000000 </v>
    <v>       0.00000000       0.00000000      20.00000000 </v>
   </varray>
   <i name="volume">   8000.00000000 </i>
   <varray name="rec_basis" >
    <v>       0.05000000       0.00000000       0.00000000 </v>
    <v>       0.00000000       0.05000000       0.00000000 </v>
    <v>       0.00000000       0.00000000       0.05000000 </v>
   </varray>
  </crystal>
  <varray name="positions" >
   <v>       0.82876075       0.16022075       0.90168618 </v>
   <v>       0.82916330       0.21244195      -0.00780694 </v>
   <v>       0.87211888       0.24468958       0.94489434 </v>
   <v>       0.85331332       0.14577336       0.00211264 </v>
   <v>       0.91134823       0.13690515       0.96110046 </v>
   <v>       0.92290184       0.19798679       0.92567492 </v>
   <v>       0.94065440       0.09135731       0.95640295 </v>
   <v>       0.83085913       0.10817898       0.03433908 </v>
   <v>       0.78511017       0.23432368       0.01534348 </v>
   <v>       0.86635979       0.29528946       0.92584433 </v>
   <v>       0.75645663       0.18889574       0.83205377 </v>
   <v>       0.82530369       0.09660486       0.81903847 </v>
   <v>       0.81476487       0.16436471       0.79848774 </v>
   <v>       0.77362165       0.07932450       0.86549097 </v>
   <v>       0.73104730       0.13636910       0.87346613 </v>
   <v>       0.68779427       0.13967099       0.90622643 </v>
   <v>       0.86631617       0.06454892       0.80336455 </v>
   <v>       0.76823381       0.03160555       0.89099507 </v>
   <v>       0.73590586       0.23906387       0.82795890 </v>
   <v>       0.84623612       0.19270774       0.76439152 </v>
   <v>       0.96247983       0.20672699       0.88943501 </v>
  </varray>
 </structure>
</modeling>
