basalPlane                              
           1
    20.000000    0.000000    0.000000
     0.000000   20.000000    0.000000
     0.000000    0.000000   20.000000
   Co   C    H    C    H 
   1   5   4   5   6
Direct configuration=     1
   0.82730000  0.15925000  0.89830000
   0.79305000  0.21920000  0.99000000
   0.86010000  0.26965000  0.92200000
   0.83180000  0.12030000  0.01030000
   0.91815000  0.10645000  0.94690000
   0.93645000  0.19865000  0.89320000
   0.93105000  0.05665000  0.92685000
   0.79660000  0.07870000  0.01750000
   0.74895000  0.24000000  0.01665000
   0.83435000  0.29770000  0.88170000
   0.75390000  0.22270000  0.83975000
   0.85830000  0.08270000  0.81950000
   0.84180000  0.18520000  0.78830000
   0.78015000  0.05665000  0.89005000
   0.71470000  0.14245000  0.90135000
   0.69355000  0.15610000  0.95050000
   0.90970000  0.06380000  0.82550000
   0.78825000  0.02100000  0.93155000
   0.75550000  0.27435000  0.85925000
   0.88615000  0.21760000  0.78210000
   0.94895000  0.19795000  0.83925000
Direct configuration=     2
   0.82751899  0.15957603  0.90012898
   0.80369590  0.21148528  0.98164224
   0.86168513  0.25814789  0.92699700
   0.83790063  0.12984218  0.00255272
   0.90920412  0.11786399  0.94710930
   0.92617863  0.19654145  0.90173892
   0.93085445  0.05655122  0.92716376
   0.79620254  0.07882056  0.01729821
   0.74999315  0.23972397  0.01635163
   0.83485280  0.29771909  0.88193911
   0.75893546  0.20988918  0.84041185
   0.84786905  0.09138332  0.82438907
   0.83408006  0.17803158  0.79735267
   0.78254912  0.06998278  0.88462166
   0.72529395  0.14196350  0.89342265
   0.69375831  0.15542283  0.95072297
   0.90935836  0.06362763  0.82542280
   0.78841628  0.02098138  0.93070104
   0.75487968  0.27442923  0.85931511
   0.88605940  0.21750191  0.78175368
   0.94946400  0.19756501  0.83946463
Direct configuration=     3
   0.82767902  0.15981429  0.90146560
   0.81147592  0.20584736  0.97553439
   0.86284353  0.24974214  0.93064881
   0.84235898  0.13681560 -0.00310900
   0.90266647  0.12620533  0.94726226
   0.91867232  0.19500052  0.90797917
   0.93071154  0.05647903  0.92739305
   0.79591208  0.07890867  0.01715074
   0.75075548  0.23952224  0.01613358
   0.83522025  0.29773305  0.88211385
   0.76261538  0.20052703  0.84089553
   0.84024611  0.09772909  0.82796201
   0.82843833  0.17279291  0.80396835
   0.78430240  0.07972638  0.88065463
   0.73303600  0.14160796  0.88762935
   0.69391054  0.15492795  0.95088592
   0.90910869  0.06350165  0.82536638
   0.78853779  0.02096777  0.93008062
   0.75442634  0.27448714  0.85936269
   0.88599319  0.21743023  0.78150059
   0.94983963  0.19728365  0.83962149
Direct configuration=     4
   0.82810448  0.15996128  0.89892076
   0.82029984  0.20678552  0.97946251
   0.86243728  0.23730353  0.93175150
   0.84480129  0.14286885 -0.01277527
   0.89827631  0.13321928  0.94847123
   0.90981181  0.19339691  0.91361665
   0.92688328  0.06558896  0.93047821
   0.80202436  0.08690083  0.01466428
   0.75913456  0.23460625  0.01015849
   0.83893559  0.29191047  0.88919336
   0.76694059  0.19081946  0.84313805
   0.83384983  0.10417931  0.83254428
   0.82307851  0.16765537  0.81192800
   0.78533175  0.08720493  0.87660679
   0.74269458  0.14165806  0.88340478
   0.69922061  0.15212702  0.94198714
   0.89873466  0.06777064  0.82546261
   0.78789080  0.02895863  0.92228162
   0.75497347  0.26583774  0.85674698
   0.87882169  0.21131999  0.78391992
   0.94650471  0.19697698  0.84853812
Direct configuration=     5
   0.82797327  0.15991595  0.89970555
   0.81757869  0.20649621  0.97825114
   0.86256256  0.24113939  0.93141145
   0.84404812  0.14100213 -0.00979435
   0.89963016  0.13105630  0.94809840
   0.91254424  0.19389144  0.91187814
   0.92806385  0.06277961  0.92952680
   0.80013944  0.08443618  0.01543106
   0.75655060  0.23612226  0.01200111
   0.83778985  0.29370605  0.88701016
   0.76560677  0.19381311  0.84244649
   0.83582233  0.10219017  0.83113119
   0.82473139  0.16923970  0.80947338
   0.78501432  0.08489867  0.87785507
   0.73971604  0.14164261  0.88470756
   0.69758307  0.15299078  0.94473137
   0.90193384  0.06645415  0.82543294
   0.78809032  0.02649438  0.92468670
   0.75480474  0.26850507  0.85755362
   0.88103326  0.21320429  0.78317384
   0.94753314  0.19707155  0.84578838
Direct configuration=     6
   0.82893235  0.16159389  0.90128614
   0.81936388  0.21079959  0.98422215
   0.86112613  0.23926429  0.93084545
   0.84244468  0.14053069 -0.01053061
   0.90252327  0.13070373  0.94853013
   0.91259711  0.19326768  0.91190128
   0.92465004  0.07138885  0.93219639
   0.80583895  0.09157739  0.01295395
   0.76435488  0.23180950  0.00678863
   0.84125913  0.28810558  0.89332887
   0.76502011  0.19395226  0.84239350
   0.83698678  0.10096070  0.82985046
   0.82452747  0.16954680  0.80885561
   0.78280020  0.08199823  0.87759190
   0.73953449  0.14133584  0.88548987
   0.70258000  0.15080191  0.93634600
   0.89278250  0.07056004  0.82566269
   0.78748414  0.03397173  0.91802407
   0.75551593  0.26018066  0.85505467
   0.87425862  0.20775637  0.78553747
   0.94416934  0.19694427  0.85417138
Direct configuration=     7
   0.83180958  0.16662769  0.90602790
   0.82471945  0.22370972  0.00213517
   0.85681684  0.23363902  0.92914744
   0.83763438  0.13911639 -0.01273938
   0.91120258  0.12964602  0.94982531
   0.91275570  0.19139639  0.91197069
   0.91440860  0.09721657  0.94020518
   0.82293750  0.11300104  0.00552260
   0.78776773  0.21887121 -0.00884880
   0.85166696  0.27130415  0.91228501
   0.76326011  0.19436968  0.84223452
   0.84048013  0.09727231  0.82600830
   0.82391572  0.17046809  0.80700230
   0.77615786  0.07329694  0.87680237
   0.73898986  0.14041553  0.88783681
   0.71757078  0.14423532  0.91118989
   0.86532849  0.08287770  0.82635194
   0.78566559  0.05640379  0.89803619
   0.75764949  0.23520742  0.84755781
   0.85393470  0.19141262  0.79262836
   0.93407794  0.19656240  0.87932040
Direct configuration=     8
   0.82913549  0.16194928  0.90162092
   0.81974200  0.21171107 -0.01451315
   0.86082188  0.23886714  0.93072556
   0.84210506  0.14043084 -0.01068655
   0.90313604  0.13062905  0.94862157
   0.91260830  0.19313556  0.91190618
   0.92392697  0.07321235  0.93276183
   0.80704615  0.09308995  0.01242927
   0.76600788  0.23089602  0.00568459
   0.84199394  0.28691936  0.89466722
   0.76489585  0.19398173  0.84238227
   0.83723342  0.10070029  0.82957920
   0.82448428  0.16961184  0.80872476
   0.78233124  0.08138390  0.87753616
   0.73949604  0.14127086  0.88565557
   0.70363838  0.15033830  0.93456992
   0.89084419  0.07142970  0.82571135
   0.78735574  0.03555549  0.91661288
   0.75566656  0.25841749  0.85452537
   0.87282371  0.20660246  0.78603810
   0.94345687  0.19691730  0.85594696
Direct configuration=     9
   0.83050133  0.16433887  0.90387186
   0.82228432  0.21783960 -0.00600972
   0.85877624  0.23619678  0.92991951
   0.83982158  0.13975946 -0.01173507
   0.90725617  0.13012695  0.94923640
   0.91268359  0.19224725  0.91193913
   0.91906529  0.08547294  0.93656366
   0.81516294  0.10325990  0.00890157
   0.77712212  0.22475413 -0.00173860
   0.84693461  0.27894361  0.90366582
   0.76406037  0.19417988  0.84230681
   0.83889173  0.09894939  0.82775529
   0.82419388  0.17004918  0.80784499
   0.77917808  0.07725334  0.87716136
   0.73923750  0.14083399  0.88676968
   0.71075460  0.14722109  0.92262815
   0.87781158  0.07727697  0.82603854
   0.78649247  0.04620413  0.90712450
   0.75667938  0.24656253  0.85096656
   0.86317581  0.19884398  0.78940420
   0.93866641  0.19673603  0.86788537
Direct configuration=    10
   0.82955442  0.16268221  0.90231132
   0.82052178  0.21359081 -0.01190499
   0.86019445  0.23804809  0.93047833
   0.84140468  0.14022492 -0.01100815
   0.90439976  0.13047505  0.94881015
   0.91263139  0.19286310  0.91191628
   0.92243580  0.07697290  0.93392792
   0.80953572  0.09620926  0.01134726
   0.76941682  0.22901219  0.00340776
   0.84350934  0.28447305  0.89742725
   0.76463959  0.19404251  0.84235913
   0.83774206  0.10016326  0.82901977
   0.82439521  0.16974598  0.80845492
   0.78136410  0.08011698  0.87742120
   0.73941674  0.14113687  0.88599729
   0.70582106  0.14938219  0.93090716
   0.88684685  0.07322316  0.82581171
   0.78709096  0.03882163  0.91370262
   0.75597721  0.25478135  0.85343382
   0.86986452  0.20422279  0.78707055
   0.94198755  0.19686171  0.85960869
Direct configuration=    11
   0.82983200  0.16316785  0.90276879
   0.82103846  0.21483632 -0.01017682
   0.85977871  0.23750539  0.93031451
   0.84094060  0.14008847 -0.01122125
   0.90523711  0.13037301  0.94893510
   0.91264669  0.19268257  0.91192298
   0.92144775  0.07946464  0.93470058
   0.81118531  0.09827613  0.01063032
   0.77167559  0.22776396  0.00189913
   0.84451344  0.28285212  0.89925606
   0.76446979  0.19408278  0.84234379
   0.83807908  0.09980742  0.82864910
   0.82433619  0.16983487  0.80827612
   0.78072328  0.07927752  0.87734503
   0.73936420  0.14104808  0.88622371
   0.70726730  0.14874868  0.92848021
   0.88419820  0.07441152  0.82587820
   0.78691551  0.04098577  0.91177428
   0.75618305  0.25237204  0.85271056
   0.86790375  0.20264602  0.78775464
   0.94101397  0.19682486  0.86203496
Direct configuration=    12
   0.82531461  0.15670228  0.89960013
   0.82663862  0.21465777 -0.00684247
   0.85927996  0.24439061  0.93333795
   0.84183248  0.14114503 -0.00847631
   0.90638013  0.13062560  0.95176214
   0.91819107  0.19236445  0.91125139
   0.91953859  0.08660274  0.93702940
   0.81617926  0.10434838  0.00899272
   0.77559327  0.22570625 -0.00122471
   0.84825719  0.27802820  0.90531038
   0.76253710  0.19659382  0.84239888
   0.83311094  0.09961532  0.82811527
   0.82622825  0.16935448  0.80645150
   0.78123621  0.08300602  0.87269074
   0.73878818  0.13943208  0.88433049
   0.70965567  0.14711714  0.92251218
   0.87883975  0.07632605  0.82522214
   0.78618439  0.04399122  0.90844205
   0.75628300  0.24284150  0.84954227
   0.86035264  0.19730917  0.78952327
   0.93832870  0.19689189  0.87053059
Direct configuration=    13
   0.82810035  0.16068940  0.90155414
   0.82318517  0.21476787 -0.00889866
   0.85958752  0.24014470  0.93147349
   0.84128249  0.14049348 -0.01016903
   0.90567526  0.13046983  0.95001879
   0.91477202  0.19256062  0.91166554
   0.92071591  0.08220089  0.93559329
   0.81309965  0.10060381  0.01000258
   0.77317736  0.22697518  0.00070167
   0.84594853  0.28100297  0.90157687
   0.76372893  0.19504534  0.84236491
   0.83617464  0.09973378  0.82844446
   0.82506147  0.16965072  0.80757669
   0.78091990  0.08070677  0.87556090
   0.73914339  0.14042862  0.88549798
   0.70818284  0.14812326  0.92619248
   0.88214414  0.07514542  0.82562671
   0.78663525  0.04213785  0.91049693
   0.75622136  0.24871869  0.85149606
   0.86500918  0.20060024  0.78843261
   0.93998462  0.19685056  0.86529159
Direct configuration=    14
   0.82783484  0.15783402  0.90072447
   0.82717658  0.21239777 -0.00965653
   0.86171927  0.24041501  0.93516594
   0.84466836  0.14364416 -0.00891622
   0.90382242  0.13368522  0.95209517
   0.91496814  0.19285970  0.91463166
   0.92163475  0.08192293  0.93580400
   0.81340159  0.10061103  0.01098583
   0.77213471  0.22760293  0.00095253
   0.84654896  0.28229081  0.90205198
   0.76331707  0.19427563  0.84155200
   0.83137752  0.10068448  0.82760774
   0.82383933  0.16806449  0.80734374
   0.78191105  0.08417250  0.87216490
   0.73901506  0.13987592  0.88147723
   0.70630179  0.14794880  0.92682863
   0.88282749  0.07411517  0.82477815
   0.78616497  0.04075668  0.91085076
   0.75545842  0.24678174  0.85033516
   0.86364923  0.19997522  0.78779594
   0.94097843  0.19713578  0.86592692
Direct configuration=    15
   0.82793960  0.15896069  0.90105184
   0.82560166  0.21333296 -0.00935749
   0.86087813  0.24030835  0.93370898
   0.84333237  0.14240097 -0.00941055
   0.90455351  0.13241650  0.95127588
   0.91489076  0.19274169  0.91346130
   0.92127220  0.08203261  0.93572086
   0.81328245  0.10060818  0.01059786
   0.77254612  0.22735524  0.00085354
   0.84631205  0.28178266  0.90186451
   0.76347958  0.19457934  0.84187276
   0.83327036  0.10030936  0.82793790
   0.82432156  0.16869038  0.80743565
   0.78151997  0.08280500  0.87350489
   0.73906570  0.14009400  0.88306373
   0.70704401  0.14801764  0.92657762
   0.88255786  0.07452168  0.82511297
   0.78635054  0.04130166  0.91071115
   0.75575946  0.24754602  0.85079323
   0.86418584  0.20022184  0.78804716
   0.94058629  0.19702324  0.86567623
Direct configuration=    16
   0.82908808  0.15893727  0.90160949
   0.82563564  0.21262173 -0.00937032
   0.86320159  0.24044318  0.93546129
   0.84530639  0.14312540 -0.00718103
   0.90429517  0.13285111  0.95233625
   0.91504689  0.19387443  0.91532947
   0.92201031  0.08255897  0.93636184
   0.81394208  0.10114369  0.01146040
   0.77326731  0.22769885  0.00122016
   0.84682691  0.28285763  0.90253202
   0.76330632  0.19343602  0.84059026
   0.83308077  0.09942176  0.82535639
   0.82278118  0.16828348  0.80667412
   0.78117670  0.08195186  0.87324436
   0.73657657  0.14060829  0.88122009
   0.70586574  0.14764697  0.92627761
   0.88176435  0.07417275  0.82428333
   0.78564403  0.04115729  0.90972866
   0.75479923  0.24703872  0.84995510
   0.86349916  0.19997308  0.78713295
   0.94163558  0.19724753  0.86627755
Direct configuration=    17
   0.82965088  0.15892580  0.90188276
   0.82565229  0.21227320 -0.00937661
   0.86434017  0.24050926  0.93631999
   0.84627372  0.14348040 -0.00608850
   0.90416858  0.13306408  0.95285586
   0.91512339  0.19442950  0.91624494
   0.92237200  0.08281690  0.93667594
   0.81426532  0.10140610  0.01188308
   0.77362073  0.22786723  0.00139982
   0.84707921  0.28338440  0.90285913
   0.76322142  0.19287575  0.83996180
   0.83298787  0.09898680  0.82409137
   0.82202633  0.16808408  0.80630094
   0.78100848  0.08153380  0.87311669
   0.73535682  0.14086031  0.88031665
   0.70528835  0.14746533  0.92613059
   0.88137550  0.07400177  0.82387678
   0.78529782  0.04108655  0.90924720
   0.75432869  0.24679012  0.84954439
   0.86316266  0.19985118  0.78668496
   0.94214977  0.19735744  0.86657222
Direct configuration=    18
   0.82944556  0.15893930  0.90178216
   0.82521769  0.21221103 -0.00920138
   0.86532151  0.24196148  0.93721808
   0.84707069  0.14329302 -0.00379600
   0.90515938  0.13268508  0.95353231
   0.91672853  0.19504243  0.91679749
   0.92302061  0.08370669  0.93756550
   0.81521110  0.10222087  0.01276587
   0.77459925  0.22814301  0.00183645
   0.84798247  0.28366725  0.90420993
   0.76255251  0.19265999  0.83927403
   0.83219877  0.09822610  0.82259351
   0.82171406  0.16766011  0.80520250
   0.78052930  0.08174317  0.87250950
   0.73393094  0.14024687  0.87924511
   0.70429056  0.14719105  0.92536037
   0.88076670  0.07359803  0.82285744
   0.78455465  0.04070559  0.90838436
   0.75345938  0.24605925  0.84855396
   0.86215036  0.19946590  0.78583014
   0.94284596  0.19762376  0.86797868
Direct configuration=    19
   0.82927516  0.15895051  0.90169866
   0.82485702  0.21215944 -0.00905595
   0.86613594  0.24316670  0.93796342
   0.84773210  0.14313752 -0.00189343
   0.90598166  0.13237055  0.95409370
   0.91806066  0.19555110  0.91725606
   0.92355890  0.08444513  0.93830376
   0.81599602  0.10289706  0.01349851
   0.77541134  0.22837188  0.00219881
   0.84873210  0.28390199  0.90533097
   0.76199737  0.19248092  0.83870324
   0.83154389  0.09759478  0.82135042
   0.82145489  0.16730825  0.80429088
   0.78013163  0.08191693  0.87200558
   0.73274759  0.13973778  0.87835584
   0.70346249  0.14696343  0.92472115
   0.88026144  0.07326296  0.82201148
   0.78393789  0.04038943  0.90766828
   0.75273793  0.24545269  0.84773199
   0.86131024  0.19914615  0.78512071
   0.94342374  0.19784479  0.86914592
Direct configuration=    20
   0.82872523  0.15942057  0.90178424
   0.82585362  0.21168403 -0.00956306
   0.86677397  0.24355368  0.93901459
   0.84894358  0.14398638 -0.00089356
   0.90672752  0.13357773  0.95493407
   0.91917404  0.19559427  0.91861441
   0.92474394  0.08474202  0.93930686
   0.81676185  0.10323888  0.01510329
   0.77579983  0.22898282  0.00309126
   0.84994130  0.28438863  0.90708256
   0.76130484  0.19200424  0.83822039
   0.83004606  0.09732615  0.82063919
   0.82110622  0.16649296  0.80336110
   0.77933392  0.08254498  0.87110196
   0.73234782  0.13843341  0.87743433
   0.70231070  0.14663083  0.92332301
   0.87958841  0.07264974  0.82055015
   0.78291956  0.03991421  0.90647251
   0.75161958  0.24479465  0.84639804
   0.86015675  0.19879481  0.78384830
   0.94457126  0.19829500  0.87067635
Direct configuration=    21
   0.82808676  0.15996631  0.90188361
   0.82701067  0.21113207 -0.01015182
   0.86751472  0.24400297  0.94023500
   0.85035012  0.14497192  0.00026729
   0.90759348  0.13497927  0.95590975
   0.92046667  0.19564439  0.92019147
   0.92611976  0.08508671  0.94047147
   0.81765098  0.10363573  0.01696645
   0.77625086  0.22969211  0.00412740
   0.85134520  0.28495362  0.90911616
   0.76050082  0.19145081  0.83765981
   0.82830709  0.09701427  0.81981344
   0.82070142  0.16554641  0.80228162
   0.77840778  0.08327414  0.87005285
   0.73188369  0.13691905  0.87636445
   0.70097346  0.14624469  0.92169977
   0.87880701  0.07193779  0.81885354
   0.78173727  0.03936247  0.90508422
   0.75032118  0.24403067  0.84484931
   0.85881754  0.19838691  0.78237103
   0.94590353  0.19881769  0.87245319
Direct configuration=    22
   0.82773201  0.16062359  0.90206680
   0.82712821  0.21132730 -0.01032768
   0.86842131  0.24337052  0.94092037
   0.85120655  0.14531375  0.00065525
   0.90836942  0.13562289  0.95651937
   0.92087705  0.19601273  0.92153005
   0.92722284  0.08564820  0.94160239
   0.81862355  0.10414298  0.01857252
   0.77709714  0.23009346  0.00495819
   0.85246398  0.28576882  0.91067316
   0.76026709  0.19057411  0.83714594
   0.82786526  0.09677924  0.81936478
   0.81978787  0.16515173  0.80184850
   0.77768182  0.08259707  0.86976745
   0.73155061  0.13650929  0.87584147
   0.69996565  0.14575581  0.92004856
   0.87757913  0.07149421  0.81741762
   0.78067523  0.03926320  0.90358735
   0.74914303  0.24363800  0.84354246
   0.85787657  0.19808356  0.78096529
   0.94721567  0.19927954  0.87380015
Direct configuration=    23
   0.82713987  0.16172071  0.90237260
   0.82732442  0.21165318 -0.01062123
   0.86993458  0.24231483  0.94206439
   0.85263610  0.14588433  0.00130284
   0.90966462  0.13669722  0.95753696
   0.92156206  0.19662755  0.92376440
   0.92906409  0.08658542  0.94349011
   0.82024695  0.10498968  0.02125336
   0.77850973  0.23076339  0.00634493
   0.85433144  0.28712954  0.91327210
   0.75987695  0.18911074  0.83628821
   0.82712777  0.09638692  0.81861588
   0.81826297  0.16449293  0.80112556
   0.77647007  0.08146691  0.86929107
   0.73099463  0.13582534  0.87496852
   0.69828342  0.14493977  0.91729237
   0.87552955  0.07075380  0.81502078
   0.77890249  0.03909750  0.90108878
   0.74717648  0.24298255  0.84136107
   0.85630593  0.19757722  0.77861884
   0.94940588  0.20005045  0.87604848
Direct configuration=    24
   0.82702950  0.16176218  0.90257782
   0.82684207  0.21184448 -0.00994991
   0.87048515  0.24274227  0.94201853
   0.85271359  0.14573262  0.00156972
   0.91044135  0.13611762  0.95842747
   0.92264286  0.19738647  0.92411294
   0.93042405  0.08773286  0.94507789
   0.82196504  0.10597014  0.02318109
   0.77986782  0.23121342  0.00737614
   0.85605988  0.28792486  0.91543571
   0.75936878  0.18899884  0.83567494
   0.82683984  0.09624312  0.81875240
   0.81742897  0.16451966  0.80060663
   0.77599503  0.08085574  0.86837797
   0.73089894  0.13578408  0.87450606
   0.69677623  0.14421066  0.91530383
   0.87383356  0.07012420  0.81318212
   0.77752250  0.03823526  0.89971282
   0.74571023  0.24202898  0.83957854
   0.85488413  0.19692296  0.77684921
   0.95102048  0.20069959  0.87812806
Direct configuration=    25
   0.82694127  0.16179532  0.90274187
   0.82645649  0.21199741 -0.00941327
   0.87092528  0.24308396  0.94198187
   0.85277553  0.14561134  0.00178307
   0.91106225  0.13565430  0.95913934
   0.92350683  0.19799314  0.92439156
   0.93151118  0.08865010  0.94634715
   0.82333846  0.10675391  0.02472209
   0.78095347  0.23157317  0.00820048
   0.85744157  0.28856063  0.91716527
   0.75896257  0.18890938  0.83518471
   0.82660968  0.09612817  0.81886153
   0.81676228  0.16454102  0.80019182
   0.77561529  0.08036718  0.86764806
   0.73082245  0.13575109  0.87413638
   0.69557140  0.14362782  0.91371422
   0.87247781  0.06962090  0.81171232
   0.77641935  0.03754600  0.89861289
   0.74453812  0.24126671  0.83815361
   0.85374756  0.19639996  0.77543459
   0.95231117  0.20121850  0.87979044
Direct configuration=    26
   0.82719877  0.16135301  0.90289580
   0.82723437  0.21170337 -0.00919907
   0.87097934  0.24332834  0.94223235
   0.85270225  0.14574586  0.00157299
   0.91105245  0.13614280  0.95997974
   0.92395834  0.19812999  0.92505902
   0.93311536  0.08912153  0.94774557
   0.82491220  0.10741377  0.02669872
   0.78158190  0.23228768  0.00947766
   0.85911014  0.28968948  0.91896503
   0.75838608  0.18909215  0.83461100
   0.82607347  0.09656849  0.81931845
   0.81625152  0.16456423  0.79978370
   0.77527550  0.08018829  0.86653946
   0.73113519  0.13581986  0.87365900
   0.69386191  0.14289135  0.91207211
   0.87120703  0.06874841  0.80992305
   0.77508288  0.03618357  0.89766256
   0.74308822  0.24042268  0.83642320
   0.85233286  0.19570540  0.77373205
   0.95421019  0.20194974  0.88134761
Direct configuration=    27
   0.82757947  0.16069911  0.90312338
   0.82838440  0.21126866 -0.00888240
   0.87105927  0.24368963  0.94260266
   0.85259392  0.14594474  0.00126240
   0.91103797  0.13686500  0.96122220
   0.92462584  0.19833231  0.92604580
   0.93548700  0.08981849  0.94981300
   0.82723884  0.10838932  0.02962098
   0.78251098  0.23334402  0.01136585
   0.86157697  0.29135836  0.92162579
   0.75753379  0.18936235  0.83376283
   0.82528072  0.09721945  0.81999395
   0.81549643  0.16459854  0.79918034
   0.77477317  0.07992384  0.86490050
   0.73159754  0.13592154  0.87295322
   0.69133460  0.14180255  0.90964440
   0.86932830  0.06745850  0.80727779
   0.77310704  0.03416936  0.89625759
   0.74094467  0.23917487  0.83386496
   0.85024137  0.19467856  0.77121502
   0.95701772  0.20303080  0.88364975
Direct configuration=    28
   0.82810574  0.16008317  0.90295395
   0.82898092  0.21174410 -0.00875775
   0.87129863  0.24322870  0.94331322
   0.85260608  0.14588818  0.00109593
   0.91115062  0.13759252  0.96163624
   0.92425970  0.19825988  0.92706310
   0.93739014  0.09026319  0.95156205
   0.82888519  0.10876280  0.03215271
   0.78340457  0.23402872  0.01282197
   0.86341565  0.29332988  0.92334869
   0.75738048  0.18882143  0.83299720
   0.82576279  0.09778713  0.81982965
   0.81480168  0.16473956  0.79900341
   0.77379476  0.07889665  0.86481956
   0.73146209  0.13625092  0.87291519
   0.68948975  0.14081386  0.90761835
   0.86775134  0.06647048  0.80528341
   0.77155098  0.03296984  0.89476560
   0.73890742  0.23915607  0.83184773
   0.84879773  0.19400153  0.76902994
   0.95955374  0.20396140  0.88519987
Direct configuration=    29
   0.82816403  0.16001494  0.90293518
   0.82904699  0.21179677 -0.00874394
   0.87132515  0.24317764  0.94339193
   0.85260743  0.14588192  0.00107749
   0.91116310  0.13767311  0.96168210
   0.92421914  0.19825186  0.92717578
   0.93760096  0.09031245  0.95175579
   0.82906756  0.10880417  0.03243316
   0.78350355  0.23410456  0.01298327
   0.86361933  0.29354827  0.92353954
   0.75736350  0.18876151  0.83291239
   0.82581619  0.09785002  0.81981145
   0.81472473  0.16475518  0.79898382
   0.77368638  0.07878286  0.86481059
   0.73144709  0.13628741  0.87291097
   0.68928539  0.14070434  0.90739392
   0.86757665  0.06636104  0.80506248
   0.77137862  0.03283696  0.89460033
   0.73868174  0.23915399  0.83162427
   0.84863781  0.19392654  0.76878790
   0.95983466  0.20406448  0.88537158
Direct configuration=    30
   0.82837254  0.15974860  0.90254096
   0.82852514  0.21244532 -0.00841579
   0.87147502  0.24372463  0.94356418
   0.85252118  0.14561106  0.00143672
   0.91165435  0.13711516  0.96146668
   0.92423051  0.19829388  0.92679502
   0.93815885  0.09076278  0.95260554
   0.82961095  0.10875911  0.03343514
   0.78414377  0.23417954  0.01339578
   0.86434404  0.29409829  0.92416727
   0.75719573  0.18876052  0.83270284
   0.82619674  0.09759676  0.81965078
   0.81482187  0.16481605  0.79888872
   0.77331404  0.07856568  0.86517830
   0.73105705  0.13607487  0.87333044
   0.68870867  0.14030675  0.90656862
   0.86705209  0.06601732  0.80434324
   0.77077260  0.03253264  0.89383577
   0.73782441  0.23942260  0.83085073
   0.84819175  0.19379454  0.76782815
   0.96057871  0.20442389  0.88633092
Direct configuration=    31
   0.82839545  0.15971934  0.90249765
   0.82846781  0.21251657 -0.00837974
   0.87149149  0.24378472  0.94358310
   0.85251170  0.14558130  0.00147618
   0.91170831  0.13705387  0.96144301
   0.92423176  0.19829850  0.92675319
   0.93822014  0.09081225  0.95269888
   0.82967064  0.10875417  0.03354521
   0.78421410  0.23418778  0.01344110
   0.86442365  0.29415871  0.92423622
   0.75717730  0.18876042  0.83267982
   0.82623854  0.09756894  0.81963313
   0.81483254  0.16482273  0.79887827
   0.77327314  0.07854182  0.86521869
   0.73101420  0.13605152  0.87337652
   0.68864532  0.14026307  0.90647796
   0.86699447  0.06597956  0.80426423
   0.77070603  0.03249921  0.89375178
   0.73773023  0.23945210  0.83076575
   0.84814275  0.19378004  0.76772272
   0.96066045  0.20446338  0.88643630
Direct configuration=    32
   0.82849674  0.15965256  0.90221957
   0.82856752  0.21243763 -0.00840292
   0.87159492  0.24422172  0.94373650
   0.85261032  0.14573101  0.00162459
   0.91160681  0.13695803  0.96126188
   0.92406813  0.19822718  0.92631642
   0.93858452  0.09082831  0.95314787
   0.82981408  0.10853963  0.03405521
   0.78427926  0.23431380  0.01372487
   0.86476539  0.29434831  0.92444242
   0.75689079  0.18892968  0.83278306
   0.82595389  0.09731627  0.81977600
   0.81511914  0.16468762  0.79886079
   0.77340043  0.07896271  0.86531027
   0.73103190  0.13576425  0.87345200
   0.68823369  0.14009093  0.90628177
   0.86702868  0.06568961  0.80390207
   0.77039287  0.03227340  0.89339237
   0.73736750  0.23956883  0.83041557
   0.84801384  0.19382659  0.76718425
   0.96092960  0.20468193  0.88701544
Direct configuration=    33
   0.82854101  0.15962337  0.90209803
   0.82861110  0.21240314 -0.00841305
   0.87164013  0.24441271  0.94380355
   0.85265342  0.14579644  0.00168945
   0.91156245  0.13691615  0.96118271
   0.92399661  0.19819601  0.92612552
   0.93874377  0.09083532  0.95334411
   0.82987677  0.10844586  0.03427811
   0.78430774  0.23436888  0.01384890
   0.86491475  0.29443118  0.92453254
   0.75676557  0.18900366  0.83282818
   0.82582948  0.09720583  0.81983844
   0.81524440  0.16462857  0.79885316
   0.77345606  0.07914667  0.86535030
   0.73103963  0.13563869  0.87348499
   0.68805377  0.14001570  0.90619602
   0.86704363  0.06556289  0.80374378
   0.77025599  0.03217471  0.89323529
   0.73720896  0.23961985  0.83026252
   0.84795749  0.19384693  0.76694890
   0.96104724  0.20477745  0.88726856
Direct configuration=    34
   0.82865349  0.15974244  0.90190058
   0.82884010  0.21230767 -0.00855154
   0.87187159  0.24438845  0.94402763
   0.85282091  0.14580840  0.00188390
   0.91121673  0.13708340  0.96097511
   0.92338873  0.19808537  0.92592919
   0.93910606  0.09070320  0.95375209
   0.83002894  0.10834948  0.03453536
   0.78429748  0.23446813  0.01409081
   0.86515471  0.29472726  0.92457472
   0.75673061  0.18896236  0.83290300
   0.82574430  0.09692988  0.81975159
   0.81527098  0.16461501  0.79901888
   0.77371483  0.07915822  0.86562700
   0.73095373  0.13579772  0.87344138
   0.68771261  0.13982759  0.90614097
   0.86704779  0.06534244  0.80355210
   0.76999322  0.03214494  0.89282503
   0.73692883  0.23969767  0.83000960
   0.84788552  0.19387999  0.76650019
   0.96138884  0.20503036  0.88761241
Direct configuration=    35
   0.82866980  0.15975971  0.90187194
   0.82887332  0.21229382 -0.00857163
   0.87190516  0.24438493  0.94406014
   0.85284521  0.14581014  0.00191211
   0.91116658  0.13710766  0.96094500
   0.92330056  0.19806932  0.92590071
   0.93915861  0.09068404  0.95381127
   0.83005101  0.10833549  0.03457268
   0.78429599  0.23448253  0.01412590
   0.86518952  0.29477021  0.92458083
   0.75672554  0.18895637  0.83291385
   0.82573194  0.09688986  0.81973899
   0.81527483  0.16461304  0.79904292
   0.77375237  0.07915990  0.86566713
   0.73094127  0.13582079  0.87343506
   0.68766312  0.13980031  0.90613298
   0.86704839  0.06531047  0.80352430
   0.76995511  0.03214062  0.89276552
   0.73688820  0.23970895  0.82997291
   0.84787507  0.19388479  0.76643511
   0.96143840  0.20506704  0.88766228
Direct configuration=    36
   0.82870639  0.15991140  0.90180896
   0.82875055  0.21237676 -0.00847277
   0.87198834  0.24448490  0.94414875
   0.85292216  0.14567774  0.00210824
   0.91105079  0.13685824  0.96083967
   0.92302830  0.19801486  0.92562453
   0.93926228  0.09077676  0.95411130
   0.83020816  0.10839970  0.03455653
   0.78445752  0.23443949  0.01416493
   0.86533645  0.29485815  0.92460262
   0.75680979  0.18898023  0.83285981
   0.82583884  0.09676808  0.81951955
   0.81524219  0.16471753  0.79913593
   0.77389288  0.07910427  0.86586167
   0.73082936  0.13603815  0.87344683
   0.68753729  0.13965999  0.90611968
   0.86699321  0.06520665  0.80350406
   0.76978928  0.03211690  0.89252566
   0.73678142  0.23961949  0.82985136
   0.84773812  0.19379082  0.76628377
   0.96158669  0.20524989  0.88789894
Direct configuration=    37