 171 171   0   0
  0.4145774E+02  0.1590000E-08  0.1590000E-08  0.3238000E-08  0.5000000E-15
  1.000000000000000E-004
  CAR 
 basalPlane                              
      2.20198144    -19.09467806  301      0.20401653      1.00000000
    -19.095  0.0000E+00  0.0000E+00
    -19.024  0.0000E+00  0.0000E+00
    -18.953  0.0000E+00  0.0000E+00
    -18.882  0.0000E+00  0.0000E+00
    -18.811  0.0000E+00  0.0000E+00
    -18.740  0.0000E+00  0.0000E+00
    -18.669  0.6256E-18  0.4441E-19
    -18.598  0.1581E-14  0.1122E-15
    -18.527  0.1396E-11  0.9922E-13
    -18.456  0.4603E-09  0.3278E-10
    -18.385  0.5704E-07  0.4082E-08
    -18.314  0.2679E-05  0.1943E-06
    -18.243  0.4823E-04  0.3618E-05
    -18.172  0.3368E-03  0.2753E-04
    -18.101  0.9232E-03  0.9306E-04
    -18.030  0.1000E-02  0.1641E-03
    -17.959  0.4312E-03  0.1947E-03
    -17.888  0.1165E-03  0.2030E-03
    -17.817  0.3241E-03  0.2260E-03
    -17.746  0.9050E-03  0.2902E-03
    -17.675  0.1014E-02  0.3622E-03
    -17.604  0.4492E-03  0.3941E-03
    -17.533  0.7829E-04  0.3996E-03
    -17.462  0.5307E-05  0.4000E-03
    -17.391  0.1382E-06  0.4000E-03
    -17.320  0.1368E-08  0.4000E-03
    -17.249  0.5093E-11  0.4000E-03
    -17.178  0.7089E-14  0.4000E-03
    -17.107  0.3753E-17  0.4000E-03
    -17.036  0.0000E+00  0.4000E-03
    -16.965  0.0000E+00  0.4000E-03
    -16.894  0.0000E+00  0.4000E-03
    -16.823  0.0000E+00  0.4000E-03
    -16.752  0.0000E+00  0.4000E-03
    -16.681  0.0000E+00  0.4000E-03
    -16.610  0.0000E+00  0.4000E-03
    -16.539  0.0000E+00  0.4000E-03
    -16.468  0.0000E+00  0.4000E-03
    -16.397  0.0000E+00  0.4000E-03
    -16.326  0.0000E+00  0.4000E-03
    -16.255  0.1564E-18  0.4000E-03
    -16.184  0.3591E-15  0.4000E-03
    -16.113  0.3868E-12  0.4000E-03
    -16.042  0.1554E-09  0.4000E-03
    -15.971  0.2342E-07  0.4000E-03
    -15.900  0.1336E-05  0.4001E-03
    -15.829  0.2913E-04  0.4022E-03
    -15.758  0.2461E-03  0.4196E-03
    -15.687  0.8215E-03  0.4779E-03
    -15.616  0.1174E-02  0.5613E-03
    -15.545  0.1102E-02  0.6395E-03
    -15.474  0.1174E-02  0.7229E-03
    -15.403  0.8161E-03  0.7808E-03
    -15.332  0.2846E-03  0.8010E-03
    -15.261  0.6048E-03  0.8440E-03
    -15.190  0.3038E-02  0.1060E-02
    -15.119  0.6493E-02  0.1521E-02
    -15.048  0.6921E-02  0.2012E-02
    -14.977  0.6953E-02  0.2505E-02
    -14.906  0.6376E-02  0.2958E-02
    -14.835  0.2854E-02  0.3161E-02
    -14.764  0.5166E-03  0.3197E-02
    -14.693  0.3719E-04  0.3200E-02
    -14.622  0.1882E-04  0.3201E-02
    -14.551  0.1981E-03  0.3215E-02
    -14.480  0.1018E-02  0.3288E-02
    -14.409  0.3109E-02  0.3508E-02
    -14.338  0.6725E-02  0.3986E-02
    -14.267  0.1026E-01  0.4714E-02
    -14.196  0.1475E-01  0.5761E-02
    -14.125  0.2122E-01  0.7267E-02
    -14.054  0.2036E-01  0.8713E-02
    -13.983  0.1192E-01  0.9559E-02
    -13.912  0.8639E-02  0.1017E-01
    -13.842  0.1148E-01  0.1099E-01
    -13.771  0.1638E-01  0.1215E-01
    -13.700  0.2330E-01  0.1380E-01
    -13.629  0.2519E-01  0.1559E-01
    -13.558  0.2408E-01  0.1730E-01
    -13.487  0.2307E-01  0.1894E-01
    -13.416  0.1642E-01  0.2010E-01
    -13.345  0.9712E-02  0.2079E-01
    -13.274  0.4533E-02  0.2112E-01
    -13.203  0.1079E-02  0.2119E-01
    -13.132  0.1061E-03  0.2120E-01
    -13.061  0.4072E-05  0.2120E-01
    -12.990  0.5974E-07  0.2120E-01
    -12.919  0.3314E-09  0.2120E-01
    -12.848  0.6895E-12  0.2120E-01
    -12.777  0.5349E-15  0.2120E-01
    -12.706  0.0000E+00  0.2120E-01
    -12.635  0.0000E+00  0.2120E-01
    -12.564  0.0000E+00  0.2120E-01
    -12.493  0.0000E+00  0.2120E-01
    -12.422  0.0000E+00  0.2120E-01
    -12.351  0.0000E+00  0.2120E-01
    -12.280  0.0000E+00  0.2120E-01
    -12.209  0.0000E+00  0.2120E-01
    -12.138  0.0000E+00  0.2120E-01
    -12.067  0.0000E+00  0.2120E-01
    -11.996  0.0000E+00  0.2120E-01
    -11.925  0.0000E+00  0.2120E-01
    -11.854  0.0000E+00  0.2120E-01
    -11.783  0.0000E+00  0.2120E-01
    -11.712  0.0000E+00  0.2120E-01
    -11.641  0.0000E+00  0.2120E-01
    -11.570  0.0000E+00  0.2120E-01
    -11.499  0.0000E+00  0.2120E-01
    -11.428  0.0000E+00  0.2120E-01
    -11.357  0.0000E+00  0.2120E-01
    -11.286  0.0000E+00  0.2120E-01
    -11.215  0.0000E+00  0.2120E-01
    -11.144  0.0000E+00  0.2120E-01
    -11.073  0.0000E+00  0.2120E-01
    -11.002  0.0000E+00  0.2120E-01
    -10.931  0.0000E+00  0.2120E-01
    -10.860  0.0000E+00  0.2120E-01
    -10.789  0.0000E+00  0.2120E-01
    -10.718  0.0000E+00  0.2120E-01
    -10.647  0.0000E+00  0.2120E-01
    -10.576  0.0000E+00  0.2120E-01
    -10.505  0.0000E+00  0.2120E-01
    -10.434  0.0000E+00  0.2120E-01
    -10.363  0.0000E+00  0.2120E-01
    -10.292  0.0000E+00  0.2120E-01
    -10.221  0.0000E+00  0.2120E-01
    -10.150  0.0000E+00  0.2120E-01
    -10.079  0.0000E+00  0.2120E-01
    -10.008  0.1564E-18  0.2120E-01
     -9.937  0.4202E-15  0.2120E-01
     -9.866  0.4441E-12  0.2120E-01
     -9.795  0.1754E-09  0.2120E-01
     -9.724  0.2610E-07  0.2120E-01
     -9.653  0.1485E-05  0.2120E-01
     -9.582  0.3303E-04  0.2120E-01
     -9.511  0.2975E-03  0.2122E-01
     -9.440  0.1145E-02  0.2130E-01
     -9.369  0.2071E-02  0.2145E-01
     -9.298  0.2311E-02  0.2162E-01
     -9.227  0.2598E-02  0.2180E-01
     -9.156  0.2634E-02  0.2199E-01
     -9.085  0.1875E-02  0.2212E-01
     -9.014  0.9077E-03  0.2218E-01
     -8.943  0.4439E-03  0.2222E-01
     -8.872  0.8079E-03  0.2227E-01
     -8.801  0.1070E-02  0.2235E-01
     -8.730  0.5759E-03  0.2239E-01
     -8.659  0.1222E-03  0.2240E-01
     -8.588  0.1012E-04  0.2240E-01
     -8.517  0.3225E-06  0.2240E-01
     -8.446  0.3915E-08  0.2240E-01
     -8.375  0.1792E-10  0.2240E-01
     -8.304  0.3069E-13  0.2240E-01
     -8.233  0.1939E-16  0.2240E-01
     -8.162  0.0000E+00  0.2240E-01
     -8.091  0.0000E+00  0.2240E-01
     -8.020  0.0000E+00  0.2240E-01
     -7.949  0.0000E+00  0.2240E-01
     -7.878  0.0000E+00  0.2240E-01
     -7.807  0.0000E+00  0.2240E-01
     -7.736  0.1329E-16  0.2240E-01
     -7.665  0.2195E-13  0.2240E-01
     -7.594  0.1357E-10  0.2240E-01
     -7.523  0.3183E-08  0.2240E-01
     -7.453  0.2900E-06  0.2240E-01
     -7.382  0.1075E-04  0.2240E-01
     -7.311  0.1733E-03  0.2241E-01
     -7.240  0.1299E-02  0.2251E-01
     -7.169  0.4632E-02  0.2283E-01
     -7.098  0.7897E-02  0.2339E-01
     -7.027  0.7816E-02  0.2395E-01
     -6.956  0.7977E-02  0.2452E-01
     -6.885  0.8735E-02  0.2514E-01
     -6.814  0.1120E-01  0.2593E-01
     -6.743  0.1750E-01  0.2717E-01
     -6.672  0.2408E-01  0.2888E-01
     -6.601  0.2691E-01  0.3079E-01
     -6.530  0.2140E-01  0.3231E-01
     -6.459  0.1580E-01  0.3343E-01
     -6.388  0.1198E-01  0.3428E-01
     -6.317  0.5931E-02  0.3471E-01
     -6.246  0.2632E-02  0.3489E-01
     -6.175  0.5282E-02  0.3527E-01
     -6.104  0.9731E-02  0.3596E-01
     -6.033  0.1061E-01  0.3671E-01
     -5.962  0.7463E-02  0.3724E-01
     -5.891  0.4635E-02  0.3757E-01
     -5.820  0.6253E-02  0.3801E-01
     -5.749  0.8620E-02  0.3863E-01
     -5.678  0.9302E-02  0.3929E-01
     -5.607  0.1380E-01  0.4027E-01
     -5.536  0.1932E-01  0.4164E-01
     -5.465  0.1887E-01  0.4298E-01
     -5.394  0.1726E-01  0.4420E-01
     -5.323  0.1725E-01  0.4543E-01
     -5.252  0.1629E-01  0.4658E-01
     -5.181  0.1738E-01  0.4782E-01
     -5.110  0.1709E-01  0.4903E-01
     -5.039  0.1145E-01  0.4984E-01
     -4.968  0.1055E-01  0.5059E-01
     -4.897  0.1401E-01  0.5159E-01
     -4.826  0.1508E-01  0.5266E-01
     -4.755  0.1764E-01  0.5391E-01
     -4.684  0.2283E-01  0.5553E-01
     -4.613  0.2643E-01  0.5741E-01
     -4.542  0.2129E-01  0.5892E-01
     -4.471  0.1161E-01  0.5974E-01
     -4.400  0.9213E-02  0.6040E-01
     -4.329  0.1050E-01  0.6114E-01
     -4.258  0.1119E-01  0.6194E-01
     -4.187  0.1139E-01  0.6274E-01
     -4.116  0.8483E-02  0.6335E-01
     -4.045  0.3510E-02  0.6360E-01
     -3.974  0.2275E-02  0.6376E-01
     -3.903  0.5101E-02  0.6412E-01
     -3.832  0.1108E-01  0.6491E-01
     -3.761  0.1514E-01  0.6598E-01
     -3.690  0.1584E-01  0.6710E-01
     -3.619  0.2060E-01  0.6857E-01
     -3.548  0.2447E-01  0.7030E-01
     -3.477  0.2303E-01  0.7194E-01
     -3.406  0.2287E-01  0.7356E-01
     -3.335  0.2321E-01  0.7521E-01
     -3.264  0.1322E-01  0.7615E-01
     -3.193  0.3482E-02  0.7640E-01
     -3.122  0.1496E-02  0.7650E-01
     -3.051  0.2201E-02  0.7666E-01
     -2.980  0.2210E-02  0.7682E-01
     -2.909  0.4749E-02  0.7715E-01
     -2.838  0.1339E-01  0.7810E-01
     -2.767  0.2255E-01  0.7970E-01
     -2.696  0.2548E-01  0.8151E-01
     -2.625  0.1976E-01  0.8291E-01
     -2.554  0.1215E-01  0.8378E-01
     -2.483  0.1366E-01  0.8475E-01
     -2.412  0.1932E-01  0.8612E-01
     -2.341  0.2002E-01  0.8754E-01
     -2.270  0.1520E-01  0.8862E-01
     -2.199  0.1104E-01  0.8940E-01
     -2.128  0.9776E-02  0.9010E-01
     -2.057  0.1270E-01  0.9100E-01
     -1.986  0.1302E-01  0.9192E-01
     -1.915  0.7947E-02  0.9249E-01
     -1.844  0.7379E-02  0.9301E-01
     -1.773  0.9666E-02  0.9370E-01
     -1.702  0.9831E-02  0.9439E-01
     -1.631  0.7071E-02  0.9490E-01
     -1.560  0.3231E-02  0.9512E-01
     -1.489  0.9118E-03  0.9519E-01
     -1.418  0.1393E-03  0.9520E-01
     -1.347  0.9692E-05  0.9520E-01
     -1.276  0.2771E-06  0.9520E-01
     -1.205  0.3103E-08  0.9520E-01
     -1.134  0.1328E-10  0.9520E-01
     -1.064  0.2142E-13  0.9520E-01
     -0.993  0.1282E-16  0.9520E-01
     -0.922  0.0000E+00  0.9520E-01
     -0.851  0.0000E+00  0.9520E-01
     -0.780  0.0000E+00  0.9520E-01
     -0.709  0.0000E+00  0.9520E-01
     -0.638  0.3128E-18  0.9520E-01
     -0.567  0.9837E-15  0.9520E-01
     -0.496  0.9265E-12  0.9520E-01
     -0.425  0.3256E-09  0.9520E-01
     -0.354  0.4298E-07  0.9520E-01
     -0.283  0.2149E-05  0.9520E-01
     -0.212  0.4115E-04  0.9520E-01
     -0.141  0.3055E-03  0.9522E-01
     -0.070  0.8898E-03  0.9529E-01
      0.001  0.1036E-02  0.9536E-01
      0.072  0.6320E-03  0.9541E-01
      0.143  0.9790E-03  0.9548E-01
      0.214  0.2121E-02  0.9563E-01
      0.285  0.3603E-02  0.9588E-01
      0.356  0.9714E-02  0.9657E-01
      0.427  0.1999E-01  0.9799E-01
      0.498  0.2432E-01  0.9972E-01
      0.569  0.2743E-01  0.1017E+00
      0.640  0.2812E-01  0.1037E+00
      0.711  0.1774E-01  0.1049E+00
      0.782  0.7130E-02  0.1054E+00
      0.853  0.1052E-01  0.1062E+00
      0.924  0.2922E-01  0.1082E+00
      0.995  0.3911E-01  0.1110E+00
      1.066  0.2915E-01  0.1131E+00
      1.137  0.1795E-01  0.1144E+00
      1.208  0.8632E-02  0.1150E+00
      1.279  0.2550E-02  0.1152E+00
      1.350  0.4810E-03  0.1152E+00
      1.421  0.5329E-04  0.1152E+00
      1.492  0.2748E-05  0.1152E+00
      1.563  0.5740E-07  0.1152E+00
      1.634  0.4611E-09  0.1152E+00
      1.705  0.1397E-11  0.1152E+00
      1.776  0.1581E-14  0.1152E+00
      1.847  0.6256E-18  0.1152E+00
      1.918  0.0000E+00  0.1152E+00
      1.989  0.0000E+00  0.1152E+00
      2.060  0.0000E+00  0.1152E+00
      2.131  0.0000E+00  0.1152E+00
      2.202  0.0000E+00  0.1152E+00
