       N       E                     dE             d eps       ncg     rms          rms(c)
DAV:   1     0.768887605236E+04    0.76889E+04   -0.36447E+05  1188   0.114E+03
DAV:   2    -0.251571951587E+03   -0.79404E+04   -0.76994E+04  1584   0.271E+02
DAV:   3    -0.125891874176E+04   -0.10073E+04   -0.99380E+03  1332   0.104E+02
DAV:   4    -0.132098837780E+04   -0.62070E+02   -0.61748E+02  1788   0.306E+01
DAV:   5    -0.132308743536E+04   -0.20991E+01   -0.20890E+01  1740   0.497E+00    0.169E+02
DAV:   6    -0.127570547761E+04    0.47382E+02   -0.97609E+02  1584   0.277E+01    0.925E+01
DAV:   7    -0.129121126391E+04   -0.15506E+02   -0.11921E+03  1800   0.492E+01    0.543E+01
DAV:   8    -0.123466172723E+04    0.56550E+02   -0.89847E+01  1416   0.833E+00    0.310E+01
DAV:   9    -0.123998002058E+04   -0.53183E+01   -0.19349E+02  1776   0.102E+01    0.324E+01
DAV:  10    -0.122203785917E+04    0.17942E+02   -0.10450E+02  1812   0.148E+01    0.181E+01
DAV:  11    -0.122503186224E+04   -0.29940E+01   -0.23580E+01  1728   0.272E+00    0.160E+01
DAV:  12    -0.122460917861E+04    0.42268E+00   -0.78965E-01  1668   0.507E-01    0.156E+01
DAV:  13    -0.122378927969E+04    0.81990E+00   -0.48247E+00  1560   0.101E+00    0.163E+01
DAV:  14    -0.122359742728E+04    0.19185E+00   -0.23485E+00  1728   0.109E+00    0.171E+01
DAV:  15    -0.122491973953E+04   -0.13223E+01   -0.84408E+00  1752   0.191E+00    0.192E+01
DAV:  16    -0.122681290915E+04   -0.18932E+01   -0.30609E+00  1704   0.129E+00    0.200E+01
DAV:  17    -0.122800040028E+04   -0.11875E+01   -0.82667E-01  1608   0.892E-01    0.200E+01
DAV:  18    -0.122607803817E+04    0.19224E+01   -0.24423E+00  1704   0.132E+00    0.184E+01
DAV:  19    -0.122783849118E+04   -0.17605E+01   -0.22091E+00  1584   0.116E+00    0.188E+01
DAV:  20    -0.122736058565E+04    0.47791E+00   -0.58865E-01  1608   0.397E-01    0.185E+01
DAV:  21    -0.122773763975E+04   -0.37705E+00   -0.88886E-01  1764   0.552E-01    0.188E+01
DAV:  22    -0.122778388150E+04   -0.46242E-01   -0.49984E-01  1656   0.217E-01    0.195E+01
DAV:  23    -0.122757873696E+04    0.20514E+00   -0.86002E-01  1716   0.367E-01    0.187E+01
DAV:  24    -0.122785555332E+04   -0.27682E+00   -0.73125E-01  1704   0.264E-01    0.194E+01
DAV:  25    -0.122773531246E+04    0.12024E+00   -0.12177E+00  1680   0.190E-01    0.188E+01
DAV:  26    -0.122747454477E+04    0.26077E+00   -0.13114E+00  1608   0.233E-01    0.187E+01
DAV:  27    -0.122744831476E+04    0.26230E-01   -0.20896E+00  1524   0.123E-01    0.185E+01
DAV:  28    -0.122730770965E+04    0.14061E+00   -0.18775E+00  1560   0.184E-01    0.185E+01
DAV:  29    -0.122733619870E+04   -0.28489E-01   -0.28929E+00  1368   0.118E-01    0.182E+01
DAV:  30    -0.122721846805E+04    0.11773E+00   -0.19104E+00  1500   0.170E-01    0.182E+01
DAV:  31    -0.122702293173E+04    0.19554E+00   -0.30961E+00  1560   0.182E-01    0.178E+01
DAV:  32    -0.122683286227E+04    0.19007E+00   -0.24814E+00  1560   0.198E-01    0.176E+01
DAV:  33    -0.122669268721E+04    0.14018E+00   -0.30851E+00  1500   0.156E-01    0.173E+01
DAV:  34    -0.122646622180E+04    0.22647E+00   -0.17275E+00  1524   0.192E-01    0.170E+01
DAV:  35    -0.122634895400E+04    0.11727E+00   -0.26127E+00  1440   0.147E-01    0.167E+01
DAV:  36    -0.122620314688E+04    0.14581E+00   -0.14632E+00  1512   0.152E-01    0.164E+01
DAV:  37    -0.122612411401E+04    0.79033E-01   -0.23063E+00  1356   0.131E-01    0.162E+01
DAV:  38    -0.122600706247E+04    0.11705E+00   -0.18874E+00  1536   0.153E-01    0.159E+01
DAV:  39    -0.122592245935E+04    0.84603E-01   -0.17714E+00  1392   0.126E-01    0.158E+01
DAV:  40    -0.122582621797E+04    0.96241E-01   -0.21953E+00  1512   0.147E-01    0.154E+01
DAV:  41    -0.122573957554E+04    0.86642E-01   -0.18956E+00  1392   0.127E-01    0.153E+01
DAV:  42    -0.122562844781E+04    0.11113E+00   -0.19795E+00  1500   0.141E-01    0.149E+01
DAV:  43    -0.122555330651E+04    0.75141E-01   -0.23395E+00  1368   0.131E-01    0.147E+01
DAV:  44    -0.122542121724E+04    0.13209E+00   -0.17036E+00  1500   0.139E-01    0.144E+01
DAV:  45    -0.122534686823E+04    0.74349E-01   -0.27723E+00  1452   0.142E-01    0.141E+01
DAV:  46    -0.122518420294E+04    0.16267E+00   -0.16806E+00  1548   0.149E-01    0.137E+01
DAV:  47    -0.122506959744E+04    0.11461E+00   -0.29598E+00  1488   0.159E-01    0.134E+01
DAV:  48    -0.122489383632E+04    0.17576E+00   -0.23081E+00  1476   0.176E-01    0.128E+01
DAV:  49    -0.122472003671E+04    0.17380E+00   -0.30173E+00  1524   0.186E-01    0.124E+01
DAV:  50    -0.122453106870E+04    0.18897E+00   -0.29435E+00  1524   0.204E-01    0.118E+01
DAV:  51    -0.122428082580E+04    0.25024E+00   -0.32866E+00  1596   0.231E-01    0.111E+01
DAV:  52    -0.122406972244E+04    0.21110E+00   -0.29410E+00  1572   0.204E-01    0.104E+01
DAV:  53    -0.122391298736E+04    0.15674E+00   -0.35225E+00  1560   0.196E-01    0.989E+00
DAV:  54    -0.122372128941E+04    0.19170E+00   -0.30042E+00  1524   0.199E-01    0.923E+00
DAV:  55    -0.122359728393E+04    0.12401E+00   -0.36886E+00  1536   0.186E-01    0.878E+00
DAV:  56    -0.122434611898E+04   -0.74884E+00   -0.26278E+01  1692   0.171E+00    0.111E+01
DAV:  57    -0.122391181962E+04    0.43430E+00   -0.40254E-01  1416   0.279E-01    0.103E+01
DAV:  58    -0.122392383721E+04   -0.12018E-01   -0.12269E+00  1392   0.111E-01    0.106E+01
DAV:  59    -0.122388627110E+04    0.37566E-01   -0.61526E-01  1212   0.951E-02    0.104E+01
DAV:  60    -0.122390016645E+04   -0.13895E-01   -0.10141E+00  1140   0.893E-02    0.105E+01
DAV:  61    -0.122384476105E+04    0.55405E-01   -0.62438E-01  1332   0.114E-01    0.913E+00
DAV:  62    -0.122381669649E+04    0.28065E-01   -0.15921E+00  1332   0.106E-01    0.983E+00
DAV:  63    -0.122379171331E+04    0.24983E-01   -0.13331E+00  1188   0.892E-02    0.969E+00
DAV:  64    -0.122375589851E+04    0.35815E-01   -0.13814E+00  1188   0.931E-02    0.943E+00
DAV:  65    -0.122371497539E+04    0.40923E-01   -0.15878E+00  1176   0.888E-02    0.936E+00
DAV:  66    -0.122373760142E+04   -0.22626E-01   -0.14883E+00  1248   0.950E-02    0.936E+00
DAV:  67    -0.122372949650E+04    0.81049E-02   -0.16477E+00  1128   0.880E-02    0.919E+00
DAV:  68    -0.122373413800E+04   -0.46415E-02   -0.15270E+00  1092   0.857E-02    0.937E+00
DAV:  69    -0.122371699609E+04    0.17142E-01   -0.16062E+00  1116   0.857E-02    0.914E+00
DAV:  70    -0.122372628133E+04   -0.92852E-02   -0.15212E+00  1128   0.839E-02    0.940E+00
DAV:  71    -0.122374575194E+04   -0.19471E-01   -0.15700E+00  1332   0.118E-01    0.918E+00
DAV:  72    -0.122368812553E+04    0.57626E-01   -0.14518E+00  1476   0.109E-01    0.898E+00
DAV:  73    -0.122367096973E+04    0.17156E-01   -0.14709E+00  1212   0.874E-02    0.882E+00
DAV:  74    -0.122365505835E+04    0.15911E-01   -0.12797E+00  1116   0.843E-02    0.885E+00
DAV:  75    -0.122364741623E+04    0.76421E-02   -0.12780E+00  1056   0.788E-02    0.870E+00
DAV:  76    -0.122364442865E+04    0.29876E-02   -0.11912E+00  1272   0.919E-02    0.867E+00
DAV:  77    -0.122362259213E+04    0.21837E-01   -0.10123E+00  1308   0.900E-02    0.844E+00
DAV:  78    -0.122362070070E+04    0.18914E-02   -0.92802E-01  1212   0.869E-02    0.878E+00
DAV:  79    -0.122357122811E+04    0.49473E-01   -0.83623E-01  1212   0.850E-02    0.817E+00
DAV:  80    -0.122350618303E+04    0.65045E-01   -0.81865E-01  1308   0.100E-01    0.859E+00
DAV:  81    -0.122338062721E+04    0.12556E+00   -0.64603E-01  1332   0.112E-01    0.774E+00
DAV:  82    -0.122326589863E+04    0.11473E+00   -0.59336E-01  1320   0.102E-01    0.749E+00
DAV:  83    -0.122310677445E+04    0.15912E+00   -0.38453E-01  1428   0.119E-01    0.666E+00
DAV:  84    -0.122294729352E+04    0.15948E+00   -0.27977E-01  1476   0.130E-01    0.597E+00
DAV:  85    -0.122284424604E+04    0.10305E+00   -0.43739E-01  1620   0.288E-01    0.305E+00
DAV:  86    -0.122279713129E+04    0.47115E-01   -0.11728E-01  1632   0.159E-01    0.161E+00
DAV:  87    -0.122280366014E+04   -0.65288E-02   -0.53959E-02  1452   0.650E-02    0.271E+00
DAV:  88    -0.122284567368E+04   -0.42014E-01   -0.58991E-02  1452   0.969E-02    0.356E+00
DAV:  89    -0.122285683976E+04   -0.11166E-01   -0.42976E-02  1356   0.431E-02    0.378E+00
DAV:  90    -0.122287550015E+04   -0.18660E-01   -0.51993E-02  1128   0.469E-02    0.407E+00
DAV:  91    -0.122296642956E+04   -0.90929E-01   -0.52049E-02  1452   0.122E-01    0.486E+00
DAV:  92    -0.122296121947E+04    0.52101E-02   -0.38206E-02  1200   0.350E-02    0.476E+00
DAV:  93    -0.122298291704E+04   -0.21698E-01   -0.38672E-02  1032   0.269E-02    0.493E+00
DAV:  94    -0.122284138996E+04    0.14153E+00   -0.89888E-02  1416   0.123E-01    0.336E+00
DAV:  95    -0.122277578518E+04    0.65605E-01   -0.44964E-01  1572   0.171E-01    0.182E+00
DAV:  96    -0.122278016714E+04   -0.43820E-02   -0.24010E-01  1560   0.983E-02    0.209E+00
DAV:  97    -0.122278124212E+04   -0.10750E-02   -0.38062E-01  1272   0.546E-02    0.203E+00
DAV:  98    -0.122277186355E+04    0.93786E-02   -0.20469E-01  1416   0.708E-02    0.194E+00
DAV:  99    -0.122276908089E+04    0.27827E-02   -0.18942E-02  1332   0.906E-02    0.202E+00
DAV: 100    -0.122279828732E+04   -0.29206E-01   -0.18485E-02  1368   0.726E-02    0.309E+00
DAV: 101    -0.122279422854E+04    0.40588E-02   -0.14281E-02  1380   0.562E-02    0.278E+00
DAV: 102    -0.122280388104E+04   -0.96525E-02   -0.10921E-02  1140   0.335E-02    0.317E+00
DAV: 103    -0.122282189799E+04   -0.18017E-01   -0.13166E-02  1056   0.377E-02    0.335E+00
DAV: 104    -0.122280902050E+04    0.12877E-01   -0.12401E-02   864   0.182E-02    0.308E+00
DAV: 105    -0.122281227552E+04   -0.32550E-02   -0.11069E-02   648   0.115E-02    0.323E+00
DAV: 106    -0.122282333323E+04   -0.11058E-01   -0.14985E-02   900   0.246E-02    0.342E+00
DAV: 107    -0.122282476729E+04   -0.14341E-02   -0.17201E-02   780   0.140E-02    0.343E+00
DAV: 108    -0.122282586276E+04   -0.10955E-02   -0.20920E-02   684   0.134E-02    0.341E+00
DAV: 109    -0.122282677229E+04   -0.90953E-03   -0.25334E-02   684   0.129E-02    0.345E+00
DAV: 110    -0.122282706049E+04   -0.28821E-03   -0.30804E-02   684   0.140E-02    0.340E+00
DAV: 111    -0.122283124781E+04   -0.41873E-02   -0.37160E-02   768   0.159E-02    0.351E+00
DAV: 112    -0.122283058088E+04    0.66692E-03   -0.44918E-02   744   0.169E-02    0.342E+00
DAV: 113    -0.122283193143E+04   -0.13505E-02   -0.54078E-02   744   0.180E-02    0.350E+00
DAV: 114    -0.122283074943E+04    0.11820E-02   -0.65134E-02   756   0.190E-02    0.340E+00
DAV: 115    -0.122283235146E+04   -0.16020E-02   -0.77945E-02   804   0.208E-02    0.349E+00
DAV: 116    -0.122283623416E+04   -0.38827E-02   -0.93926E-02   840   0.247E-02    0.346E+00
DAV: 117    -0.122283838701E+04   -0.21528E-02   -0.11156E-01   816   0.253E-02    0.355E+00
DAV: 118    -0.122284055093E+04   -0.21639E-02   -0.13346E-01   840   0.288E-02    0.350E+00
DAV: 119    -0.122284296688E+04   -0.24160E-02   -0.15778E-01   840   0.296E-02    0.361E+00
DAV: 120    -0.122284475681E+04   -0.17899E-02   -0.18735E-01   888   0.336E-02    0.353E+00
DAV: 121    -0.122286388098E+04   -0.19124E-01   -0.22012E-01   948   0.515E-02    0.389E+00
DAV: 122    -0.122285355586E+04    0.10325E-01   -0.25281E-01   996   0.398E-02    0.355E+00
DAV: 123    -0.122285972445E+04   -0.61686E-02   -0.29576E-01   936   0.436E-02    0.383E+00
DAV: 124    -0.122286269145E+04   -0.29670E-02   -0.34205E-01   948   0.471E-02    0.370E+00
DAV: 125    -0.122286185486E+04    0.83659E-03   -0.40040E-01   984   0.495E-02    0.382E+00
DAV: 126    -0.122285496262E+04    0.68922E-02   -0.45037E-01  1308   0.946E-02    0.357E+00
DAV: 127    -0.122284229251E+04    0.12670E-01   -0.49257E-01  1380   0.804E-02    0.340E+00
DAV: 128    -0.122282383538E+04    0.18457E-01   -0.50221E-01  1404   0.860E-02    0.281E+00
DAV: 129    -0.122281172150E+04    0.12114E-01   -0.49524E-01  1524   0.958E-02    0.249E+00
DAV: 130    -0.122280248319E+04    0.92383E-02   -0.43367E-01  1368   0.625E-02    0.219E+00
DAV: 131    -0.122280854493E+04   -0.60617E-02   -0.42012E-01  1548   0.158E-01    0.247E+00
DAV: 132    -0.122280406005E+04    0.44849E-02   -0.32103E-01  1428   0.125E-01    0.227E+00
DAV: 133    -0.122279496424E+04    0.90958E-02   -0.32992E-01  1236   0.795E-02    0.136E+00
DAV: 134    -0.122279197784E+04    0.29864E-02   -0.23145E-01  1224   0.604E-02    0.155E+00
DAV: 135    -0.122279408420E+04   -0.21064E-02   -0.17644E-01  1224   0.478E-02    0.155E+00
DAV: 136    -0.122279542696E+04   -0.13428E-02   -0.14416E-01  1200   0.424E-02    0.155E+00
DAV: 137    -0.122279201153E+04    0.34154E-02   -0.11574E-01  1044   0.393E-02    0.136E+00
DAV: 138    -0.122279071124E+04    0.13003E-02   -0.96944E-02   936   0.285E-02    0.122E+00
DAV: 139    -0.122278954287E+04    0.11684E-02   -0.72026E-02   888   0.269E-02    0.115E+00
DAV: 140    -0.122278854967E+04    0.99321E-03   -0.54599E-02   936   0.240E-02    0.100E+00
DAV: 141    -0.122279952273E+04   -0.10973E-01   -0.42377E-02  1188   0.589E-02    0.211E+00
DAV: 142    -0.122279110603E+04    0.84167E-02   -0.27950E-02  1092   0.458E-02    0.820E-01
DAV: 143    -0.122279029752E+04    0.80851E-03   -0.18997E-02  1056   0.333E-02    0.114E+00
DAV: 144    -0.122278784958E+04    0.24479E-02   -0.97557E-03   972   0.246E-02    0.710E-01
DAV: 145    -0.122278749936E+04    0.35022E-03   -0.52672E-03   852   0.182E-02    0.754E-01
DAV: 146    -0.122278617602E+04    0.13233E-02   -0.25286E-03   936   0.161E-02    0.427E-01
DAV: 147    -0.122278607605E+04    0.99969E-04   -0.11195E-03   840   0.147E-02    0.478E-01
DAV: 148    -0.122278569374E+04    0.38232E-03   -0.57216E-04   684   0.915E-03    0.335E-01
DAV: 149    -0.122278564612E+04    0.47617E-04   -0.22667E-04   768   0.892E-03
   1 F= -.12532684E+04 E0= -.12532022E+04  d E =-.125327E+04
       N       E                     dE             d eps       ncg     rms          rms(c)
DAV:   1    -0.122299340126E+04   -0.20771E+00   -0.45071E+01  1236   0.549E+00    0.641E+00
DAV:   2    -0.122321350444E+04   -0.22010E+00   -0.27443E+00  1272   0.144E+00    0.425E+00
DAV:   3    -0.122326313587E+04   -0.49631E-01   -0.32130E-01  1584   0.567E-01    0.323E+00
DAV:   4    -0.122448513936E+04   -0.12220E+01   -0.87378E+00  1680   0.116E+00    0.178E+01
DAV:   5    -0.122342123852E+04    0.10639E+01   -0.18435E+00  1596   0.120E+00    0.204E+00
DAV:   6    -0.122340807213E+04    0.13166E-01   -0.62300E-01  1524   0.363E-01    0.370E+00
DAV:   7    -0.122339718084E+04    0.10891E-01   -0.26450E-02  1680   0.137E-01    0.240E+00
DAV:   8    -0.122337001317E+04    0.27168E-01   -0.17033E-02  1668   0.121E-01    0.303E+00
DAV:   9    -0.122334673127E+04    0.23282E-01   -0.16391E-02  1656   0.142E-01    0.244E+00
DAV:  10    -0.122332693820E+04    0.19793E-01   -0.12404E-02  1692   0.118E-01    0.271E+00
DAV:  11    -0.122331995315E+04    0.69850E-02   -0.50736E-03  1572   0.572E-02    0.253E+00
DAV:  12    -0.122331323006E+04    0.67231E-02   -0.39370E-03  1200   0.420E-02    0.267E+00
DAV:  13    -0.122331002625E+04    0.32038E-02   -0.24569E-03  1368   0.327E-02    0.265E+00
DAV:  14    -0.122330582043E+04    0.42058E-02   -0.30111E-03  1320   0.529E-02    0.286E+00
DAV:  15    -0.122330602540E+04   -0.20497E-03   -0.30562E-03  1440   0.564E-02    0.304E+00
DAV:  16    -0.122330663250E+04   -0.60711E-03   -0.13094E-03  1188   0.245E-02    0.305E+00
DAV:  17    -0.122332016138E+04   -0.13529E-01   -0.22319E-03  1284   0.584E-02    0.363E+00
DAV:  18    -0.122330402743E+04    0.16134E-01   -0.27538E-03  1248   0.640E-02    0.270E+00
DAV:  19    -0.122329418364E+04    0.98438E-02   -0.19630E-03   996   0.279E-02    0.285E+00
DAV:  20    -0.122327538286E+04    0.18801E-01   -0.79131E-03  1344   0.585E-02    0.163E+00
DAV:  21    -0.122325738040E+04    0.18002E-01   -0.50787E-03  1140   0.417E-02    0.147E+00
DAV:  22    -0.122325628282E+04    0.10976E-02   -0.66669E-04   804   0.127E-02    0.136E+00
DAV:  23    -0.122324958544E+04    0.66974E-02   -0.77526E-03   780   0.173E-02    0.102E+00
DAV:  24    -0.122323847301E+04    0.11112E-01   -0.20514E-03  1164   0.441E-02    0.798E-01
DAV:  25    -0.122322039915E+04    0.18074E-01   -0.63847E-03  1548   0.113E-01    0.601E-01
DAV:  26    -0.122321493876E+04    0.54604E-02   -0.39502E-03  1440   0.742E-02    0.773E-01
DAV:  27    -0.122321049555E+04    0.44432E-02   -0.17051E-03  1416   0.515E-02    0.595E-01
DAV:  28    -0.122321034237E+04    0.15318E-03   -0.68264E-04  1164   0.199E-02    0.652E-01
DAV:  29    -0.122320733795E+04    0.30044E-02   -0.65140E-04  1104   0.405E-02    0.522E-01
DAV:  30    -0.122320772677E+04   -0.38882E-03   -0.28662E-04   876   0.171E-02    0.546E-01
DAV:  31    -0.122320917277E+04   -0.14460E-02   -0.24645E-03  1476   0.797E-02    0.108E+00
DAV:  32    -0.122320709731E+04    0.20755E-02   -0.93337E-04  1248   0.221E-02    0.683E-01
DAV:  33    -0.122321935124E+04   -0.12254E-01   -0.11878E-03  1200   0.482E-02    0.221E+00
DAV:  34    -0.122321627893E+04    0.30723E-02   -0.96659E-04  1236   0.231E-02    0.169E+00
DAV:  35    -0.122320613885E+04    0.10140E-01   -0.21007E-03  1224   0.532E-02    0.395E-01
DAV:  36    -0.122320472513E+04    0.14137E-02   -0.11784E-03  1236   0.421E-02    0.156E-01
DAV:  37    -0.122320531085E+04   -0.58572E-03   -0.56958E-04  1008   0.225E-02    0.323E-01
DAV:  38    -0.122320619394E+04   -0.88309E-03   -0.14042E-04   816   0.149E-02    0.565E-01
DAV:  39    -0.122320609691E+04    0.97029E-04   -0.47821E-05   684   0.608E-03
   2 F= -.12537439E+04 E0= -.12536713E+04  d E =-.475480E+00
       N       E                     dE             d eps       ncg     rms          rms(c)
DAV:   1    -0.122320108549E+04    0.51084E-02   -0.92284E-01  1236   0.699E-01    0.909E-01
DAV:   2    -0.122324180779E+04   -0.40722E-01   -0.19948E-01  1464   0.411E-01    0.173E+00
DAV:   3    -0.122321243535E+04    0.29372E-01   -0.19483E-01  1656   0.325E-01    0.125E+00
DAV:   4    -0.122321321193E+04   -0.77657E-03   -0.17376E-02  1320   0.727E-02    0.102E+00
DAV:   5    -0.122321245330E+04    0.75863E-03   -0.67009E-03  1272   0.575E-02    0.864E-01
DAV:   6    -0.122322854147E+04   -0.16088E-01   -0.45174E-02  1632   0.176E-01    0.286E+00
DAV:   7    -0.122321113915E+04    0.17402E-01   -0.18705E-02  1608   0.114E-01    0.346E-01
DAV:   8    -0.122320576134E+04    0.53778E-02   -0.10482E-02  1236   0.447E-02    0.237E-01
DAV:   9    -0.122320542240E+04    0.33893E-03   -0.43392E-03   756   0.211E-02    0.188E-01
DAV:  10    -0.122320524793E+04    0.17448E-03   -0.26011E-03   744   0.149E-02    0.906E-02
DAV:  11    -0.122320521478E+04    0.33145E-04   -0.12850E-03   672   0.110E-02    0.881E-02
DAV:  12    -0.122320518423E+04    0.30548E-04   -0.65437E-04   624   0.827E-03
   3 F= -.12537513E+04 E0= -.12536876E+04  d E =-.482876E+00
       N       E                     dE             d eps       ncg     rms          rms(c)
DAV:   1    -0.122320497325E+04    0.24153E-03   -0.95968E-04  1056   0.211E-02    0.488E-02
DAV:   2    -0.122320507784E+04   -0.10459E-03   -0.14055E-03   648   0.104E-02    0.148E-01
DAV:   3    -0.122320504620E+04    0.31639E-04   -0.20451E-03   696   0.125E-02    0.107E-01
DAV:   4    -0.122320501624E+04    0.29961E-04   -0.97651E-04   684   0.105E-02
   4 F= -.12537513E+04 E0= -.12536863E+04  d E =-.482918E+00
       N       E                     dE             d eps       ncg     rms          rms(c)
DAV:   1    -0.122320493192E+04    0.11428E-03   -0.53248E-04   624   0.762E-03    0.460E-02
DAV:   2    -0.122320508689E+04   -0.15497E-03   -0.15131E-03   684   0.110E-02    0.174E-01
DAV:   3    -0.122320502967E+04    0.57224E-04   -0.19392E-03   696   0.161E-02    0.138E-01
DAV:   4    -0.122320494248E+04    0.87184E-04   -0.64620E-04   660   0.954E-03
   5 F= -.12537513E+04 E0= -.12536875E+04  d E =-.482902E+00
       N       E                     dE             d eps       ncg     rms          rms(c)
DAV:   1    -0.122320352228E+04    0.15074E-02   -0.14731E-01  1152   0.274E-01    0.144E-01
DAV:   2    -0.122320825991E+04   -0.47376E-02   -0.15946E-02  1608   0.104E-01    0.647E-01
DAV:   3    -0.122320394306E+04    0.43169E-02   -0.98314E-03  1308   0.702E-02    0.141E-01
DAV:   4    -0.122320393502E+04    0.80341E-05   -0.35859E-04   804   0.120E-02
   6 F= -.12537505E+04 E0= -.12536881E+04  d E =0.787106E-03
       N       E                     dE             d eps       ncg     rms          rms(c)
DAV:   1    -0.122320492361E+04   -0.98055E-03   -0.72503E-02  1152   0.187E-01    0.147E-01
DAV:   2    -0.122320852135E+04   -0.35977E-02   -0.78199E-03  1524   0.696E-02    0.912E-01
DAV:   3    -0.122320657047E+04    0.19509E-02   -0.85245E-03  1296   0.671E-02    0.388E-01
DAV:   4    -0.122320515128E+04    0.14192E-02   -0.11690E-03   876   0.242E-02    0.462E-02
DAV:   5    -0.122320511445E+04    0.36825E-04   -0.22713E-04   768   0.874E-03
   7 F= -.12537515E+04 E0= -.12536885E+04  d E =-.239091E-03
       N       E                     dE             d eps       ncg     rms          rms(c)
DAV:   1    -0.122320507852E+04    0.72760E-04   -0.33884E-04   720   0.106E-02    0.406E-02
DAV:   2    -0.122320517823E+04   -0.99707E-04   -0.72194E-04   624   0.613E-03
   8 F= -.12537516E+04 E0= -.12536884E+04  d E =-.295929E-03
       N       E                     dE             d eps       ncg     rms          rms(c)
DAV:   1    -0.122320513883E+04   -0.60312E-04   -0.74649E-02  1152   0.205E-01    0.153E-01
DAV:   2    -0.122321234577E+04   -0.72069E-02   -0.20375E-02  1632   0.105E-01    0.765E-01
DAV:   3    -0.122320537634E+04    0.69694E-02   -0.15328E-02  1392   0.942E-02    0.165E-01
DAV:   4    -0.122320535512E+04    0.21216E-04   -0.59064E-04   840   0.161E-02
   9 F= -.12537518E+04 E0= -.12536895E+04  d E =-.241784E-03
       N       E                     dE             d eps       ncg     rms          rms(c)
DAV:   1    -0.122320524349E+04    0.13285E-03   -0.37007E-04   756   0.148E-02    0.966E-02
DAV:   2    -0.122320765238E+04   -0.24089E-02   -0.45540E-03  1080   0.447E-02    0.608E-01
DAV:   3    -0.122320571203E+04    0.19403E-02   -0.55225E-03  1056   0.482E-02    0.228E-01
DAV:   4    -0.122320554390E+04    0.16813E-03   -0.69097E-04   708   0.150E-02    0.243E-01
DAV:   5    -0.122320526313E+04    0.28078E-03   -0.17578E-04   672   0.777E-03    0.660E-02
DAV:   6    -0.122320524578E+04    0.17349E-04   -0.10250E-04   672   0.807E-03
  10 F= -.12537517E+04 E0= -.12536885E+04  d E =-.130781E-03
       N       E                     dE             d eps       ncg     rms          rms(c)
DAV:   1    -0.122320523655E+04    0.26576E-04   -0.17431E-02  1152   0.972E-02    0.576E-02
DAV:   2    -0.122320542036E+04   -0.18380E-03   -0.78668E-04   960   0.255E-02    0.166E-01
DAV:   3    -0.122320533814E+04    0.82213E-04   -0.69542E-04   780   0.209E-02
  11 F= -.12537519E+04 E0= -.12536856E+04  d E =-.136651E-03
       N       E                     dE             d eps       ncg     rms          rms(c)
DAV:   1    -0.122320524813E+04    0.17222E-03   -0.15093E-02  1140   0.916E-02    0.871E-02
DAV:   2    -0.122320577620E+04   -0.52807E-03   -0.71713E-04   996   0.231E-02    0.344E-01
DAV:   3    -0.122320597118E+04   -0.19499E-03   -0.24338E-03  1056   0.344E-02    0.315E-01
DAV:   4    -0.122320535472E+04    0.61646E-03   -0.93441E-04   780   0.194E-02    0.108E-01
DAV:   5    -0.122320537389E+04   -0.19174E-04   -0.12266E-04   648   0.677E-03
  12 F= -.12537519E+04 E0= -.12536885E+04  d E =-.214356E-03
       N       E                     dE             d eps       ncg     rms          rms(c)
DAV:   1    -0.122320541375E+04   -0.59027E-04   -0.82557E-03  1128   0.715E-02    0.410E-02
DAV:   2    -0.122320575644E+04   -0.34269E-03   -0.87262E-04   888   0.239E-02    0.257E-01
DAV:   3    -0.122320543503E+04    0.32141E-03   -0.59005E-04   744   0.171E-02    0.373E-02
DAV:   4    -0.122320544882E+04   -0.13792E-04   -0.91877E-05   624   0.642E-03
  13 F= -.12537520E+04 E0= -.12536888E+04  d E =-.978499E-04
       N       E                     dE             d eps       ncg     rms          rms(c)
DAV:   1    -0.122320546204E+04   -0.27019E-04   -0.21807E-02  1152   0.115E-01    0.600E-02
DAV:   2    -0.122320551135E+04   -0.49302E-04   -0.78313E-04  1260   0.242E-02
  14 F= -.12537521E+04 E0= -.12536886E+04  d E =-.198385E-03
       N       E                     dE             d eps       ncg     rms          rms(c)
DAV:   1    -0.122320581200E+04   -0.34996E-03   -0.87050E-03  1140   0.733E-02    0.167E-01
DAV:   2    -0.122321626748E+04   -0.10455E-01   -0.32431E-02  1488   0.122E-01    0.903E-01
DAV:   3    -0.122320625056E+04    0.10017E-01   -0.23952E-02  1392   0.108E-01    0.250E-01
DAV:   4    -0.122320600196E+04    0.24861E-03   -0.18137E-03   864   0.173E-02    0.220E-01
DAV:   5    -0.122320579929E+04    0.20267E-03   -0.15638E-03   732   0.148E-02    0.114E-01
DAV:   6    -0.122320574876E+04    0.50524E-04   -0.93498E-04   636   0.108E-02
  15 F= -.12537524E+04 E0= -.12536888E+04  d E =-.233010E-03
       N       E                     dE             d eps       ncg     rms          rms(c)
DAV:   1    -0.122320573795E+04    0.61334E-04   -0.37009E-02  1152   0.152E-01    0.722E-02
DAV:   2    -0.122320621517E+04   -0.47722E-03   -0.22328E-03  1440   0.355E-02    0.294E-01
DAV:   3    -0.122320600886E+04    0.20632E-03   -0.19024E-03  1128   0.282E-02    0.190E-01
DAV:   4    -0.122320579956E+04    0.20930E-03   -0.31140E-04   708   0.132E-02    0.548E-02
DAV:   5    -0.122320579910E+04    0.45302E-06   -0.16860E-04   624   0.496E-03
  16 F= -.12537524E+04 E0= -.12536886E+04  d E =-.274727E-03
       N       E                     dE             d eps       ncg     rms          rms(c)
DAV:   1    -0.122320579290E+04    0.66574E-05   -0.17512E-03  1068   0.318E-02    0.483E-02
DAV:   2    -0.122320648631E+04   -0.69341E-03   -0.18040E-03   912   0.256E-02    0.392E-01
DAV:   3    -0.122320593859E+04    0.54772E-03   -0.19023E-03   876   0.271E-02    0.129E-01
DAV:   4    -0.122320581512E+04    0.12347E-03   -0.24659E-04   624   0.660E-03    0.561E-02
DAV:   5    -0.122320580241E+04    0.12712E-04   -0.22232E-04   624   0.442E-03
  17 F= -.12537524E+04 E0= -.12536886E+04  d E =-.279665E-03
       N       E                     dE             d eps       ncg     rms          rms(c)
DAV:   1    -0.122320595982E+04   -0.14470E-03   -0.12031E-02  1140   0.833E-02    0.544E-02
DAV:   2    -0.122320625309E+04   -0.29326E-03   -0.11923E-03   900   0.244E-02    0.232E-01
DAV:   3    -0.122320617327E+04    0.79820E-04   -0.15199E-03   804   0.229E-02    0.189E-01
DAV:   4    -0.122320603626E+04    0.13701E-03   -0.44063E-04   696   0.124E-02    0.977E-02
DAV:   5    -0.122320599318E+04    0.43075E-04   -0.72915E-05   624   0.483E-03
  18 F= -.12537526E+04 E0= -.12536887E+04  d E =-.207363E-03
       N       E                     dE             d eps       ncg     rms          rms(c)
DAV:   1    -0.122320610166E+04   -0.65404E-04   -0.10714E-01  1152   0.250E-01    0.116E-01
DAV:   2    -0.122320780503E+04   -0.17034E-02   -0.58909E-03  1656   0.709E-02    0.451E-01
DAV:   3    -0.122320640990E+04    0.13951E-02   -0.42441E-03  1176   0.457E-02    0.179E-01
DAV:   4    -0.122320634184E+04    0.68064E-04   -0.33935E-04   720   0.125E-02
  19 F= -.12537530E+04 E0= -.12536902E+04  d E =-.607600E-03
       N       E                     dE             d eps       ncg     rms          rms(c)
DAV:   1    -0.122320646214E+04   -0.52234E-04   -0.31236E-02  1152   0.140E-01    0.117E-01
DAV:   2    -0.122320712169E+04   -0.65956E-03   -0.21563E-03  1236   0.320E-02    0.346E-01
DAV:   3    -0.122320720493E+04   -0.83241E-04   -0.35310E-03  1068   0.389E-02    0.304E-01
DAV:   4    -0.122320646204E+04    0.74289E-03   -0.12753E-03   828   0.244E-02    0.706E-02
DAV:   5    -0.122320645907E+04    0.29667E-05   -0.68741E-04   648   0.616E-03
  20 F= -.12537533E+04 E0= -.12536893E+04  d E =-.228183E-03
       N       E                     dE             d eps       ncg     rms          rms(c)
DAV:   1    -0.122320635675E+04    0.10529E-03   -0.22168E-02  1152   0.117E-01    0.604E-02
DAV:   2    -0.122320648078E+04   -0.12403E-03   -0.15743E-03  1164   0.224E-02    0.143E-01
DAV:   3    -0.122320647581E+04    0.49707E-05   -0.16910E-03   720   0.146E-02    0.126E-01
DAV:   4    -0.122320645335E+04    0.22461E-04   -0.83597E-04   720   0.142E-02
  21 F= -.12537534E+04 E0= -.12536877E+04  d E =-.316446E-03
       N       E                     dE             d eps       ncg     rms          rms(c)
DAV:   1    -0.122320648109E+04   -0.52838E-05   -0.21195E-02  1152   0.116E-01    0.725E-02
DAV:   2    -0.122320674184E+04   -0.26075E-03   -0.89461E-04  1176   0.232E-02    0.234E-01
DAV:   3    -0.122320685574E+04   -0.11389E-03   -0.15241E-03   912   0.242E-02    0.233E-01
DAV:   4    -0.122320656734E+04    0.28840E-03   -0.67057E-04   696   0.169E-02    0.104E-01
DAV:   5    -0.122320655071E+04    0.16622E-04   -0.63504E-05   624   0.561E-03
  22 F= -.12537535E+04 E0= -.12536901E+04  d E =-.176607E-03
       N       E                     dE             d eps       ncg     rms          rms(c)
DAV:   1    -0.122320629117E+04    0.27617E-03   -0.10790E-01  1152   0.263E-01    0.111E-01
DAV:   2    -0.122320658123E+04   -0.29006E-03   -0.27603E-03  1608   0.514E-02    0.163E-01
DAV:   3    -0.122320719242E+04   -0.61119E-03   -0.17413E-03  1116   0.306E-02    0.420E-01
DAV:   4    -0.122320667140E+04    0.52102E-03   -0.16060E-03  1068   0.284E-02    0.172E-01
DAV:   5    -0.122320651612E+04    0.15528E-03   -0.31463E-04   852   0.137E-02    0.111E-01
DAV:   6    -0.122320645542E+04    0.60696E-04   -0.79563E-05   660   0.753E-03
  23 F= -.12537536E+04 E0= -.12536892E+04  d E =-.262303E-03
       N       E                     dE             d eps       ncg     rms          rms(c)
DAV:   1    -0.122320660141E+04   -0.85293E-04   -0.18864E-02  1152   0.110E-01    0.874E-02
DAV:   2    -0.122320808304E+04   -0.14816E-02   -0.33510E-03  1308   0.470E-02    0.470E-01
DAV:   3    -0.122320699420E+04    0.10888E-02   -0.40433E-03  1056   0.438E-02    0.241E-01
DAV:   4    -0.122320678811E+04    0.20609E-03   -0.44838E-04   696   0.138E-02    0.157E-01
DAV:   5    -0.122320667197E+04    0.11614E-03   -0.11556E-04   672   0.684E-03    0.786E-02
DAV:   6    -0.122320663286E+04    0.39107E-04   -0.10301E-04   672   0.970E-03
  24 F= -.12537539E+04 E0= -.12536895E+04  d E =-.243964E-03
       N       E                     dE             d eps       ncg     rms          rms(c)
DAV:   1    -0.122320647725E+04    0.19472E-03   -0.17255E-01  1152   0.332E-01    0.153E-01
DAV:   2    -0.122320855821E+04   -0.20810E-02   -0.84233E-03  1620   0.870E-02    0.486E-01
DAV:   3    -0.122320732228E+04    0.12359E-02   -0.68189E-03  1260   0.587E-02    0.352E-01
DAV:   4    -0.122320697958E+04    0.34271E-03   -0.88840E-04   828   0.233E-02    0.189E-01
DAV:   5    -0.122320685417E+04    0.12540E-03   -0.22363E-04   696   0.110E-02    0.128E-01
DAV:   6    -0.122320681441E+04    0.39767E-04   -0.38837E-04   828   0.177E-02
  25 F= -.12537542E+04 E0= -.12536889E+04  d E =-.627911E-03
       N       E                     dE             d eps       ncg     rms          rms(c)
DAV:   1    -0.122320694047E+04   -0.86295E-04   -0.23460E-02  1152   0.124E-01    0.107E-01
DAV:   2    -0.122321032346E+04   -0.33830E-02   -0.99713E-03  1548   0.744E-02    0.641E-01
DAV:   3    -0.122320727589E+04    0.30476E-02   -0.88901E-03  1212   0.593E-02    0.166E-01
DAV:   4    -0.122320715919E+04    0.11670E-03   -0.11261E-03   720   0.137E-02    0.179E-01
DAV:   5    -0.122320703090E+04    0.12829E-03   -0.91858E-04   696   0.128E-02    0.895E-02
DAV:   6    -0.122320698300E+04    0.47895E-04   -0.58493E-04   648   0.996E-03
  26 F= -.12537545E+04 E0= -.12536905E+04  d E =-.286495E-03
       N       E                     dE             d eps       ncg     rms          rms(c)
DAV:   1    -0.122320689934E+04    0.13156E-03   -0.98303E-02  1152   0.252E-01    0.158E-01
DAV:   2    -0.122321243627E+04   -0.55369E-02   -0.18102E-02  1644   0.108E-01    0.748E-01
DAV:   3    -0.122320737156E+04    0.50647E-02   -0.14974E-02  1368   0.788E-02    0.182E-01
DAV:   4    -0.122320732895E+04    0.42608E-04   -0.20620E-03   804   0.168E-02    0.232E-01
DAV:   5    -0.122320717041E+04    0.15854E-03   -0.19105E-03   732   0.167E-02    0.131E-01
DAV:   6    -0.122320707644E+04    0.93972E-04   -0.14558E-03   696   0.145E-02    0.131E-01
DAV:   7    -0.122320704525E+04    0.31188E-04   -0.16026E-03   648   0.101E-02    0.105E-01
DAV:   8    -0.122320700631E+04    0.38941E-04   -0.91786E-04   636   0.100E-02
  27 F= -.12537548E+04 E0= -.12536911E+04  d E =-.552623E-03
       N       E                     dE             d eps       ncg     rms          rms(c)
DAV:   1    -0.122320695821E+04    0.87037E-04   -0.28516E-03  1092   0.404E-02    0.635E-02
DAV:   2    -0.122320800206E+04   -0.10438E-02   -0.38431E-03   984   0.323E-02    0.402E-01
DAV:   3    -0.122320714124E+04    0.86083E-03   -0.41770E-03   972   0.350E-02    0.154E-01
DAV:   4    -0.122320702492E+04    0.11632E-03   -0.70729E-04   672   0.961E-03    0.112E-01
DAV:   5    -0.122320696643E+04    0.58490E-04   -0.38287E-04   636   0.580E-03
  28 F= -.12537548E+04 E0= -.12536911E+04  d E =-.551040E-03
       N       E                     dE             d eps       ncg     rms          rms(c)
DAV:   1    -0.122320699411E+04    0.30814E-04   -0.22948E-02  1152   0.124E-01    0.735E-02
DAV:   2    -0.122320715458E+04   -0.16047E-03   -0.15474E-03  1332   0.259E-02    0.161E-01
DAV:   3    -0.122320718747E+04   -0.32897E-04   -0.18282E-03   792   0.177E-02    0.174E-01
DAV:   4    -0.122320708017E+04    0.10731E-03   -0.95709E-04   720   0.167E-02    0.105E-01
DAV:   5    -0.122320701813E+04    0.62033E-04   -0.31125E-04   636   0.720E-03
  29 F= -.12537549E+04 E0= -.12536908E+04  d E =-.149193E-03
       N       E                     dE             d eps       ncg     rms          rms(c)
DAV:   1    -0.122320658029E+04    0.49988E-03   -0.18986E-01  1152   0.359E-01    0.160E-01
DAV:   2    -0.122320755302E+04   -0.97273E-03   -0.68774E-03  1656   0.768E-02    0.340E-01
DAV:   3    -0.122320836037E+04   -0.80734E-03   -0.72504E-03  1260   0.531E-02    0.615E-01
DAV:   4    -0.122320727975E+04    0.10806E-02   -0.28237E-03  1092   0.368E-02    0.220E-01
DAV:   5    -0.122320697817E+04    0.30158E-03   -0.23404E-04   804   0.121E-02    0.149E-01
DAV:   6    -0.122320687901E+04    0.99162E-04   -0.19235E-04   744   0.116E-02
  30 F= -.12537551E+04 E0= -.12536913E+04  d E =-.293074E-03
       N       E                     dE             d eps       ncg     rms          rms(c)
DAV:   1    -0.122320691936E+04    0.58812E-04   -0.82747E-03  1128   0.762E-02    0.109E-01
DAV:   2    -0.122320942983E+04   -0.25105E-02   -0.50866E-03  1236   0.521E-02    0.607E-01
DAV:   3    -0.122320758976E+04    0.18401E-02   -0.70103E-03  1188   0.555E-02    0.315E-01
DAV:   4    -0.122320722998E+04    0.35978E-03   -0.93542E-04   804   0.173E-02    0.220E-01
DAV:   5    -0.122320698504E+04    0.24494E-03   -0.20161E-04   684   0.875E-03    0.940E-02
DAV:   6    -0.122320692739E+04    0.57647E-04   -0.10895E-04   660   0.943E-03
  31 F= -.12537552E+04 E0= -.12536915E+04  d E =-.996868E-04
       N       E                     dE             d eps       ncg     rms          rms(c)
DAV:   1    -0.122320682641E+04    0.15863E-03   -0.77379E-02  1152   0.229E-01    0.114E-01
DAV:   2    -0.122320824077E+04   -0.14144E-02   -0.40780E-03  1572   0.610E-02    0.456E-01
DAV:   3    -0.122320740629E+04    0.83449E-03   -0.40300E-03  1164   0.446E-02    0.299E-01
DAV:   4    -0.122320717277E+04    0.23352E-03   -0.83707E-04   888   0.207E-02    0.195E-01
DAV:   5    -0.122320702121E+04    0.15156E-03   -0.14995E-04   744   0.875E-03    0.121E-01
DAV:   6    -0.122320694225E+04    0.78960E-04   -0.20850E-04   696   0.133E-02
  32 F= -.12537554E+04 E0= -.12536908E+04  d E =-.269124E-03
       N       E                     dE             d eps       ncg     rms          rms(c)
DAV:   1    -0.122320631786E+04    0.70335E-03   -0.30900E-01  1152   0.458E-01    0.209E-01
DAV:   2    -0.122320977109E+04   -0.34532E-02   -0.13632E-02  1668   0.114E-01    0.627E-01
DAV:   3    -0.122320828228E+04    0.14888E-02   -0.12808E-02  1416   0.795E-02    0.602E-01
DAV:   4    -0.122320755422E+04    0.72805E-03   -0.28747E-03  1152   0.387E-02    0.319E-01
DAV:   5    -0.122320705678E+04    0.49744E-03   -0.57346E-04   924   0.160E-02    0.217E-01
DAV:   6    -0.122320681345E+04    0.24333E-03   -0.53856E-04   864   0.193E-02    0.109E-01
DAV:   7    -0.122320687116E+04   -0.57712E-04   -0.17758E-04   756   0.120E-02
  33 F= -.12537556E+04 E0= -.12536894E+04  d E =-.510368E-03
       N       E                     dE             d eps       ncg     rms          rms(c)
DAV:   1    -0.122320685301E+04   -0.39561E-04   -0.58850E-02  1152   0.198E-01    0.107E-01
DAV:   2    -0.122320916747E+04   -0.23145E-02   -0.72099E-03  1596   0.738E-02    0.513E-01
DAV:   3    -0.122320706381E+04    0.21037E-02   -0.58690E-03  1248   0.531E-02    0.166E-01
DAV:   4    -0.122320695339E+04    0.11042E-03   -0.43617E-04   708   0.128E-02    0.985E-02
DAV:   5    -0.122320694197E+04    0.11419E-04   -0.46409E-04   624   0.815E-03
  34 F= -.12537558E+04 E0= -.12536917E+04  d E =-.244147E-03
       N       E                     dE             d eps       ncg     rms          rms(c)
DAV:   1    -0.122320664181E+04    0.31158E-03   -0.21979E-01  1152   0.381E-01    0.200E-01
DAV:   2    -0.122321214885E+04   -0.55070E-02   -0.19498E-02  1656   0.122E-01    0.714E-01
DAV:   3    -0.122320734253E+04    0.48063E-02   -0.17716E-02  1464   0.893E-02    0.307E-01
DAV:   4    -0.122320723971E+04    0.10282E-03   -0.14116E-03   912   0.222E-02    0.240E-01
DAV:   5    -0.122320710536E+04    0.13435E-03   -0.10093E-03   720   0.142E-02    0.183E-01
DAV:   6    -0.122320702288E+04    0.82475E-04   -0.14644E-03   888   0.212E-02    0.155E-01
DAV:   7    -0.122320699062E+04    0.32264E-04   -0.18446E-03   732   0.132E-02    0.146E-01
DAV:   8    -0.122320689125E+04    0.99367E-04   -0.12128E-03   648   0.111E-02    0.588E-02
DAV:   9    -0.122320691897E+04   -0.27720E-04   -0.73050E-04   624   0.820E-03
  35 F= -.12537562E+04 E0= -.12536911E+04  d E =-.557993E-03
       N       E                     dE             d eps       ncg     rms          rms(c)
DAV:   1    -0.122320701079E+04   -0.11955E-03   -0.22276E-02  1152   0.124E-01    0.686E-02
DAV:   2    -0.122320742846E+04   -0.41767E-03   -0.23663E-03  1392   0.348E-02    0.254E-01
DAV:   3    -0.122320726680E+04    0.16166E-03   -0.25283E-03   960   0.273E-02    0.202E-01
DAV:   4    -0.122320711827E+04    0.14853E-03   -0.59839E-04   720   0.152E-02    0.101E-01
DAV:   5    -0.122320708586E+04    0.32408E-04   -0.18695E-04   624   0.511E-03
  36 F= -.12537564E+04 E0= -.12536927E+04  d E =-.289694E-03
       N       E                     dE             d eps       ncg     rms          rms(c)
DAV:   1    -0.122320691403E+04    0.20424E-03   -0.72343E-02  1152   0.225E-01    0.112E-01
DAV:   2    -0.122320727527E+04   -0.36124E-03   -0.25237E-03  1620   0.475E-02    0.203E-01
DAV:   3    -0.122320788447E+04   -0.60920E-03   -0.30194E-03  1176   0.373E-02    0.453E-01
DAV:   4    -0.122320716963E+04    0.71484E-03   -0.14252E-03  1008   0.281E-02    0.144E-01
DAV:   5    -0.122320705591E+04    0.11371E-03   -0.10250E-04   708   0.827E-03    0.810E-02
DAV:   6    -0.122320703124E+04    0.24676E-04   -0.10319E-04   672   0.701E-03
  37 F= -.12537566E+04 E0= -.12536927E+04  d E =-.459303E-03
       N       E                     dE             d eps       ncg     rms          rms(c)
DAV:   1    -0.122320701709E+04    0.38825E-04   -0.23803E-02  1152   0.132E-01    0.609E-02
DAV:   2    -0.122320726454E+04   -0.24745E-03   -0.10372E-03  1452   0.313E-02    0.194E-01
DAV:   3    -0.122320718540E+04    0.79142E-04   -0.90902E-04  1020   0.218E-02
  38 F= -.12537569E+04 E0= -.12536901E+04  d E =-.284707E-03
       N       E                     dE             d eps       ncg     rms          rms(c)
DAV:   1    -0.122320703601E+04    0.22853E-03   -0.12809E-02  1164   0.975E-02    0.101E-01
DAV:   2    -0.122321114874E+04   -0.41127E-02   -0.48617E-03  1380   0.519E-02    0.111E+00
DAV:   3    -0.122320807322E+04    0.30755E-02   -0.56303E-03  1212   0.522E-02    0.254E-01
DAV:   4    -0.122320747478E+04    0.59844E-03   -0.63343E-04   912   0.168E-02    0.263E-01
DAV:   5    -0.122320713166E+04    0.34312E-03   -0.30030E-04   744   0.119E-02    0.677E-02
DAV:   6    -0.122320711910E+04    0.12564E-04   -0.18230E-04   660   0.747E-03
  39 F= -.12537569E+04 E0= -.12536923E+04  d E =-.313105E-03
       N       E                     dE             d eps       ncg     rms          rms(c)
DAV:   1    -0.122320700378E+04    0.12788E-03   -0.26407E-02  1152   0.136E-01    0.676E-02
DAV:   2    -0.122320747402E+04   -0.47024E-03   -0.13638E-03  1392   0.335E-02    0.261E-01
DAV:   3    -0.122320718183E+04    0.29219E-03   -0.14044E-03   984   0.277E-02    0.176E-01
DAV:   4    -0.122320704593E+04    0.13590E-03   -0.28085E-04   708   0.139E-02    0.699E-02
DAV:   5    -0.122320702302E+04    0.22917E-04   -0.45424E-05   600   0.689E-03
  40 F= -.12537570E+04 E0= -.12536925E+04  d E =-.111587E-03
       N       E                     dE             d eps       ncg     rms          rms(c)
DAV:   1    -0.122320670668E+04    0.33925E-03   -0.63142E-02  1152   0.210E-01    0.982E-02
DAV:   2    -0.122320748760E+04   -0.78092E-03   -0.40819E-03  1572   0.521E-02    0.334E-01
DAV:   3    -0.122320723604E+04    0.25156E-03   -0.43413E-03  1128   0.382E-02    0.305E-01
DAV:   4    -0.122320689633E+04    0.33971E-03   -0.92940E-04   816   0.197E-02    0.123E-01
DAV:   5    -0.122320683622E+04    0.60114E-04   -0.22538E-04   672   0.733E-03
  41 F= -.12537572E+04 E0= -.12536933E+04  d E =-.246678E-03
       N       E                     dE             d eps       ncg     rms          rms(c)
DAV:   1    -0.122320679180E+04    0.10453E-03   -0.14440E-02  1152   0.101E-01    0.579E-02
DAV:   2    -0.122320694140E+04   -0.14960E-03   -0.92714E-04   972   0.218E-02    0.161E-01
DAV:   3    -0.122320690903E+04    0.32368E-04   -0.10624E-03   768   0.191E-02    0.145E-01
DAV:   4    -0.122320681848E+04    0.90544E-04   -0.41920E-04   696   0.131E-02
  42 F= -.12537573E+04 E0= -.12536942E+04  d E =-.128903E-03
       N       E                     dE             d eps       ncg     rms          rms(c)
DAV:   1    -0.122320648757E+04    0.42146E-03   -0.13055E-01  1152   0.303E-01    0.124E-01
DAV:   2    -0.122320677951E+04   -0.29194E-03   -0.31721E-03  1584   0.592E-02    0.153E-01
DAV:   3    -0.122320756661E+04   -0.78710E-03   -0.27288E-03  1080   0.358E-02    0.355E-01
DAV:   4    -0.122320671257E+04    0.85404E-03   -0.18573E-03   984   0.325E-02    0.110E-01
DAV:   5    -0.122320667633E+04    0.36250E-04   -0.15325E-04   660   0.801E-03
  43 F= -.12537576E+04 E0= -.12536944E+04  d E =-.427500E-03
       N       E                     dE             d eps       ncg     rms          rms(c)
DAV:   1    -0.122320490295E+04    0.18096E-02   -0.52202E-01  1152   0.607E-01    0.271E-01
DAV:   2    -0.122320695177E+04   -0.20488E-02   -0.21011E-02  1620   0.118E-01    0.532E-01
DAV:   3    -0.122320900531E+04   -0.20535E-02   -0.22219E-02  1416   0.759E-02    0.600E-01
DAV:   4    -0.122320589927E+04    0.31060E-02   -0.12098E-02  1296   0.663E-02    0.263E-01
DAV:   5    -0.122320569906E+04    0.20021E-03   -0.27956E-03  1056   0.181E-02    0.201E-01
DAV:   6    -0.122320567795E+04    0.21103E-04   -0.28466E-03   816   0.167E-02    0.182E-01
DAV:   7    -0.122320583545E+04   -0.15750E-03   -0.37273E-03   900   0.257E-02    0.258E-01
DAV:   8    -0.122320558044E+04    0.25502E-03   -0.29009E-03   828   0.181E-02    0.986E-02
DAV:   9    -0.122320556947E+04    0.10969E-04   -0.21604E-03   624   0.874E-03    0.119E-01
DAV:  10    -0.122320551262E+04    0.56850E-04   -0.13689E-03   636   0.737E-03    0.546E-02
DAV:  11    -0.122320551495E+04   -0.23338E-05   -0.68850E-04   624   0.536E-03
  44 F= -.12537573E+04 E0= -.12536931E+04  d E =-.151372E-03
       N       E                     dE             d eps       ncg     rms          rms(c)
DAV:   1    -0.122320607940E+04   -0.56678E-03   -0.22647E-01  1152   0.401E-01    0.167E-01
DAV:   2    -0.122320699514E+04   -0.91574E-03   -0.90767E-03  1596   0.798E-02    0.321E-01
DAV:   3    -0.122320814299E+04   -0.11479E-02   -0.92129E-03  1260   0.494E-02    0.656E-01
DAV:   4    -0.122320690953E+04    0.12335E-02   -0.39242E-03  1032   0.428E-02    0.246E-01
DAV:   5    -0.122320652376E+04    0.38577E-03   -0.46424E-04   744   0.136E-02    0.141E-01
DAV:   6    -0.122320643236E+04    0.91395E-04   -0.43893E-04   684   0.112E-02
  45 F= -.12537577E+04 E0= -.12536942E+04  d E =-.487237E-03
       N       E                     dE             d eps       ncg     rms          rms(c)
DAV:   1    -0.122320645758E+04    0.66178E-04   -0.27821E-02  1152   0.138E-01    0.101E-01
DAV:   2    -0.122320755099E+04   -0.10934E-02   -0.23716E-03  1536   0.430E-02    0.425E-01
DAV:   3    -0.122320721959E+04    0.33140E-03   -0.38076E-03  1080   0.422E-02    0.382E-01
DAV:   4    -0.122320674794E+04    0.47164E-03   -0.10982E-03   840   0.220E-02    0.181E-01
DAV:   5    -0.122320656770E+04    0.18025E-03   -0.14894E-04   684   0.830E-03    0.994E-02
DAV:   6    -0.122320651555E+04    0.52152E-04   -0.12176E-04   672   0.848E-03
  46 F= -.12537579E+04 E0= -.12536943E+04  d E =-.254312E-03
       N       E                     dE             d eps       ncg     rms          rms(c)
DAV:   1    -0.122320609398E+04    0.47371E-03   -0.24009E-01  1152   0.407E-01    0.177E-01
DAV:   2    -0.122320708133E+04   -0.98735E-03   -0.79455E-03  1656   0.809E-02    0.373E-01
DAV:   3    -0.122320825707E+04   -0.11757E-02   -0.81345E-03  1272   0.577E-02    0.475E-01
DAV:   4    -0.122320654202E+04    0.17150E-02   -0.32714E-03  1080   0.432E-02    0.140E-01
DAV:   5    -0.122320650445E+04    0.37570E-04   -0.23969E-04   744   0.107E-02
  47 F= -.12537584E+04 E0= -.12536954E+04  d E =-.757466E-03
       N       E                     dE             d eps       ncg     rms          rms(c)
DAV:   1    -0.122320350190E+04    0.30401E-02   -0.95879E-01  1152   0.813E-01    0.342E-01
DAV:   2    -0.122321047502E+04   -0.69731E-02   -0.29149E-02  1608   0.173E-01    0.133E+00
DAV:   3    -0.122320861543E+04    0.18596E-02   -0.19381E-02  1632   0.101E-01    0.604E-01
DAV:   4    -0.122320562301E+04    0.29924E-02   -0.25869E-03  1344   0.410E-02    0.357E-01
DAV:   5    -0.122320522837E+04    0.39464E-03   -0.89216E-04  1140   0.208E-02    0.287E-01
DAV:   6    -0.122320570230E+04   -0.47393E-03   -0.25349E-03  1368   0.354E-02    0.451E-01
DAV:   7    -0.122320504186E+04    0.66044E-03   -0.15046E-03  1080   0.231E-02    0.144E-01
DAV:   8    -0.122320487016E+04    0.17170E-03   -0.10726E-03   744   0.149E-02    0.146E-01
DAV:   9    -0.122320476456E+04    0.10559E-03   -0.72985E-04   708   0.100E-02    0.600E-02
DAV:  10    -0.122320474430E+04    0.20260E-04   -0.41628E-04   696   0.712E-03
  48 F= -.12537577E+04 E0= -.12536933E+04  d E =-.298161E-04
       N       E                     dE             d eps       ncg     rms          rms(c)
DAV:   1    -0.122320546429E+04   -0.69973E-03   -0.50378E-01  1152   0.587E-01    0.258E-01
DAV:   2    -0.122320832023E+04   -0.28559E-02   -0.18692E-02  1620   0.126E-01    0.549E-01
DAV:   3    -0.122321070205E+04   -0.23818E-02   -0.19964E-02  1428   0.898E-02    0.115E+00
DAV:   4    -0.122320784668E+04    0.28554E-02   -0.69587E-03  1260   0.642E-02    0.379E-01
DAV:   5    -0.122320670117E+04    0.11455E-02   -0.98795E-04  1044   0.209E-02    0.265E-01
DAV:   6    -0.122320632741E+04    0.37376E-03   -0.34586E-04   720   0.162E-02    0.146E-01
DAV:   7    -0.122320639448E+04   -0.67068E-04   -0.50129E-04   780   0.176E-02
  49 F= -.12537586E+04 E0= -.12536918E+04  d E =-.932362E-03
       N       E                     dE             d eps       ncg     rms          rms(c)
DAV:   1    -0.122320634317E+04   -0.15760E-04   -0.11437E-02  1152   0.894E-02    0.904E-02
DAV:   2    -0.122320886094E+04   -0.25178E-02   -0.68279E-03  1296   0.623E-02    0.539E-01
DAV:   3    -0.122320638828E+04    0.24727E-02   -0.61142E-03  1176   0.546E-02    0.133E-01
DAV:   4    -0.122320629438E+04    0.93901E-04   -0.28789E-04   684   0.104E-02
  50 F= -.12537584E+04 E0= -.12536953E+04  d E =-.720428E-03
       N       E                     dE             d eps       ncg     rms          rms(c)
DAV:   1    -0.122320634477E+04    0.43517E-04   -0.80954E-02  1152   0.234E-01    0.126E-01
DAV:   2    -0.122320672927E+04   -0.38450E-03   -0.35733E-03  1620   0.466E-02    0.224E-01
DAV:   3    -0.122320695655E+04   -0.22729E-03   -0.42593E-03   984   0.264E-02    0.268E-01
DAV:   4    -0.122320674677E+04    0.20978E-03   -0.34180E-03   936   0.314E-02    0.230E-01
DAV:   5    -0.122320650354E+04    0.24322E-03   -0.10175E-03   720   0.140E-02    0.689E-02
DAV:   6    -0.122320648403E+04    0.19511E-04   -0.59456E-04   636   0.620E-03
  51 F= -.12537589E+04 E0= -.12536952E+04  d E =-.527086E-03
       N       E                     dE             d eps       ncg     rms          rms(c)
DAV:   1    -0.122320511549E+04    0.13881E-02   -0.72423E-01  1152   0.700E-01    0.301E-01
DAV:   2    -0.122320699506E+04   -0.18796E-02   -0.19617E-02  1620   0.129E-01    0.374E-01
DAV:   3    -0.122321520471E+04   -0.82096E-02   -0.20676E-02  1560   0.964E-02    0.175E+00
DAV:   4    -0.122320876051E+04    0.64442E-02   -0.11459E-02  1212   0.722E-02    0.389E-01
DAV:   5    -0.122320680764E+04    0.19529E-02   -0.13077E-03  1092   0.254E-02    0.301E-01
DAV:   6    -0.122320637866E+04    0.42898E-03   -0.39233E-04   804   0.175E-02    0.158E-01
DAV:   7    -0.122320640500E+04   -0.26340E-04   -0.42434E-04   804   0.156E-02
  52 F= -.12537598E+04 E0= -.12536940E+04  d E =-.146410E-02
       N       E                     dE             d eps       ncg     rms          rms(c)
DAV:   1    -0.122320628823E+04    0.90430E-04   -0.12420E-01  1152   0.289E-01    0.125E-01
DAV:   2    -0.122320738529E+04   -0.10971E-02   -0.53620E-03  1632   0.663E-02    0.372E-01
DAV:   3    -0.122320696841E+04    0.41688E-03   -0.45320E-03  1200   0.466E-02    0.350E-01
DAV:   4    -0.122320653098E+04    0.43743E-03   -0.10153E-03   912   0.250E-02    0.140E-01
DAV:   5    -0.122320644218E+04    0.88801E-04   -0.14516E-04   636   0.107E-02
  53 F= -.12537602E+04 E0= -.12536955E+04  d E =-.395327E-03
       N       E                     dE             d eps       ncg     rms          rms(c)
DAV:   1    -0.122320468082E+04    0.18502E-02   -0.11220E+00  1152   0.869E-01    0.351E-01
DAV:   2    -0.122320662054E+04   -0.19397E-02   -0.25681E-02  1656   0.157E-01    0.292E-01
DAV:   3    -0.122321190124E+04   -0.52807E-02   -0.18315E-02  1536   0.959E-02    0.734E-01
DAV:   4    -0.122320636821E+04    0.55330E-02   -0.13012E-02  1428   0.811E-02    0.205E-01
DAV:   5    -0.122320639350E+04   -0.25288E-04   -0.80335E-04   972   0.181E-02
  54 F= -.12537613E+04 E0= -.12536978E+04  d E =-.142572E-02
       N       E                     dE             d eps       ncg     rms          rms(c)
DAV:   1    -0.122320635523E+04    0.12982E-04   -0.14143E-01  1152   0.314E-01    0.163E-01
DAV:   2    -0.122320964792E+04   -0.32927E-02   -0.95022E-03  1644   0.852E-02    0.687E-01
DAV:   3    -0.122320744097E+04    0.22069E-02   -0.95874E-03  1296   0.644E-02    0.392E-01
DAV:   4    -0.122320709444E+04    0.34653E-03   -0.21032E-03  1032   0.278E-02    0.320E-01
DAV:   5    -0.122320666731E+04    0.42713E-03   -0.39472E-04   744   0.131E-02    0.177E-01
DAV:   6    -0.122320652626E+04    0.14104E-03   -0.50653E-04   900   0.184E-02    0.129E-01
DAV:   7    -0.122320654418E+04   -0.17914E-04   -0.29562E-04   672   0.127E-02
  55 F= -.12537618E+04 E0= -.12536964E+04  d E =-.488165E-03
       N       E                     dE             d eps       ncg     rms          rms(c)
DAV:   1    -0.122320589017E+04    0.63609E-03   -0.34342E-01  1152   0.488E-01    0.190E-01
DAV:   2    -0.122320692026E+04   -0.10301E-02   -0.99846E-03  1608   0.920E-02    0.361E-01
DAV:   3    -0.122320822260E+04   -0.13023E-02   -0.86241E-03  1248   0.526E-02    0.492E-01
DAV:   4    -0.122320677446E+04    0.14481E-02   -0.53000E-03  1248   0.504E-02    0.272E-01
DAV:   5    -0.122320651920E+04    0.25526E-03   -0.45243E-04   828   0.164E-02    0.172E-01
DAV:   6    -0.122320646371E+04    0.55485E-04   -0.22263E-04   768   0.128E-02
  56 F= -.12537622E+04 E0= -.12536992E+04  d E =-.927485E-03
       N       E                     dE             d eps       ncg     rms          rms(c)
DAV:   1    -0.122320298237E+04    0.35368E-02   -0.13667E+00  1152   0.967E-01    0.397E-01
DAV:   2    -0.122320751819E+04   -0.45358E-02   -0.37808E-02  1620   0.191E-01    0.811E-01
DAV:   3    -0.122321319347E+04   -0.56753E-02   -0.34939E-02  1596   0.118E-01    0.873E-01
DAV:   4    -0.122320579159E+04    0.74019E-02   -0.16932E-02  1512   0.917E-02    0.336E-01
DAV:   5    -0.122320527305E+04    0.51854E-03   -0.22865E-03  1212   0.287E-02    0.285E-01
DAV:   6    -0.122320528251E+04   -0.94590E-05   -0.19775E-03  1272   0.263E-02    0.349E-01
DAV:   7    -0.122320518640E+04    0.96105E-04   -0.30236E-03  1092   0.236E-02    0.322E-01
DAV:   8    -0.122320494883E+04    0.23757E-03   -0.26144E-03   840   0.183E-02    0.186E-01
DAV:   9    -0.122320483306E+04    0.11577E-03   -0.16100E-03   732   0.145E-02    0.220E-01
DAV:  10    -0.122320474614E+04    0.86921E-04   -0.10995E-03   660   0.716E-03    0.137E-01
DAV:  11    -0.122320472205E+04    0.24089E-04   -0.61956E-04   660   0.645E-03
  57 F= -.12537615E+04 E0= -.12536983E+04  d E =-.230596E-03
       N       E                     dE             d eps       ncg     rms          rms(c)
DAV:   1    -0.122320520808E+04   -0.46194E-03   -0.68468E-01  1152   0.684E-01    0.282E-01
DAV:   2    -0.122320665860E+04   -0.14505E-02   -0.17647E-02  1572   0.122E-01    0.319E-01
DAV:   3    -0.122321007552E+04   -0.34169E-02   -0.14082E-02  1368   0.653E-02    0.105E+00
DAV:   4    -0.122320746001E+04    0.26155E-02   -0.10761E-02  1308   0.652E-02    0.359E-01
DAV:   5    -0.122320628826E+04    0.11717E-02   -0.19789E-03  1044   0.203E-02    0.187E-01
DAV:   6    -0.122320618013E+04    0.10813E-03   -0.23571E-03   708   0.146E-02    0.165E-01
DAV:   7    -0.122320613962E+04    0.40509E-04   -0.13613E-03   840   0.161E-02    0.111E-01
DAV:   8    -0.122320611000E+04    0.29624E-04   -0.69355E-04   672   0.112E-02
  58 F= -.12537622E+04 E0= -.12536981E+04  d E =-.880873E-03
       N       E                     dE             d eps       ncg     rms          rms(c)
DAV:   1    -0.122320589273E+04    0.24689E-03   -0.30225E-01  1152   0.458E-01    0.182E-01
DAV:   2    -0.122320658362E+04   -0.69088E-03   -0.71376E-03  1608   0.810E-02    0.237E-01
DAV:   3    -0.122320776713E+04   -0.11835E-02   -0.37300E-03  1188   0.404E-02    0.604E-01
DAV:   4    -0.122320710226E+04    0.66487E-03   -0.46482E-03  1068   0.428E-02    0.308E-01
DAV:   5    -0.122320643032E+04    0.67194E-03   -0.81005E-04   876   0.207E-02    0.145E-01
DAV:   6    -0.122320633158E+04    0.98738E-04   -0.13865E-04   660   0.107E-02
  59 F= -.12537630E+04 E0= -.12536992E+04  d E =-.805391E-03
       N       E                     dE             d eps       ncg     rms          rms(c)
DAV:   1    -0.122320155015E+04    0.48802E-02   -0.26997E+00  1152   0.137E+00    0.530E-01
DAV:   2    -0.122320677326E+04   -0.52231E-02   -0.61896E-02  1572   0.236E-01    0.554E-01
DAV:   3    -0.122322525324E+04   -0.18480E-01   -0.41268E-02  1632   0.138E-01    0.279E+00
DAV:   4    -0.122321281167E+04    0.12442E-01   -0.28634E-02  1500   0.112E-01    0.597E-01
DAV:   5    -0.122320749865E+04    0.53130E-02   -0.48626E-03  1428   0.432E-02    0.624E-01
DAV:   6    -0.122320591112E+04    0.15875E-02   -0.27930E-03  1212   0.308E-02    0.280E-01
DAV:   7    -0.122320595828E+04   -0.47169E-04   -0.57877E-03  1212   0.284E-02    0.445E-01
DAV:   8    -0.122320526792E+04    0.69037E-03   -0.54782E-03   900   0.193E-02    0.100E-01
DAV:   9    -0.122320519266E+04    0.75264E-04   -0.31813E-03   720   0.140E-02    0.268E-01
DAV:  10    -0.122320501767E+04    0.17499E-03   -0.30320E-03   684   0.109E-02    0.126E-01
DAV:  11    -0.122320492006E+04    0.97607E-04   -0.13087E-03   660   0.916E-03    0.134E-01
DAV:  12    -0.122320491048E+04    0.95765E-05   -0.86684E-04   636   0.616E-03
  60 F= -.12537633E+04 E0= -.12536988E+04  d E =-.114382E-02
       N       E                     dE             d eps       ncg     rms          rms(c)
DAV:   1    -0.122320526987E+04   -0.34981E-03   -0.31064E-01  1152   0.464E-01    0.190E-01
DAV:   2    -0.122320655913E+04   -0.12893E-02   -0.92904E-03  1596   0.902E-02    0.378E-01
DAV:   3    -0.122320849120E+04   -0.19321E-02   -0.10103E-02  1320   0.628E-02    0.866E-01
DAV:   4    -0.122320654060E+04    0.19506E-02   -0.46020E-03  1176   0.498E-02    0.266E-01
DAV:   5    -0.122320594197E+04    0.59864E-03   -0.43518E-04   792   0.162E-02    0.193E-01
DAV:   6    -0.122320574229E+04    0.19967E-03   -0.17560E-04   696   0.125E-02    0.825E-02
DAV:   7    -0.122320583320E+04   -0.90912E-04   -0.20082E-04   732   0.112E-02
  61 F= -.12537636E+04 E0= -.12536978E+04  d E =-.146981E-02
       N       E                     dE             d eps       ncg     rms          rms(c)
DAV:   1    -0.122320515751E+04    0.58478E-03   -0.44287E-01  1152   0.549E-01    0.238E-01
DAV:   2    -0.122320670149E+04   -0.15440E-02   -0.12582E-02  1644   0.111E-01    0.360E-01
DAV:   3    -0.122321221434E+04   -0.55128E-02   -0.14890E-02  1476   0.890E-02    0.143E+00
DAV:   4    -0.122320747204E+04    0.47423E-02   -0.76181E-03  1200   0.608E-02    0.291E-01
DAV:   5    -0.122320629153E+04    0.11805E-02   -0.85710E-04   984   0.219E-02    0.258E-01
DAV:   6    -0.122320594067E+04    0.35086E-03   -0.36093E-04   756   0.170E-02    0.810E-02
DAV:   7    -0.122320606332E+04   -0.12265E-03   -0.47326E-04   756   0.123E-02    0.219E-01
DAV:   8    -0.122320590082E+04    0.16250E-03   -0.48640E-04   624   0.957E-03    0.842E-02
DAV:   9    -0.122320591111E+04   -0.10292E-04   -0.40676E-04   636   0.763E-03
  62 F= -.12537645E+04 E0= -.12536987E+04  d E =-.858054E-03
       N       E                     dE             d eps       ncg     rms          rms(c)
DAV:   1    -0.122320551599E+04    0.38483E-03   -0.55271E-02  1152   0.194E-01    0.109E-01
DAV:   2    -0.122320646116E+04   -0.94517E-03   -0.37595E-03  1584   0.528E-02    0.371E-01
DAV:   3    -0.122320630461E+04    0.15655E-03   -0.47006E-03  1140   0.459E-02    0.403E-01
DAV:   4    -0.122320574894E+04    0.55567E-03   -0.85387E-04   804   0.219E-02    0.133E-01
DAV:   5    -0.122320568001E+04    0.68926E-04   -0.14283E-04   672   0.846E-03
  63 F= -.12537645E+04 E0= -.12537003E+04  d E =-.903376E-03
       N       E                     dE             d eps       ncg     rms          rms(c)
DAV:   1    -0.122320567375E+04    0.75193E-04   -0.19530E-01  1152   0.366E-01    0.177E-01
DAV:   2    -0.122320731492E+04   -0.16412E-02   -0.72761E-03  1620   0.896E-02    0.578E-01
DAV:   3    -0.122320733427E+04   -0.19356E-04   -0.62056E-03  1260   0.555E-02    0.410E-01
DAV:   4    -0.122320618045E+04    0.11538E-02   -0.15872E-03   984   0.323E-02    0.162E-01
DAV:   5    -0.122320602734E+04    0.15311E-03   -0.19268E-04   732   0.113E-02    0.962E-02
DAV:   6    -0.122320601026E+04    0.17075E-04   -0.24320E-04   900   0.127E-02
  64 F= -.12537653E+04 E0= -.12537002E+04  d E =-.773980E-03
       N       E                     dE             d eps       ncg     rms          rms(c)
DAV:   1    -0.122320536599E+04    0.66135E-03   -0.28521E-01  1152   0.442E-01    0.218E-01
DAV:   2    -0.122320634053E+04   -0.97454E-03   -0.11852E-02  1656   0.890E-02    0.321E-01
DAV:   3    -0.122320661219E+04   -0.27166E-03   -0.96153E-03  1212   0.358E-02    0.385E-01
DAV:   4    -0.122320680185E+04   -0.18967E-03   -0.86854E-03  1188   0.452E-02    0.356E-01
DAV:   5    -0.122320591987E+04    0.88199E-03   -0.35006E-03  1044   0.303E-02    0.120E-01
DAV:   6    -0.122320591026E+04    0.96052E-05   -0.19687E-03   744   0.110E-02    0.151E-01
DAV:   7    -0.122320583278E+04    0.77481E-04   -0.14726E-03   852   0.140E-02    0.598E-02
DAV:   8    -0.122320584791E+04   -0.15130E-04   -0.93677E-04   660   0.907E-03
  65 F= -.12537657E+04 E0= -.12537013E+04  d E =-.114985E-02
       N       E                     dE             d eps       ncg     rms          rms(c)
DAV:   1    -0.122320592255E+04   -0.89764E-04   -0.17790E-01  1152   0.349E-01    0.165E-01
DAV:   2    -0.122320715178E+04   -0.12292E-02   -0.88979E-03  1620   0.772E-02    0.462E-01
DAV:   3    -0.122320768801E+04   -0.53623E-03   -0.88207E-03  1272   0.552E-02    0.433E-01
DAV:   4    -0.122320639946E+04    0.12886E-02   -0.25114E-03  1104   0.381E-02    0.160E-01
DAV:   5    -0.122320632443E+04    0.75023E-04   -0.22262E-04   756   0.112E-02
  66 F= -.12537666E+04 E0= -.12537026E+04  d E =-.920000E-03
       N       E                     dE             d eps       ncg     rms          rms(c)
DAV:   1    -0.122320515746E+04    0.12420E-02   -0.45435E-01  1152   0.557E-01    0.252E-01
DAV:   2    -0.122320750032E+04   -0.23429E-02   -0.13182E-02  1644   0.113E-01    0.627E-01
DAV:   3    -0.122320866602E+04   -0.11657E-02   -0.12487E-02  1464   0.810E-02    0.558E-01
DAV:   4    -0.122320601400E+04    0.26520E-02   -0.39851E-03  1224   0.494E-02    0.190E-01
DAV:   5    -0.122320597425E+04    0.39754E-04   -0.41437E-04  1056   0.141E-02
  67 F= -.12537670E+04 E0= -.12537050E+04  d E =-.128343E-02
       N       E                     dE             d eps       ncg     rms          rms(c)
DAV:   1    -0.122320596882E+04    0.45178E-04   -0.29075E-01  1152   0.451E-01    0.390E-01
DAV:   2    -0.122323523392E+04   -0.29265E-01   -0.10353E-01  1716   0.233E-01    0.155E+00
DAV:   3    -0.122320995854E+04    0.25275E-01   -0.87029E-02  1632   0.210E-01    0.555E-01
DAV:   4    -0.122320793953E+04    0.20190E-02   -0.11046E-02  1236   0.422E-02    0.487E-01
DAV:   5    -0.122320687096E+04    0.10686E-02   -0.54798E-03  1308   0.367E-02    0.346E-01
DAV:   6    -0.122320672317E+04    0.14779E-03   -0.43400E-03  1092   0.289E-02    0.359E-01
DAV:   7    -0.122320618868E+04    0.53449E-03   -0.33525E-03   876   0.220E-02    0.212E-01
DAV:   8    -0.122320597706E+04    0.21163E-03   -0.23602E-03   816   0.185E-02    0.145E-01
DAV:   9    -0.122320583417E+04    0.14289E-03   -0.13431E-03   684   0.128E-02    0.117E-01
DAV:  10    -0.122320578162E+04    0.52546E-04   -0.81401E-04   660   0.887E-03
  68 F= -.12537674E+04 E0= -.12537031E+04  d E =-.412762E-03
       N       E                     dE             d eps       ncg     rms          rms(c)
DAV:   1    -0.122320529330E+04    0.54087E-03   -0.13961E-01  1152   0.312E-01    0.142E-01
DAV:   2    -0.122320580394E+04   -0.51065E-03   -0.67202E-03  1596   0.583E-02    0.254E-01
DAV:   3    -0.122320585658E+04   -0.52639E-04   -0.70625E-03   852   0.179E-02    0.250E-01
DAV:   4    -0.122320610999E+04   -0.25340E-03   -0.57845E-03   996   0.288E-02    0.302E-01
DAV:   5    -0.122320560106E+04    0.50892E-03   -0.21725E-03   864   0.220E-02    0.109E-01
DAV:   6    -0.122320555072E+04    0.50346E-04   -0.60555E-04   696   0.855E-03
  69 F= -.12537676E+04 E0= -.12537037E+04  d E =-.598602E-03
       N       E                     dE             d eps       ncg     rms          rms(c)
DAV:   1    -0.122320587176E+04   -0.27070E-03   -0.12503E-01  1152   0.297E-01    0.115E-01
DAV:   2    -0.122320717140E+04   -0.12996E-02   -0.44833E-03  1692   0.655E-02    0.508E-01
DAV:   3    -0.122320644350E+04    0.72790E-03   -0.30960E-03  1212   0.406E-02    0.244E-01
DAV:   4    -0.122320606210E+04    0.38140E-03   -0.40637E-04   828   0.177E-02    0.846E-02
DAV:   5    -0.122320604830E+04    0.13802E-04   -0.75360E-05   756   0.850E-03
  70 F= -.12537683E+04 E0= -.12537049E+04  d E =-.709532E-03
       N       E                     dE             d eps       ncg     rms          rms(c)
DAV:   1    -0.122320597060E+04    0.91498E-04   -0.28278E-02  1152   0.142E-01    0.995E-02
DAV:   2    -0.122320643443E+04   -0.46383E-03   -0.14792E-03  1356   0.291E-02    0.304E-01
DAV:   3    -0.122320664551E+04   -0.21108E-03   -0.22587E-03  1068   0.285E-02    0.371E-01
DAV:   4    -0.122320617614E+04    0.46937E-03   -0.11565E-03   876   0.206E-02    0.162E-01
DAV:   5    -0.122320605294E+04    0.12320E-03   -0.14196E-04   708   0.837E-03    0.110E-01
DAV:   6    -0.122320599700E+04    0.55941E-04   -0.70454E-05   708   0.839E-03
  71 F= -.12537683E+04 E0= -.12537044E+04  d E =-.759938E-03
       N       E                     dE             d eps       ncg     rms          rms(c)
DAV:   1    -0.122320630028E+04   -0.24735E-03   -0.12397E-01  1152   0.300E-01    0.114E-01
DAV:   2    -0.122320654391E+04   -0.24363E-03   -0.26844E-03  1608   0.507E-02    0.128E-01
DAV:   3    -0.122320654288E+04    0.10322E-05   -0.40475E-04   972   0.135E-02
  72 F= -.12537690E+04 E0= -.12537057E+04  d E =-.672943E-03
       N       E                     dE             d eps       ncg     rms          rms(c)
DAV:   1    -0.122320652433E+04    0.19579E-04   -0.16895E-01  1152   0.350E-01    0.224E-01
DAV:   2    -0.122321750524E+04   -0.10981E-01   -0.35195E-02  1692   0.140E-01    0.871E-01
DAV:   3    -0.122320667259E+04    0.10833E-01   -0.30189E-02  1560   0.132E-01    0.188E-01
DAV:   4    -0.122320667097E+04    0.16242E-05   -0.12328E-03  1092   0.179E-02    0.188E-01
DAV:   5    -0.122320661399E+04    0.56982E-04   -0.10525E-03   876   0.160E-02    0.144E-01
DAV:   6    -0.122320665198E+04   -0.37994E-04   -0.13378E-03   876   0.167E-02    0.171E-01
DAV:   7    -0.122320657695E+04    0.75032E-04   -0.12887E-03   732   0.113E-02    0.975E-02
DAV:   8    -0.122320652664E+04    0.50309E-04   -0.92846E-04   720   0.139E-02
  73 F= -.12537691E+04 E0= -.12537044E+04  d E =-.806135E-03
       N       E                     dE             d eps       ncg     rms          rms(c)
DAV:   1    -0.122320651701E+04    0.59943E-04   -0.18176E-01  1152   0.347E-01    0.149E-01
DAV:   2    -0.122320759080E+04   -0.10738E-02   -0.61686E-03  1656   0.812E-02    0.345E-01
DAV:   3    -0.122320795441E+04   -0.36361E-03   -0.54568E-03  1260   0.538E-02    0.527E-01
DAV:   4    -0.122320710403E+04    0.85038E-03   -0.18065E-03  1068   0.322E-02    0.182E-01
DAV:   5    -0.122320692329E+04    0.18074E-03   -0.17675E-04   708   0.111E-02    0.138E-01
DAV:   6    -0.122320683058E+04    0.92718E-04   -0.19077E-04   744   0.135E-02
  74 F= -.12537696E+04 E0= -.12537052E+04  d E =-.523369E-03
       N       E                     dE             d eps       ncg     rms          rms(c)
DAV:   1    -0.122320684010E+04    0.83189E-04   -0.93832E-04  1020   0.243E-02    0.112E-01
DAV:   2    -0.122320932801E+04   -0.24879E-02   -0.58149E-03  1188   0.487E-02    0.605E-01
DAV:   3    -0.122320760822E+04    0.17198E-02   -0.82210E-03  1188   0.573E-02    0.347E-01
DAV:   4    -0.122320714087E+04    0.46736E-03   -0.12760E-03   792   0.175E-02    0.211E-01
DAV:   5    -0.122320691049E+04    0.23038E-03   -0.30411E-04   660   0.840E-03    0.106E-01
DAV:   6    -0.122320683940E+04    0.71090E-04   -0.12168E-04   648   0.796E-03
  75 F= -.12537697E+04 E0= -.12537061E+04  d E =-.547083E-03
       N       E                     dE             d eps       ncg     rms          rms(c)
DAV:   1    -0.122320702977E+04   -0.11928E-03   -0.14532E-01  1152   0.316E-01    0.164E-01
DAV:   2    -0.122320799803E+04   -0.96826E-03   -0.50175E-03  1644   0.726E-02    0.358E-01
DAV:   3    -0.122320930103E+04   -0.13030E-02   -0.57726E-03  1236   0.555E-02    0.717E-01
DAV:   4    -0.122320799298E+04    0.13081E-02   -0.37344E-03  1116   0.422E-02    0.266E-01
DAV:   5    -0.122320745974E+04    0.53324E-03   -0.64552E-04   780   0.150E-02    0.159E-01
DAV:   6    -0.122320733845E+04    0.12129E-03   -0.45156E-04   660   0.102E-02    0.860E-02
DAV:   7    -0.122320734084E+04   -0.23891E-05   -0.56998E-04   612   0.853E-03
  76 F= -.12537703E+04 E0= -.12537054E+04  d E =-.604854E-03
       N       E                     dE             d eps       ncg     rms          rms(c)
DAV:   1    -0.122320713356E+04    0.20489E-03   -0.87227E-02  1152   0.245E-01    0.127E-01
DAV:   2    -0.122320824374E+04   -0.11102E-02   -0.54975E-03  1668   0.644E-02    0.375E-01
DAV:   3    -0.122320797113E+04    0.27260E-03   -0.57062E-03  1248   0.505E-02    0.401E-01
DAV:   4    -0.122320746811E+04    0.50303E-03   -0.11112E-03  1020   0.256E-02    0.162E-01
DAV:   5    -0.122320735985E+04    0.10826E-03   -0.11031E-04   756   0.898E-03    0.114E-01
DAV:   6    -0.122320729687E+04    0.62981E-04   -0.11041E-04   708   0.931E-03
  77 F= -.12537703E+04 E0= -.12537065E+04  d E =-.641274E-03
       N       E                     dE             d eps       ncg     rms          rms(c)
DAV:   1    -0.122320758376E+04   -0.22391E-03   -0.16665E-01  1152   0.342E-01    0.150E-01
DAV:   2    -0.122320884385E+04   -0.12601E-02   -0.66964E-03  1632   0.739E-02    0.405E-01
DAV:   3    -0.122320907762E+04   -0.23376E-03   -0.64453E-03  1260   0.551E-02    0.545E-01
DAV:   4    -0.122320826256E+04    0.81505E-03   -0.22666E-03  1164   0.344E-02    0.228E-01
DAV:   5    -0.122320797446E+04    0.28810E-03   -0.29237E-04   768   0.119E-02    0.145E-01
DAV:   6    -0.122320787062E+04    0.10384E-03   -0.20183E-04   756   0.122E-02    0.863E-02
DAV:   7    -0.122320787856E+04   -0.79364E-05   -0.12620E-04   804   0.969E-03
  78 F= -.12537709E+04 E0= -.12537061E+04  d E =-.627645E-03
       N       E                     dE             d eps       ncg     rms          rms(c)
DAV:   1    -0.122320783824E+04    0.32384E-04   -0.14471E-02  1152   0.101E-01    0.573E-02
DAV:   2    -0.122320814186E+04   -0.30362E-03   -0.97547E-04  1260   0.272E-02    0.214E-01
DAV:   3    -0.122320799258E+04    0.14929E-03   -0.11375E-03   984   0.261E-02    0.166E-01
DAV:   4    -0.122320786044E+04    0.13213E-03   -0.26038E-04   768   0.138E-02    0.532E-02
DAV:   5    -0.122320784790E+04    0.12545E-04   -0.69677E-05   672   0.577E-03
  79 F= -.12537709E+04 E0= -.12537066E+04  d E =-.610609E-03
       N       E                     dE             d eps       ncg     rms          rms(c)
DAV:   1    -0.122320827140E+04   -0.41096E-03   -0.18688E-01  1152   0.364E-01    0.133E-01
DAV:   2    -0.122320981787E+04   -0.15465E-02   -0.71333E-03  1608   0.822E-02    0.437E-01
DAV:   3    -0.122320908416E+04    0.73372E-03   -0.53805E-03  1284   0.497E-02    0.336E-01
DAV:   4    -0.122320870858E+04    0.37557E-03   -0.10342E-03  1068   0.240E-02    0.173E-01
DAV:   5    -0.122320862506E+04    0.83524E-04   -0.19160E-04   744   0.110E-02
  80 F= -.12537719E+04 E0= -.12537085E+04  d E =-.930786E-03
       N       E                     dE             d eps       ncg     rms          rms(c)
DAV:   1    -0.122320841689E+04    0.29169E-03   -0.10403E-01  1152   0.272E-01    0.140E-01
DAV:   2    -0.122321288962E+04   -0.44727E-02   -0.12302E-02  1692   0.943E-02    0.643E-01
DAV:   3    -0.122320856917E+04    0.43204E-02   -0.10151E-02  1404   0.736E-02    0.141E-01
DAV:   4    -0.122320854152E+04    0.27652E-04   -0.32342E-04   888   0.125E-02
  81 F= -.12537719E+04 E0= -.12537094E+04  d E =-.963974E-03
       N       E                     dE             d eps       ncg     rms          rms(c)
DAV:   1    -0.122320880468E+04   -0.23551E-03   -0.75521E-02  1152   0.232E-01    0.135E-01
DAV:   2    -0.122320928596E+04   -0.48128E-03   -0.19816E-03  1620   0.428E-02    0.291E-01
DAV:   3    -0.122320906910E+04    0.21687E-03   -0.77303E-04   852   0.106E-02    0.172E-01
DAV:   4    -0.122320926452E+04   -0.19542E-03   -0.11099E-03   840   0.163E-02    0.273E-01
DAV:   5    -0.122320892202E+04    0.34249E-03   -0.79268E-04   744   0.177E-02    0.112E-01
DAV:   6    -0.122320890113E+04    0.20888E-04   -0.16367E-04   696   0.100E-02
  82 F= -.12537723E+04 E0= -.12537096E+04  d E =-.415826E-03
       N       E                     dE             d eps       ncg     rms          rms(c)
DAV:   1    -0.122320864998E+04    0.27205E-03   -0.37767E-01  1152   0.517E-01    0.208E-01
DAV:   2    -0.122321001316E+04   -0.13632E-02   -0.12104E-02  1644   0.967E-02    0.406E-01
DAV:   3    -0.122321122265E+04   -0.12095E-02   -0.10807E-02  1368   0.622E-02    0.484E-01
DAV:   4    -0.122320932560E+04    0.18970E-02   -0.57674E-03  1260   0.533E-02    0.195E-01
DAV:   5    -0.122320922736E+04    0.98242E-04   -0.91142E-04  1008   0.155E-02
  83 F= -.12537728E+04 E0= -.12537102E+04  d E =-.869277E-03
       N       E                     dE             d eps       ncg     rms          rms(c)
DAV:   1    -0.122320979323E+04   -0.46763E-03   -0.52413E-02  1152   0.180E-01    0.149E-01
DAV:   2    -0.122321592732E+04   -0.61341E-02   -0.14060E-02  1668   0.836E-02    0.136E+00
DAV:   3    -0.122321158421E+04    0.43431E-02   -0.13444E-02  1344   0.688E-02    0.350E-01
DAV:   4    -0.122321009978E+04    0.14844E-02   -0.19221E-03   936   0.189E-02    0.192E-01
DAV:   5    -0.122320994192E+04    0.15786E-03   -0.18540E-03   720   0.125E-02    0.140E-01
DAV:   6    -0.122320987730E+04    0.64618E-04   -0.95765E-04   684   0.916E-03
  84 F= -.12537734E+04 E0= -.12537093E+04  d E =-.636164E-03
       N       E                     dE             d eps       ncg     rms          rms(c)
DAV:   1    -0.122320999231E+04   -0.50399E-04   -0.23542E-02  1140   0.120E-01    0.135E-01
DAV:   2    -0.122321072487E+04   -0.73256E-03   -0.72473E-03  1380   0.323E-02    0.375E-01
DAV:   3    -0.122321053940E+04    0.18547E-03   -0.94640E-03  1068   0.296E-02    0.263E-01
DAV:   4    -0.122321015654E+04    0.38286E-03   -0.38113E-03   912   0.225E-02    0.156E-01
DAV:   5    -0.122321002031E+04    0.13623E-03   -0.21382E-03   684   0.962E-03    0.993E-02
DAV:   6    -0.122320998622E+04    0.34089E-04   -0.13562E-03   648   0.719E-03    0.778E-02
DAV:   7    -0.122320998227E+04    0.39528E-05   -0.98166E-04   624   0.648E-03
  85 F= -.12537735E+04 E0= -.12537098E+04  d E =-.732498E-03
       N       E                     dE             d eps       ncg     rms          rms(c)
DAV:   1    -0.122321021255E+04   -0.22633E-03   -0.27711E-02  1152   0.134E-01    0.760E-02
DAV:   2    -0.122321058474E+04   -0.37219E-03   -0.16358E-03  1548   0.371E-02    0.230E-01
DAV:   3    -0.122321049120E+04    0.93536E-04   -0.16395E-03  1080   0.279E-02    0.210E-01
DAV:   4    -0.122321033743E+04    0.15378E-03   -0.39326E-04   780   0.155E-02    0.983E-02
DAV:   5    -0.122321029701E+04    0.40414E-04   -0.36695E-05   660   0.524E-03
  86 F= -.12537738E+04 E0= -.12537102E+04  d E =-.354875E-03
       N       E                     dE             d eps       ncg     rms          rms(c)
DAV:   1    -0.122321029884E+04    0.38589E-04   -0.13076E-02  1140   0.924E-02    0.693E-02
DAV:   2    -0.122321047770E+04   -0.17887E-03   -0.10705E-03  1248   0.245E-02    0.167E-01
DAV:   3    -0.122321055339E+04   -0.75686E-04   -0.14952E-03   948   0.235E-02    0.217E-01
DAV:   4    -0.122321034547E+04    0.20792E-03   -0.62762E-04   780   0.174E-02    0.752E-02
DAV:   5    -0.122321031908E+04    0.26396E-04   -0.14833E-04   624   0.559E-03
  87 F= -.12537739E+04 E0= -.12537098E+04  d E =-.405005E-03
       N       E                     dE             d eps       ncg     rms          rms(c)
DAV:   1    -0.122321057545E+04   -0.22997E-03   -0.20140E-02  1140   0.113E-01    0.499E-02
DAV:   2    -0.122321074381E+04   -0.16836E-03   -0.85916E-04  1056   0.265E-02    0.155E-01
DAV:   3    -0.122321067613E+04    0.67674E-04   -0.75581E-04   828   0.197E-02
  88 F= -.12537742E+04 E0= -.12537084E+04  d E =-.346268E-03
       N       E                     dE             d eps       ncg     rms          rms(c)
DAV:   1    -0.122321068715E+04    0.56654E-04   -0.20384E-02  1140   0.114E-01    0.701E-02
DAV:   2    -0.122321126429E+04   -0.57714E-03   -0.14428E-03  1248   0.289E-02    0.363E-01
DAV:   3    -0.122321094952E+04    0.31477E-03   -0.19140E-03  1020   0.281E-02    0.179E-01
DAV:   4    -0.122321075521E+04    0.19431E-03   -0.30243E-04   720   0.122E-02    0.945E-02
DAV:   5    -0.122321070692E+04    0.48287E-04   -0.55887E-05   624   0.540E-03
  89 F= -.12537743E+04 E0= -.12537103E+04  d E =-.366706E-03
       N       E                     dE             d eps       ncg     rms          rms(c)
DAV:   1    -0.122321092248E+04   -0.16728E-03   -0.25700E-02  1152   0.133E-01    0.464E-02
DAV:   2    -0.122321096865E+04   -0.46168E-04   -0.56848E-04  1104   0.226E-02
  90 F= -.12537745E+04 E0= -.12537099E+04  d E =-.199696E-03
       N       E                     dE             d eps       ncg     rms          rms(c)
DAV:   1    -0.122321108321E+04   -0.16073E-03   -0.23712E-03  1152   0.418E-02    0.132E-01
DAV:   2    -0.122322882680E+04   -0.17744E-01   -0.21830E-02  1440   0.101E-01    0.263E+00
DAV:   3    -0.122321583172E+04    0.12995E-01   -0.16211E-02  1296   0.877E-02    0.381E-01
DAV:   4    -0.122321142147E+04    0.44102E-02   -0.24483E-03  1104   0.328E-02    0.179E-01
DAV:   5    -0.122321112914E+04    0.29233E-03   -0.61637E-04   696   0.144E-02    0.123E-01
DAV:   6    -0.122321105660E+04    0.72536E-04   -0.45178E-04   624   0.781E-03
  91 F= -.12537745E+04 E0= -.12537105E+04  d E =-.270621E-03
       N       E                     dE             d eps       ncg     rms          rms(c)
DAV:   1    -0.122321116521E+04   -0.36071E-04   -0.14477E-02  1152   0.102E-01    0.640E-02
DAV:   2    -0.122321135745E+04   -0.19224E-03   -0.20865E-03  1008   0.188E-02    0.203E-01
DAV:   3    -0.122321131714E+04    0.40311E-04   -0.25049E-03   756   0.138E-02    0.141E-01
DAV:   4    -0.122321126444E+04    0.52693E-04   -0.12322E-03   696   0.130E-02    0.133E-01
DAV:   5    -0.122321119055E+04    0.73899E-04   -0.49411E-04   624   0.728E-03
  92 F= -.12537747E+04 E0= -.12537113E+04  d E =-.129025E-03
       N       E                     dE             d eps       ncg     rms          rms(c)
DAV:   1    -0.122321122243E+04    0.42016E-04   -0.15607E-02  1152   0.107E-01    0.714E-02
DAV:   2    -0.122321146984E+04   -0.24741E-03   -0.75897E-04  1104   0.205E-02    0.223E-01
DAV:   3    -0.122321158764E+04   -0.11780E-03   -0.13294E-03   912   0.217E-02    0.264E-01
DAV:   4    -0.122321133277E+04    0.25487E-03   -0.74835E-04   744   0.156E-02    0.120E-01
DAV:   5    -0.122321128887E+04    0.43899E-04   -0.14798E-04   648   0.704E-03
  93 F= -.12537748E+04 E0= -.12537101E+04  d E =-.222456E-03
       N       E                     dE             d eps       ncg     rms          rms(c)
DAV:   1    -0.122321135736E+04   -0.24590E-04   -0.11829E-02  1140   0.888E-02    0.489E-02
DAV:   2    -0.122321152638E+04   -0.16902E-03   -0.59778E-04   936   0.234E-02    0.163E-01
DAV:   3    -0.122321143690E+04    0.89481E-04   -0.61030E-04   792   0.198E-02
  94 F= -.12537749E+04 E0= -.12537091E+04  d E =-.150261E-03
       N       E                     dE             d eps       ncg     rms          rms(c)
DAV:   1    -0.122321140051E+04    0.12587E-03   -0.10383E-02  1140   0.839E-02    0.602E-02
DAV:   2    -0.122321218155E+04   -0.78104E-03   -0.12854E-03  1080   0.298E-02    0.420E-01
[...]
DAV:   3    -0.122320101599E+04   -0.30379E-04   -0.78035E-04   744   0.166E-02
 406 F= -.12538653E+04 E0= -.12538052E+04  d E =-.255458E-03
       N       E                     dE             d eps       ncg     rms          rms(c)
DAV:   1    -0.122320054751E+04    0.43810E-03   -0.11481E-01  1152   0.290E-01    0.137E-01
DAV:   2    -0.122320258659E+04   -0.20391E-02   -0.69565E-03  1668   0.791E-02    0.454E-01
DAV:   3    -0.122320106874E+04    0.15178E-02   -0.63372E-03  1404   0.649E-02    0.244E-01
DAV:   4    -0.122320090810E+04    0.16064E-03   -0.57656E-04   888   0.193E-02    0.161E-01
DAV:   5    -0.122320079249E+04    0.11561E-03   -0.16800E-04   756   0.114E-02    0.844E-02
DAV:   6    -0.122320081658E+04   -0.24089E-04   -0.20304E-04   816   0.168E-02
 407 F= -.12538653E+04 E0= -.12538022E+04  d E =-.280626E-03
       N       E                     dE             d eps       ncg     rms          rms(c)
DAV:   1    -0.122320080376E+04   -0.11264E-04   -0.68067E-03  1128   0.710E-02    0.513E-02
DAV:   2    -0.122320104520E+04   -0.24145E-03   -0.77022E-04   984   0.262E-02    0.197E-01
DAV:   3    -0.122320091829E+04    0.12691E-03   -0.83087E-04   828   0.234E-02    0.133E-01
DAV:   4    -0.122320088961E+04    0.28677E-04   -0.27533E-04   708   0.146E-02
 408 F= -.12538654E+04 E0= -.12538046E+04  d E =-.300333E-03
       N       E                     dE             d eps       ncg     rms          rms(c)
DAV:   1    -0.122320086606E+04    0.52227E-04   -0.14529E-02  1140   0.104E-01    0.633E-02
DAV:   2    -0.122320127630E+04   -0.41024E-03   -0.16140E-03  1236   0.339E-02    0.265E-01
DAV:   3    -0.122320104862E+04    0.22768E-03   -0.17174E-03   984   0.317E-02    0.158E-01
DAV:   4    -0.122320088909E+04    0.15953E-03   -0.25643E-04   708   0.145E-02    0.315E-02
DAV:   5    -0.122320089681E+04   -0.77183E-05   -0.12002E-04   636   0.463E-03
 409 F= -.12538655E+04 E0= -.12538036E+04  d E =-.110276E-03
       N       E                     dE             d eps       ncg     rms          rms(c)
DAV:   1    -0.122320063817E+04    0.25092E-03   -0.69460E-02  1152   0.227E-01    0.939E-02
DAV:   2    -0.122320079660E+04   -0.15843E-03   -0.20070E-03  1536   0.459E-02    0.815E-02
DAV:   3    -0.122320121668E+04   -0.42008E-03   -0.13458E-03   876   0.286E-02    0.305E-01
DAV:   4    -0.122320079557E+04    0.42111E-03   -0.10381E-03   864   0.248E-02    0.766E-02
DAV:   5    -0.122320076560E+04    0.29971E-04   -0.11230E-04   624   0.593E-03
 410 F= -.12538656E+04 E0= -.12538033E+04  d E =-.206124E-03
       N       E                     dE             d eps       ncg     rms          rms(c)
DAV:   1    -0.122320083577E+04   -0.40204E-04   -0.27077E-02  1152   0.145E-01    0.646E-02
DAV:   2    -0.122320099925E+04   -0.16348E-03   -0.11420E-03  1416   0.298E-02    0.143E-01
DAV:   3    -0.122320098959E+04    0.96567E-05   -0.98199E-04   816   0.213E-02
 411 F= -.12538659E+04 E0= -.12538017E+04  d E =-.308552E-03
       N       E                     dE             d eps       ncg     rms          rms(c)
DAV:   1    -0.122320080255E+04    0.19670E-03   -0.67229E-02  1152   0.228E-01    0.110E-01
DAV:   2    -0.122320281738E+04   -0.20148E-02   -0.51650E-03  1560   0.621E-02    0.676E-01
DAV:   3    -0.122320125157E+04    0.15658E-02   -0.46304E-03  1236   0.507E-02    0.209E-01
DAV:   4    -0.122320100988E+04    0.24169E-03   -0.28207E-04   780   0.149E-02    0.143E-01
DAV:   5    -0.122320090276E+04    0.10712E-03   -0.15260E-04   720   0.102E-02    0.816E-02
DAV:   6    -0.122320089864E+04    0.41274E-05   -0.13287E-04   624   0.866E-03
 412 F= -.12538659E+04 E0= -.12538036E+04  d E =-.350431E-03
       N       E                     dE             d eps       ncg     rms          rms(c)
DAV:   1    -0.122320101239E+04   -0.10963E-03   -0.34269E-02  1152   0.161E-01    0.735E-02
DAV:   2    -0.122320123705E+04   -0.22466E-03   -0.15169E-03  1560   0.350E-02    0.162E-01
DAV:   3    -0.122320119751E+04    0.39539E-04   -0.11392E-03   912   0.213E-02    0.149E-01
DAV:   4    -0.122320114024E+04    0.57264E-04   -0.77471E-04   828   0.200E-02
 413 F= -.12538662E+04 E0= -.12538055E+04  d E =-.324490E-03
       N       E                     dE             d eps       ncg     rms          rms(c)
DAV:   1    -0.122320095552E+04    0.24199E-03   -0.72543E-02  1152   0.233E-01    0.102E-01
DAV:   2    -0.122320120587E+04   -0.25036E-03   -0.24021E-03  1620   0.523E-02    0.154E-01
DAV:   3    -0.122320159301E+04   -0.38714E-03   -0.20720E-03  1164   0.351E-02    0.260E-01
DAV:   4    -0.122320107953E+04    0.51348E-03   -0.11141E-03   948   0.291E-02    0.725E-02
DAV:   5    -0.122320107267E+04    0.68556E-05   -0.88454E-05   672   0.685E-03
 414 F= -.12538663E+04 E0= -.12538047E+04  d E =-.377293E-03
       N       E                     dE             d eps       ncg     rms          rms(c)
DAV:   1    -0.122320108714E+04   -0.76093E-05   -0.42724E-02  1152   0.177E-01    0.115E-01
DAV:   2    -0.122320219755E+04   -0.11104E-02   -0.29810E-03  1536   0.535E-02    0.409E-01
DAV:   3    -0.122320185739E+04    0.34016E-03   -0.45098E-03  1248   0.501E-02    0.361E-01
DAV:   4    -0.122320140702E+04    0.45037E-03   -0.14331E-03   900   0.265E-02    0.178E-01
DAV:   5    -0.122320126853E+04    0.13849E-03   -0.22649E-04   624   0.103E-02    0.146E-01
DAV:   6    -0.122320116089E+04    0.10763E-03   -0.13007E-04   660   0.945E-03    0.560E-02
DAV:   7    -0.122320124193E+04   -0.81038E-04   -0.10444E-04   600   0.752E-03
 415 F= -.12538666E+04 E0= -.12538035E+04  d E =-.327793E-03
       N       E                     dE             d eps       ncg     rms          rms(c)
DAV:   1    -0.122319981179E+04    0.13491E-02   -0.39093E-01  1152   0.532E-01    0.292E-01
DAV:   2    -0.122320294125E+04   -0.31295E-02   -0.21937E-02  1632   0.134E-01    0.601E-01
DAV:   3    -0.122320569875E+04   -0.27575E-02   -0.27318E-02  1524   0.105E-01    0.116E+00
DAV:   4    -0.122320235272E+04    0.33460E-02   -0.11840E-02  1248   0.718E-02    0.370E-01
DAV:   5    -0.122320122713E+04    0.11256E-02   -0.85216E-04  1068   0.239E-02    0.316E-01
DAV:   6    -0.122320068450E+04    0.54262E-03   -0.37766E-04   816   0.191E-02    0.137E-01
DAV:   7    -0.122320085581E+04   -0.17131E-03   -0.79560E-04   912   0.183E-02    0.262E-01
DAV:   8    -0.122320058270E+04    0.27311E-03   -0.79838E-04   696   0.128E-02    0.835E-02
DAV:   9    -0.122320059117E+04   -0.84697E-05   -0.49432E-04   708   0.110E-02
 416 F= -.12538664E+04 E0= -.12538031E+04  d E =-.154941E-03
       N       E                     dE             d eps       ncg     rms          rms(c)
DAV:   1    -0.122320075395E+04   -0.17125E-03   -0.83267E-02  1152   0.244E-01    0.114E-01
DAV:   2    -0.122320114612E+04   -0.39217E-03   -0.33170E-03  1644   0.577E-02    0.175E-01
DAV:   3    -0.122320173168E+04   -0.58556E-03   -0.31904E-03  1164   0.405E-02    0.409E-01
DAV:   4    -0.122320102807E+04    0.70362E-03   -0.14469E-03  1044   0.324E-02    0.116E-01
DAV:   5    -0.122320098513E+04    0.42933E-04   -0.85422E-05   648   0.845E-03
 417 F= -.12538666E+04 E0= -.12538040E+04  d E =-.328999E-03
       N       E                     dE             d eps       ncg     rms          rms(c)
DAV:   1    -0.122320104687E+04   -0.18801E-04   -0.16199E-02  1140   0.108E-01    0.808E-02
DAV:   2    -0.122320128916E+04   -0.24229E-03   -0.15918E-03  1080   0.250E-02    0.211E-01
DAV:   3    -0.122320112378E+04    0.16538E-03   -0.15915E-03   636   0.102E-02    0.104E-01
DAV:   4    -0.122320115421E+04   -0.30428E-04   -0.92934E-04   624   0.920E-03
 418 F= -.12538667E+04 E0= -.12538035E+04  d E =-.400346E-03
       N       E                     dE             d eps       ncg     rms          rms(c)
DAV:   1    -0.122320100167E+04    0.12212E-03   -0.39324E-03  1080   0.520E-02    0.578E-02
DAV:   2    -0.122320225094E+04   -0.12493E-02   -0.20769E-03  1116   0.368E-02    0.529E-01
DAV:   3    -0.122320114381E+04    0.11071E-02   -0.19739E-03  1080   0.349E-02    0.101E-01
DAV:   4    -0.122320111954E+04    0.24272E-04   -0.13592E-04   672   0.101E-02
 419 F= -.12538667E+04 E0= -.12538042E+04  d E =-.410903E-03
       N       E                     dE             d eps       ncg     rms          rms(c)
DAV:   1    -0.122320094098E+04    0.20283E-03   -0.50077E-02  1152   0.189E-01    0.940E-02
DAV:   2    -0.122320123331E+04   -0.29233E-03   -0.18830E-03  1620   0.442E-02    0.159E-01
DAV:   3    -0.122320163069E+04   -0.39737E-03   -0.22618E-03  1140   0.380E-02    0.347E-01
DAV:   4    -0.122320111245E+04    0.51824E-03   -0.85504E-04   840   0.248E-02    0.848E-02
DAV:   5    -0.122320109157E+04    0.20872E-04   -0.88169E-05   624   0.727E-03
 420 F= -.12538668E+04 E0= -.12538044E+04  d E =-.921803E-04
       N       E                     dE             d eps       ncg     rms          rms(c)
DAV:   1    -0.122320104646E+04    0.65992E-04   -0.57353E-04  1032   0.215E-02    0.437E-02
DAV:   2    -0.122320126020E+04   -0.21375E-03   -0.57243E-04   780   0.173E-02    0.179E-01
DAV:   3    -0.122320109262E+04    0.16758E-03   -0.86121E-04   792   0.219E-02    0.102E-01
DAV:   4    -0.122320104208E+04    0.50544E-04   -0.15066E-04   672   0.895E-03
 421 F= -.12538668E+04 E0= -.12538048E+04  d E =-.556176E-04
       N       E                     dE             d eps       ncg     rms          rms(c)
DAV:   1    -0.122320104636E+04    0.46266E-04   -0.28427E-04   840   0.123E-02    0.239E-02
DAV:   2    -0.122320107199E+04   -0.25634E-04   -0.35788E-04   600   0.504E-03
 422 F= -.12538668E+04 E0= -.12538045E+04  d E =-.779086E-04
       N       E                     dE             d eps       ncg     rms          rms(c)
DAV:   1    -0.122320105512E+04   -0.87650E-05   -0.27936E-02  1152   0.144E-01    0.746E-02
DAV:   2    -0.122320139771E+04   -0.34258E-03   -0.21635E-03  1500   0.346E-02    0.244E-01
DAV:   3    -0.122320141787E+04   -0.20161E-04   -0.26108E-03  1044   0.293E-02    0.202E-01
DAV:   4    -0.122320116468E+04    0.25319E-03   -0.75560E-04   816   0.197E-02    0.919E-02
DAV:   5    -0.122320113061E+04    0.34064E-04   -0.12127E-04   648   0.571E-03
 423 F= -.12538669E+04 E0= -.12538047E+04  d E =-.143090E-03
       N       E                     dE             d eps       ncg     rms          rms(c)
DAV:   1    -0.122320103351E+04    0.13116E-03   -0.12257E-02  1152   0.966E-02    0.504E-02
DAV:   2    -0.122320112687E+04   -0.93357E-04   -0.78901E-04  1164   0.216E-02
 424 F= -.12538670E+04 E0= -.12538040E+04  d E =-.195953E-03
       N       E                     dE             d eps       ncg     rms          rms(c)
DAV:   1    -0.122320112340E+04   -0.89889E-04   -0.77981E-03  1164   0.764E-02    0.103E-01
DAV:   2    -0.122320802994E+04   -0.69065E-02   -0.11230E-02  1368   0.796E-02    0.144E+00
DAV:   3    -0.122320223073E+04    0.57992E-02   -0.86817E-03  1296   0.725E-02    0.235E-01
DAV:   4    -0.122320123928E+04    0.99146E-03   -0.85984E-04   984   0.219E-02    0.135E-01
DAV:   5    -0.122320113012E+04    0.10916E-03   -0.37428E-04   684   0.112E-02    0.957E-02
DAV:   6    -0.122320110227E+04    0.27849E-04   -0.16304E-04   624   0.693E-03
 425 F= -.12538670E+04 E0= -.12538051E+04  d E =-.390370E-04
       N       E                     dE             d eps       ncg     rms          rms(c)
DAV:   1    -0.122320107497E+04    0.55156E-04   -0.21615E-02  1140   0.128E-01    0.986E-02
DAV:   2    -0.122320149072E+04   -0.41575E-03   -0.19197E-03  1404   0.310E-02    0.261E-01
DAV:   3    -0.122320135038E+04    0.14034E-03   -0.26558E-03  1044   0.295E-02    0.205E-01
DAV:   4    -0.122320114901E+04    0.20137E-03   -0.12633E-03   864   0.217E-02    0.944E-02
DAV:   5    -0.122320108876E+04    0.60245E-04   -0.59261E-04   636   0.664E-03
 426 F= -.12538671E+04 E0= -.12538054E+04  d E =-.138636E-03
       N       E                     dE             d eps       ncg     rms          rms(c)
DAV:   1    -0.122320074672E+04    0.40228E-03   -0.87682E-02  1152   0.257E-01    0.119E-01
DAV:   2    -0.122320157339E+04   -0.82666E-03   -0.54018E-03  1620   0.637E-02    0.318E-01
DAV:   3    -0.122320142066E+04    0.15273E-03   -0.58561E-03  1284   0.497E-02    0.336E-01
DAV:   4    -0.122320101764E+04    0.40302E-03   -0.16408E-03  1044   0.301E-02    0.150E-01
DAV:   5    -0.122320091293E+04    0.10471E-03   -0.23305E-04   708   0.919E-03    0.968E-02
DAV:   6    -0.122320087002E+04    0.42911E-04   -0.27879E-04   696   0.931E-03
 427 F= -.12538671E+04 E0= -.12538053E+04  d E =-.147163E-03
       N       E                     dE             d eps       ncg     rms          rms(c)
DAV:   1    -0.122320086299E+04    0.49941E-04   -0.23587E-02  1140   0.133E-01    0.717E-02
DAV:   2    -0.122320217830E+04   -0.13153E-02   -0.37733E-03  1464   0.562E-02    0.408E-01
DAV:   3    -0.122320095211E+04    0.12262E-02   -0.30490E-03  1128   0.423E-02    0.100E-01
DAV:   4    -0.122320097272E+04   -0.20619E-04   -0.20950E-04   696   0.105E-02
 428 F= -.12538674E+04 E0= -.12538057E+04  d E =-.257480E-03
       N       E                     dE             d eps       ncg     rms          rms(c)
DAV:   1    -0.122320055165E+04    0.40046E-03   -0.74872E-02  1152   0.236E-01    0.875E-02
DAV:   2    -0.122320083060E+04   -0.27895E-03   -0.22901E-03  1512   0.508E-02    0.168E-01
DAV:   3    -0.122320092993E+04   -0.99329E-04   -0.11209E-03   888   0.270E-02    0.229E-01
DAV:   4    -0.122320077080E+04    0.15913E-03   -0.77637E-04   816   0.227E-02    0.124E-01
DAV:   5    -0.122320070801E+04    0.62785E-04   -0.21782E-04   804   0.136E-02
 429 F= -.12538674E+04 E0= -.12538042E+04  d E =-.267399E-03
       N       E                     dE             d eps       ncg     rms          rms(c)
DAV:   1    -0.122320072407E+04    0.46729E-04   -0.33335E-02  1152   0.160E-01    0.856E-02
DAV:   2    -0.122320194624E+04   -0.12222E-02   -0.39127E-03  1632   0.608E-02    0.369E-01
DAV:   3    -0.122320084953E+04    0.10967E-02   -0.34877E-03  1272   0.471E-02    0.132E-01
DAV:   4    -0.122320079000E+04    0.59524E-04   -0.26068E-04   720   0.130E-02
 430 F= -.12538676E+04 E0= -.12538065E+04  d E =-.213190E-03
       N       E                     dE             d eps       ncg     rms          rms(c)
DAV:   1    -0.122320061399E+04    0.23554E-03   -0.65744E-02  1152   0.224E-01    0.111E-01
DAV:   2    -0.122320111213E+04   -0.49815E-03   -0.40914E-03  1608   0.495E-02    0.278E-01
DAV:   3    -0.122320135971E+04   -0.24758E-03   -0.50706E-03  1164   0.370E-02    0.354E-01
DAV:   4    -0.122320094600E+04    0.41371E-03   -0.25004E-03  1008   0.299E-02    0.171E-01
DAV:   5    -0.122320077130E+04    0.17471E-03   -0.36594E-04   708   0.102E-02    0.106E-01
DAV:   6    -0.122320071077E+04    0.60530E-04   -0.17337E-04   708   0.842E-03
 431 F= -.12538677E+04 E0= -.12538058E+04  d E =-.318881E-03
       N       E                     dE             d eps       ncg     rms          rms(c)
DAV:   1    -0.122320079556E+04   -0.24259E-04   -0.21690E-02  1152   0.126E-01    0.950E-02
DAV:   2    -0.122320148821E+04   -0.69266E-03   -0.16005E-03  1380   0.388E-02    0.342E-01
DAV:   3    -0.122320141734E+04    0.70868E-04   -0.28246E-03  1164   0.408E-02    0.338E-01
DAV:   4    -0.122320098842E+04    0.42892E-03   -0.96911E-04   888   0.229E-02    0.144E-01
DAV:   5    -0.122320087502E+04    0.11341E-03   -0.11426E-04   672   0.829E-03    0.103E-01
DAV:   6    -0.122320081889E+04    0.56133E-04   -0.73686E-05   636   0.817E-03
 432 F= -.12538679E+04 E0= -.12538059E+04  d E =-.164242E-03
       N       E                     dE             d eps       ncg     rms          rms(c)
DAV:   1    -0.122320082576E+04    0.49256E-04   -0.34157E-04   948   0.163E-02    0.765E-02
DAV:   2    -0.122320123105E+04   -0.40529E-03   -0.67593E-04   804   0.160E-02    0.283E-01
DAV:   3    -0.122320125921E+04   -0.28162E-04   -0.19860E-03   960   0.301E-02    0.287E-01
DAV:   4    -0.122320092170E+04    0.33751E-03   -0.77493E-04   768   0.166E-02    0.115E-01
DAV:   5    -0.122320083839E+04    0.83314E-04   -0.15367E-04   660   0.621E-03
 433 F= -.12538679E+04 E0= -.12538052E+04  d E =-.190600E-03
       N       E                     dE             d eps       ncg     rms          rms(c)
DAV:   1    -0.122320078770E+04    0.13400E-03   -0.15963E-02  1152   0.103E-01    0.597E-02
DAV:   2    -0.122320088854E+04   -0.10084E-03   -0.13564E-03  1212   0.225E-02    0.125E-01
DAV:   3    -0.122320084658E+04    0.41953E-04   -0.13670E-03   672   0.953E-03    0.731E-02
DAV:   4    -0.122320085727E+04   -0.10685E-04   -0.94297E-04   648   0.989E-03
 434 F= -.12538680E+04 E0= -.12538065E+04  d E =-.967917E-04
       N       E                     dE             d eps       ncg     rms          rms(c)
DAV:   1    -0.122320081938E+04    0.27208E-04   -0.10427E-03  1080   0.214E-02    0.603E-02
DAV:   2    -0.122320208163E+04   -0.12623E-02   -0.35093E-03  1116   0.423E-02    0.400E-01
DAV:   3    -0.122320084612E+04    0.12355E-02   -0.31133E-03  1080   0.409E-02    0.877E-02
DAV:   4    -0.122320084240E+04    0.37152E-05   -0.31935E-04   672   0.802E-03
 435 F= -.12538680E+04 E0= -.12538060E+04  d E =-.957087E-04
       N       E                     dE             d eps       ncg     rms          rms(c)
DAV:   1    -0.122320086181E+04   -0.15690E-04   -0.11971E-02  1140   0.916E-02    0.756E-02
DAV:   2    -0.122320106858E+04   -0.20677E-03   -0.41344E-04   912   0.199E-02    0.185E-01
DAV:   3    -0.122320093422E+04    0.13435E-03   -0.24586E-04   720   0.150E-02    0.994E-02
DAV:   4    -0.122320091586E+04    0.18361E-04   -0.21358E-04   720   0.139E-02
 436 F= -.12538681E+04 E0= -.12538055E+04  d E =-.138718E-03
       N       E                     dE             d eps       ncg     rms          rms(c)
DAV:   1    -0.122320086099E+04    0.73235E-04   -0.45183E-04  1056   0.193E-02    0.386E-02
DAV:   2    -0.122320126191E+04   -0.40092E-03   -0.74034E-04   804   0.221E-02    0.272E-01
DAV:   3    -0.122320088778E+04    0.37414E-03   -0.85660E-04   828   0.240E-02    0.805E-02
DAV:   4    -0.122320085264E+04    0.35137E-04   -0.67750E-05   624   0.539E-03
 437 F= -.12538681E+04 E0= -.12538058E+04  d E =-.873288E-04
       N       E                     dE             d eps       ncg     rms          rms(c)
DAV:   1    -0.122320082316E+04    0.64615E-04   -0.15715E-03  1080   0.332E-02    0.188E-02
DAV:   2    -0.122320083229E+04   -0.91287E-05   -0.73012E-05   624   0.749E-03
 438 F= -.12538681E+04 E0= -.12538058E+04  d E =-.906461E-04
       N       E                     dE             d eps       ncg     rms          rms(c)
DAV:   1    -0.122320085502E+04   -0.31861E-04   -0.84990E-04  1044   0.240E-02    0.391E-02
DAV:   2    -0.122320125095E+04   -0.39592E-03   -0.98663E-04   840   0.214E-02    0.286E-01
DAV:   3    -0.122320094869E+04    0.30225E-03   -0.12230E-03   840   0.240E-02    0.996E-02
DAV:   4    -0.122320088954E+04    0.59151E-04   -0.12613E-04   624   0.657E-03
 439 F= -.12538681E+04 E0= -.12538057E+04  d E =-.131128E-03
       N       E                     dE             d eps       ncg     rms          rms(c)
DAV:   1    -0.122320083734E+04    0.11135E-03   -0.22439E-04   756   0.128E-02    0.182E-02
DAV:   2    -0.122320088252E+04   -0.45181E-04   -0.26307E-05   600   0.502E-03
 440 F= -.12538681E+04 E0= -.12538054E+04  d E =-.132493E-03
       N       E                     dE             d eps       ncg     rms          rms(c)
DAV:   1    -0.122320085037E+04   -0.13023E-04   -0.69140E-03  1140   0.709E-02    0.452E-02
DAV:   2    -0.122320178722E+04   -0.93685E-03   -0.16413E-03  1104   0.344E-02    0.451E-01
DAV:   3    -0.122320093488E+04    0.85234E-03   -0.13456E-03   948   0.300E-02    0.622E-02
DAV:   4    -0.122320091280E+04    0.22079E-04   -0.12830E-04   696   0.876E-03
 441 F= -.12538682E+04 E0= -.12538057E+04  d E =-.588727E-04
