basalPlane                              
           1
    15.900000    0.000000    0.000000
    -7.950000   13.769804    0.000000
     0.000000    0.000000   32.380000
   C    Cr   H    Mo   S 
  10   1  10  50 100
Direct configuration=     1
   0.52402221  0.34301927  0.46158692
   0.44396631  0.32461577  0.48723695
   0.58989403  0.44521635  0.46075249
   0.55049309  0.49125171  0.48639107
   0.45928290  0.41564340  0.50278720
   0.33690883  0.35295022  0.39556639
   0.40287664  0.51539497  0.41375495
   0.32380511  0.41903458  0.42179613
   0.46342139  0.50880571  0.38296747
   0.42358055  0.40947459  0.37177636
   0.45295968  0.42190470  0.43782005
   0.41148128  0.42566105  0.52369268
   0.26370628  0.39990649  0.44289946
   0.28879034  0.27483153  0.39343614
   0.41531226  0.58165429  0.42893476
   0.53147946  0.56890264  0.37163827
   0.38037466  0.25388071  0.49283941
   0.53128161  0.28870847  0.44397256
   0.65757796  0.48168171  0.44348389
   0.58474793  0.56841484  0.49319635
   0.45512097  0.38128719  0.34978746
   0.60000000  0.60000000  0.65735022
   0.20000000  0.80000000  0.21911674
   0.20000000  0.60000000  0.65735022
   0.60000000  0.80000000  0.21911674
   0.20000000  0.60000000  0.21911674
   0.60000000  0.80000000  0.65735022
   0.20000000  0.40000000  0.21911674
   0.80000000  0.00000000  0.21911674
   0.20000000  0.20000000  0.65735022
   0.80000000  0.00000000  0.65735022
   0.20000000  0.20000000  0.21911674
   0.20000000  0.80000000  0.65735022
   0.20000000  0.40000000  0.65735022
   0.60000000  0.60000000  0.21911674
   0.40000000  0.60000000  0.21911674
   0.40000000  0.00000000  0.65735022
   0.60000000  0.40000000  0.65735022
   0.40000000  0.20000000  0.21911674
   0.60000000  0.40000000  0.21911674
   0.40000000  0.20000000  0.65735022
   0.40000000  0.40000000  0.21911674
   0.60000000  0.20000000  0.65735022
   0.40000000  0.40000000  0.65735022
   0.60000000  0.20000000  0.21911674
   0.40000000  0.80000000  0.65735022
   0.40000000  0.60000000  0.65735022
   0.60000000  0.00000000  0.65735022
   0.40000000  0.80000000  0.21911674
   0.60000000  0.00000000  0.21911674
   0.40000000  0.00000000  0.21911674
   0.80000000  0.20000000  0.21911674
   0.20000000  0.00000000  0.65735022
   0.20000000  0.00000000  0.21911674
   0.00000000  0.00000000  0.21911674
   0.80000000  0.80000000  0.65735022
   0.00000000  0.00000000  0.65735022
   0.80000000  0.80000000  0.21911674
   0.00000000  0.20000000  0.21911674
   0.00000000  0.20000000  0.65735022
   0.80000000  0.60000000  0.65735022
   0.00000000  0.40000000  0.21911674
   0.00000000  0.40000000  0.65735022
   0.00000000  0.60000000  0.21911674
   0.80000000  0.40000000  0.65735022
   0.00000000  0.60000000  0.65735022
   0.80000000  0.60000000  0.21911674
   0.80000000  0.40000000  0.21911674
   0.00000000  0.80000000  0.65735022
   0.00000000  0.80000000  0.21911674
   0.80000000  0.20000000  0.65735022
   0.93333333  0.06666667  0.16985794
   0.73333333  0.26666667  0.60809141
   0.73333333  0.26666667  0.70660902
   0.93333333  0.66666667  0.70660902
   0.93333333  0.66666667  0.60809141
   0.73333333  0.26666667  0.16985794
   0.73333333  0.26666667  0.26837554
   0.93333333  0.46666667  0.26837554
   0.73333333  0.06666667  0.60809141
   0.73333333  0.06666667  0.70660902
   0.93333333  0.06666667  0.70660902
   0.93333333  0.86666667  0.16985794
   0.73333333  0.06666667  0.16985794
   0.93333333  0.06666667  0.60809141
   0.73333333  0.06666667  0.26837554
   0.93333333  0.26666667  0.16985794
   0.93333333  0.26666667  0.70660902
   0.93333333  0.86666667  0.26837554
   0.73333333  0.46666667  0.26837554
   0.73333333  0.46666667  0.16985794
   0.73333333  0.86666667  0.16985794
   0.73333333  0.86666667  0.70660902
   0.73333333  0.86666667  0.26837554
   0.93333333  0.46666667  0.16985794
   0.73333333  0.86666667  0.60809141
   0.73333333  0.66666667  0.60809141
   0.73333333  0.66666667  0.70660902
   0.93333333  0.46666667  0.70660902
   0.73333333  0.66666667  0.16985794
   0.93333333  0.46666667  0.60809141
   0.73333333  0.66666667  0.26837554
   0.93333333  0.26666667  0.60809141
   0.93333333  0.26666667  0.26837554
   0.73333333  0.46666667  0.60809141
   0.73333333  0.46666667  0.70660902
   0.93333333  0.66666667  0.26837554
   0.93333333  0.06666667  0.26837554
   0.93333333  0.66666667  0.16985794
   0.53333333  0.86666667  0.60809141
   0.53333333  0.06666667  0.70660902
   0.53333333  0.86666667  0.16985794
   0.33333333  0.26666667  0.16985794
   0.33333333  0.26666667  0.26837554
   0.33333333  0.06666667  0.60809141
   0.33333333  0.06666667  0.70660902
   0.33333333  0.06666667  0.16985794
   0.33333333  0.06666667  0.26837554
   0.13333333  0.86666667  0.60809141
   0.13333333  0.86666667  0.70660902
   0.13333333  0.86666667  0.16985794
   0.13333333  0.86666667  0.26837554
   0.13333333  0.66666667  0.60809141
   0.13333333  0.66666667  0.70660902
   0.33333333  0.26666667  0.70660902
   0.13333333  0.66666667  0.16985794
   0.13333333  0.46666667  0.60809141
   0.13333333  0.46666667  0.70660902
   0.13333333  0.46666667  0.16985794
   0.13333333  0.46666667  0.26837554
   0.13333333  0.26666667  0.60809141
   0.13333333  0.26666667  0.70660902
   0.13333333  0.26666667  0.16985794
   0.13333333  0.26666667  0.26837554
   0.13333333  0.06666667  0.60809141
   0.13333333  0.06666667  0.70660902
   0.13333333  0.06666667  0.16985794
   0.13333333  0.06666667  0.26837554
   0.13333333  0.66666667  0.26837554
   0.33333333  0.26666667  0.60809141
   0.33333333  0.46666667  0.26837554
   0.33333333  0.46666667  0.16985794
   0.53333333  0.86666667  0.26837554
   0.53333333  0.66666667  0.60809141
   0.53333333  0.66666667  0.70660902
   0.53333333  0.66666667  0.16985794
   0.53333333  0.66666667  0.26837554
   0.53333333  0.46666667  0.60809141
   0.53333333  0.46666667  0.70660902
   0.53333333  0.46666667  0.16985794
   0.53333333  0.46666667  0.26837554
   0.53333333  0.26666667  0.60809141
   0.53333333  0.26666667  0.70660902
   0.53333333  0.26666667  0.16985794
   0.53333333  0.26666667  0.26837554
   0.53333333  0.06666667  0.60809141
   0.93333333  0.86666667  0.70660902
   0.53333333  0.06666667  0.16985794
   0.53333333  0.06666667  0.26837554
   0.33333333  0.86666667  0.60809141
   0.33333333  0.86666667  0.70660902
   0.33333333  0.86666667  0.16985794
   0.33333333  0.86666667  0.26837554
   0.33333333  0.66666667  0.60809141
   0.33333333  0.66666667  0.70660902
   0.33333333  0.66666667  0.16985794
   0.33333333  0.66666667  0.26837554
   0.33333333  0.46666667  0.60809141
   0.33333333  0.46666667  0.70660902
   0.53333333  0.86666667  0.70660902
   0.93333333  0.86666667  0.60809141
Direct configuration=     2
   0.52415890  0.34305714  0.46162806
   0.44399110  0.32459198  0.48725382
   0.58995092  0.44518878  0.46082393
   0.55057070  0.49120235  0.48642575
   0.45929264  0.41566470  0.50279156
   0.33687594  0.35301968  0.39554737
   0.40283399  0.51539677  0.41368439
   0.32376646  0.41911627  0.42174841
   0.46338084  0.50882113  0.38292512
   0.42351496  0.40944141  0.37177272
   0.45288385  0.42176662  0.43780408
   0.41140560  0.42565864  0.52372239
   0.26373777  0.39992101  0.44291670
   0.28879247  0.27482869  0.39343699
   0.41532655  0.58165240  0.42894027
   0.53145257  0.56886851  0.37160748
   0.38034944  0.25385563  0.49285704
   0.53129389  0.28874295  0.44396995
   0.65754712  0.48168900  0.44348481
   0.58472397  0.56842359  0.49321249
   0.45509271  0.38127750  0.34978952
   0.59999293  0.59997492  0.65735973
   0.20000000  0.80000000  0.21911674
   0.20001302  0.60000321  0.65734513
   0.60000000  0.80000000  0.21911674
   0.20000000  0.60000000  0.21911674
   0.60000432  0.80001204  0.65734913
   0.20000000  0.40000000  0.21911674
   0.80000000  0.00000000  0.21911674
   0.20000294  0.20000948  0.65735846
   0.80000097  0.00000639  0.65734904
   0.20000000  0.20000000  0.21911674
   0.20000056  0.80000082  0.65734707
   0.19998073  0.39998163  0.65734897
   0.60000000  0.60000000  0.21911674
   0.40000000  0.60000000  0.21911674
   0.39998531 -0.00000744  0.65734643
   0.59997176  0.40000133  0.65734420
   0.40000000  0.20000000  0.21911674
   0.60000000  0.40000000  0.21911674
   0.40002117  0.20002480  0.65734093
   0.40000000  0.40000000  0.21911674
   0.59999522  0.20000015  0.65735101
   0.40004034  0.39999627  0.65733245
   0.60000000  0.20000000  0.21911674
   0.39999733  0.79999204  0.65734553
   0.40000794  0.60002016  0.65734377
   0.60001563 -0.00000134  0.65734747
   0.40000000  0.80000000  0.21911674
   0.60000000  0.00000000  0.21911674
   0.40000000  0.00000000  0.21911674
   0.80000000  0.20000000  0.21911674
   0.20000102 -0.00000075  0.65734923
   0.20000000  0.00000000  0.21911674
   0.00000000  0.00000000  0.21911674
   0.79999882  0.80000237  0.65735245
  -0.00000360 -0.00000076  0.65734058
   0.80000000  0.80000000  0.21911674
   0.00000000  0.20000000  0.21911674
  -0.00001213  0.19999561  0.65734900
   0.79999526  0.59999578  0.65734380
   0.00000000  0.40000000  0.21911674
  -0.00000113  0.39998190  0.65734714
   0.00000000  0.60000000  0.21911674
   0.79999983  0.40000056  0.65734878
   0.00000472  0.60001938  0.65734768
   0.80000000  0.60000000  0.21911674
   0.80000000  0.40000000  0.21911674
   0.00000139  0.79999797  0.65734985
   0.00000000  0.80000000  0.21911674
   0.80000481  0.19999583  0.65734798
   0.93333333  0.06666667  0.16985794
   0.73332524  0.26667075  0.60896290
   0.73333288  0.26666683  0.70573395
   0.93333300  0.66666574  0.70573514
   0.93332827  0.66666128  0.60896517
   0.73333333  0.26666667  0.16985794
   0.73333333  0.26666667  0.26837554
   0.93333333  0.46666667  0.26837554
   0.73333312  0.06666921  0.60896597
   0.73333246  0.06666581  0.70573524
   0.93333379  0.06666715  0.70573410
   0.93333333  0.86666667  0.16985794
   0.73333333  0.06666667  0.16985794
   0.93333197  0.06666661  0.60896635
   0.73333333  0.06666667  0.26837554
   0.93333333  0.26666667  0.16985794
   0.93333413  0.26666613  0.70573514
   0.93333333  0.86666667  0.26837554
   0.73333333  0.46666667  0.26837554
   0.73333333  0.46666667  0.16985794
   0.73333333  0.86666667  0.16985794
   0.73333117  0.86666595  0.70573397
   0.73333333  0.86666667  0.26837554
   0.93333333  0.46666667  0.16985794
   0.73333350  0.86666519  0.60896559
   0.73331946  0.66664583  0.60895023
   0.73333277  0.66666627  0.70573464
   0.93333266  0.46666705  0.70573536
   0.73333333  0.66666667  0.16985794
   0.93332548  0.46666623  0.60896457
   0.73333333  0.66666667  0.26837554
   0.93332941  0.26666482  0.60896558
   0.93333333  0.26666667  0.26837554
   0.73331493  0.46666066  0.60895060
   0.73333119  0.46666440  0.70573507
   0.93333333  0.66666667  0.26837554
   0.93333333  0.06666667  0.26837554
   0.93333333  0.66666667  0.16985794
   0.53333735  0.86667085  0.60896577
   0.53333254  0.06666714  0.70573490
   0.53333333  0.86666667  0.16985794
   0.33333333  0.26666667  0.16985794
   0.33333333  0.26666667  0.26837554
   0.33333998  0.06667753  0.60895944
   0.33333475  0.06666787  0.70573538
   0.33333333  0.06666667  0.16985794
   0.33333333  0.06666667  0.26837554
   0.13333257  0.86666498  0.60896620
   0.13333379  0.86666683  0.70573512
   0.13333333  0.86666667  0.16985794
   0.13333333  0.86666667  0.26837554
   0.13333042  0.66666637  0.60896710
   0.13333137  0.66666618  0.70573448
   0.33333469  0.26666856  0.70573683
   0.13333333  0.66666667  0.16985794
   0.13332676  0.46666641  0.60896556
   0.13333260  0.46666376  0.70573480
   0.13333333  0.46666667  0.16985794
   0.13333333  0.46666667  0.26837554
   0.13333423  0.26666410  0.60896117
   0.13333581  0.26667103  0.70573304
   0.13333333  0.26666667  0.16985794
   0.13333333  0.26666667  0.26837554
   0.13333865  0.06666930  0.60896354
   0.13333397  0.06666646  0.70573375
   0.13333333  0.06666667  0.16985794
   0.13333333  0.06666667  0.26837554
   0.13333333  0.66666667  0.26837554
   0.33335050  0.26667586  0.60892877
   0.33333333  0.46666667  0.26837554
   0.33333333  0.46666667  0.16985794
   0.53333333  0.86666667  0.26837554
   0.53333745  0.66664893  0.60894772
   0.53332962  0.66666149  0.70573411
   0.53333333  0.66666667  0.16985794
   0.53333333  0.66666667  0.26837554
   0.53338607  0.46668887  0.60897267
   0.53332942  0.46666732  0.70574284
   0.53333333  0.46666667  0.16985794
   0.53333333  0.46666667  0.26837554
   0.53333593  0.26668252  0.60893784
   0.53333214  0.26666715  0.70573448
   0.53333333  0.26666667  0.16985794
   0.53333333  0.26666667  0.26837554
   0.53333668  0.06667799  0.60896360
   0.93333311  0.86666649  0.70573441
   0.53333333  0.06666667  0.16985794
   0.53333333  0.06666667  0.26837554
   0.33333239  0.86666780  0.60896710
   0.33333381  0.86666884  0.70573480
   0.33333333  0.86666667  0.16985794
   0.33333333  0.86666667  0.26837554
   0.33332984  0.66667124  0.60896461
   0.33333451  0.66666613  0.70573652
   0.33333333  0.66666667  0.16985794
   0.33333333  0.66666667  0.26837554
   0.33336148  0.46666231  0.60893451
   0.33333774  0.46666518  0.70573630
   0.53333612  0.86666716  0.70573496
   0.93333054  0.86666307  0.60896578
Direct configuration=     3
   0.52417846  0.34306255  0.46163394
   0.44399465  0.32458857  0.48725624
   0.58995906  0.44518484  0.46083415
   0.55058180  0.49119529  0.48643071
   0.45929403  0.41566774  0.50279218
   0.33687123  0.35302961  0.39554465
   0.40282789  0.51539703  0.41367429
   0.32376094  0.41912796  0.42174159
   0.46337504  0.50882333  0.38291907
   0.42350558  0.40943666  0.37177219
   0.45287300  0.42174687  0.43780180
   0.41139478  0.42565829  0.52372664
   0.26374227  0.39992309  0.44291917
   0.28879277  0.27482828  0.39343712
   0.41532859  0.58165212  0.42894106
   0.53144873  0.56886362  0.37160307
   0.38034583  0.25385205  0.49285956
   0.53129565  0.28874789  0.44396957
   0.65754271  0.48169004  0.44348494
   0.58472055  0.56842484  0.49321480
   0.45508867  0.38127612  0.34978981
   0.59999192  0.59997133  0.65736110
   0.20000000  0.80000000  0.21911674
   0.20001489  0.60000367  0.65734440
   0.60000000  0.80000000  0.21911674
   0.20000000  0.60000000  0.21911674
   0.60000494  0.80001376  0.65734897
   0.20000000  0.40000000  0.21911674
   0.80000000  0.00000000  0.21911674
   0.20000336  0.20001083  0.65735964
   0.80000111  0.00000731  0.65734887
   0.20000000  0.20000000  0.21911674
   0.20000064  0.80000094  0.65734662
   0.19997797  0.39997901  0.65734879
   0.60000000  0.60000000  0.21911674
   0.40000000  0.60000000  0.21911674
   0.39998321 -0.00000851  0.65734589
   0.59996772  0.40000152  0.65734334
   0.40000000  0.20000000  0.21911674
   0.60000000  0.40000000  0.21911674
   0.40002420  0.20002835  0.65733960
   0.40000000  0.40000000  0.21911674
   0.59999454  0.20000018  0.65735113
   0.40004611  0.39999573  0.65732991
   0.60000000  0.20000000  0.21911674
   0.39999694  0.79999090  0.65734486
   0.40000907  0.60002305  0.65734285
   0.60001787 -0.00000153  0.65734707
   0.40000000  0.80000000  0.21911674
   0.60000000  0.00000000  0.21911674
   0.40000000  0.00000000  0.21911674
   0.80000000  0.20000000  0.21911674
   0.20000116 -0.00000086  0.65734909
   0.20000000  0.00000000  0.21911674
   0.00000000  0.00000000  0.21911674
   0.79999865  0.80000271  0.65735277
  -0.00000412 -0.00000087  0.65733920
   0.80000000  0.80000000  0.21911674
   0.00000000  0.20000000  0.21911674
  -0.00001386  0.19999498  0.65734883
   0.79999458  0.59999518  0.65734289
   0.00000000  0.40000000  0.21911674
  -0.00000129  0.39997931  0.65734671
   0.00000000  0.60000000  0.21911674
   0.79999981  0.40000064  0.65734857
   0.00000539  0.60002215  0.65734731
   0.80000000  0.60000000  0.21911674
   0.80000000  0.40000000  0.21911674
   0.00000159  0.79999768  0.65734980
   0.00000000  0.80000000  0.21911674
   0.80000550  0.19999523  0.65734766
   0.93333333  0.06666667  0.16985794
   0.73332408  0.26667134  0.60908755
   0.73333281  0.26666685  0.70560878
   0.93333295  0.66666561  0.70561015
   0.93332754  0.66666051  0.60909014
   0.73333333  0.26666667  0.16985794
   0.73333333  0.26666667  0.26837554
   0.93333333  0.46666667  0.26837554
   0.73333309  0.06666958  0.60909107
   0.73333233  0.06666568  0.70561026
   0.93333385  0.06666722  0.70560896
   0.93333333  0.86666667  0.16985794
   0.73333333  0.06666667  0.16985794
   0.93333178  0.06666660  0.60909150
   0.73333333  0.06666667  0.26837554
   0.93333333  0.26666667  0.16985794
   0.93333425  0.26666606  0.70561014
   0.93333333  0.86666667  0.26837554
   0.73333333  0.46666667  0.26837554
   0.73333333  0.46666667  0.16985794
   0.73333333  0.86666667  0.16985794
   0.73333086  0.86666585  0.70560881
   0.73333333  0.86666667  0.26837554
   0.93333333  0.46666667  0.16985794
   0.73333353  0.86666497  0.60909063
   0.73331747  0.66664285  0.60907307
   0.73333270  0.66666621  0.70560957
   0.93333256  0.46666711  0.70561040
   0.73333333  0.66666667  0.16985794
   0.93332435  0.46666617  0.60908947
   0.73333333  0.66666667  0.26837554
   0.93332885  0.26666456  0.60909062
   0.93333333  0.26666667  0.26837554
   0.73331230  0.46665981  0.60907349
   0.73333088  0.46666407  0.70561006
   0.93333333  0.66666667  0.26837554
   0.93333333  0.06666667  0.26837554
   0.93333333  0.66666667  0.16985794
   0.53333792  0.86667145  0.60909083
   0.53333242  0.06666721  0.70560987
   0.53333333  0.86666667  0.16985794
   0.33333333  0.26666667  0.16985794
   0.33333333  0.26666667  0.26837554
   0.33334093  0.06667908  0.60908360
   0.33333495  0.06666805  0.70561041
   0.33333333  0.06666667  0.16985794
   0.33333333  0.06666667  0.26837554
   0.13333246  0.86666474  0.60909133
   0.13333385  0.86666685  0.70561012
   0.13333333  0.86666667  0.16985794
   0.13333333  0.86666667  0.26837554
   0.13333000  0.66666633  0.60909236
   0.13333109  0.66666611  0.70560939
   0.33333488  0.26666883  0.70561208
   0.13333333  0.66666667  0.16985794
   0.13332582  0.46666638  0.60909060
   0.13333249  0.46666335  0.70560975
   0.13333333  0.46666667  0.16985794
   0.13333333  0.46666667  0.26837554
   0.13333435  0.26666373  0.60908558
   0.13333617  0.26667165  0.70560774
   0.13333333  0.26666667  0.16985794
   0.13333333  0.26666667  0.26837554
   0.13333941  0.06666968  0.60908828
   0.13333406  0.06666643  0.70560856
   0.13333333  0.06666667  0.16985794
   0.13333333  0.06666667  0.26837554
   0.13333333  0.66666667  0.26837554
   0.33335296  0.26667718  0.60904854
   0.33333333  0.46666667  0.26837554
   0.33333333  0.46666667  0.16985794
   0.53333333  0.86666667  0.26837554
   0.53333804  0.66664639  0.60907021
   0.53332909  0.66666076  0.70560896
   0.53333333  0.66666667  0.16985794
   0.53333333  0.66666667  0.26837554
   0.53339362  0.46669204  0.60909873
   0.53332886  0.46666741  0.70561895
   0.53333333  0.46666667  0.16985794
   0.53333333  0.46666667  0.26837554
   0.53333630  0.26668479  0.60905891
   0.53333197  0.26666722  0.70560939
   0.53333333  0.26666667  0.16985794
   0.53333333  0.26666667  0.26837554
   0.53333715  0.06667961  0.60908836
   0.93333308  0.86666647  0.70560931
   0.53333333  0.06666667  0.16985794
   0.53333333  0.06666667  0.26837554
   0.33333225  0.86666797  0.60909235
   0.33333388  0.86666916  0.70560976
   0.33333333  0.86666667  0.16985794
   0.33333333  0.86666667  0.26837554
   0.33332934  0.66667190  0.60908951
   0.33333467  0.66666605  0.70561173
   0.33333333  0.66666667  0.16985794
   0.33333333  0.66666667  0.26837554
   0.33336550  0.46666169  0.60905510
   0.33333837  0.46666496  0.70561146
   0.53333652  0.86666723  0.70560994
   0.93333014  0.86666255  0.60909085
Direct configuration=     4
   0.52417895  0.34306269  0.46163409
   0.44399474  0.32458849  0.48725630
   0.58995926  0.44518474  0.46083441
   0.55058208  0.49119511  0.48643083
   0.45929406  0.41566782  0.50279220
   0.33687111  0.35302986  0.39554458
   0.40282774  0.51539704  0.41367404
   0.32376080  0.41912825  0.42174141
   0.46337490  0.50882339  0.38291891
   0.42350535  0.40943654  0.37177218
   0.45287273  0.42174637  0.43780174
   0.41139450  0.42565829  0.52372675
   0.26374239  0.39992314  0.44291923
   0.28879278  0.27482827  0.39343712
   0.41532864  0.58165212  0.42894108
   0.53144863  0.56886350  0.37160296
   0.38034574  0.25385196  0.49285963
   0.53129570  0.28874801  0.44396957
   0.65754260  0.48169007  0.44348494
   0.58472046  0.56842488  0.49321486
   0.45508857  0.38127608  0.34978982
   0.59999189  0.59997124  0.65736113
   0.20000000  0.80000000  0.21911674
   0.20001493  0.60000368  0.65734439
   0.60000000  0.80000000  0.21911674
   0.20000000  0.60000000  0.21911674
   0.60000496  0.80001381  0.65734897
   0.20000000  0.40000000  0.21911674
   0.80000000  0.00000000  0.21911674
   0.20000337  0.20001087  0.65735967
   0.80000111  0.00000733  0.65734887
   0.20000000  0.20000000  0.21911674
   0.20000064  0.80000094  0.65734661
   0.19997791  0.39997894  0.65734879
   0.60000000  0.60000000  0.21911674
   0.40000000  0.60000000  0.21911674
   0.39998315 -0.00000854  0.65734588
   0.59996761  0.40000153  0.65734332
   0.40000000  0.20000000  0.21911674
   0.60000000  0.40000000  0.21911674
   0.40002427  0.20002844  0.65733957
   0.40000000  0.40000000  0.21911674
   0.59999452  0.20000018  0.65735113
   0.40004625  0.39999572  0.65732984
   0.60000000  0.20000000  0.21911674
   0.39999694  0.79999087  0.65734484
   0.40000910  0.60002312  0.65734283
   0.60001793 -0.00000154  0.65734706
   0.40000000  0.80000000  0.21911674
   0.60000000  0.00000000  0.21911674
   0.40000000  0.00000000  0.21911674
   0.80000000  0.20000000  0.21911674
   0.20000117 -0.00000086  0.65734908
   0.20000000  0.00000000  0.21911674
   0.00000000  0.00000000  0.21911674
   0.79999865  0.80000272  0.65735278
  -0.00000413 -0.00000087  0.65733917
   0.80000000  0.80000000  0.21911674
   0.00000000  0.20000000  0.21911674
  -0.00001390  0.19999496  0.65734882
   0.79999456  0.59999516  0.65734286
   0.00000000  0.40000000  0.21911674
  -0.00000129  0.39997924  0.65734669
   0.00000000  0.60000000  0.21911674
   0.79999981  0.40000065  0.65734856
   0.00000541  0.60002222  0.65734730
   0.80000000  0.60000000  0.21911674
   0.80000000  0.40000000  0.21911674
   0.00000160  0.79999767  0.65734980
   0.00000000  0.80000000  0.21911674
   0.80000552  0.19999522  0.65734766
   0.93333333  0.06666667  0.16985794
   0.73332405  0.26667135  0.60909068
   0.73333281  0.26666685  0.70560564
   0.93333295  0.66666560  0.70560701
   0.93332752  0.66666049  0.60909328
   0.73333333  0.26666667  0.16985794
   0.73333333  0.26666667  0.26837554
   0.93333333  0.46666667  0.26837554
   0.73333309  0.06666959  0.60909421
   0.73333233  0.06666568  0.70560712
   0.93333385  0.06666722  0.70560582
   0.93333333  0.86666667  0.16985794
   0.73333333  0.06666667  0.16985794
   0.93333177  0.06666660  0.60909464
   0.73333333  0.06666667  0.26837554
   0.93333333  0.26666667  0.16985794
   0.93333425  0.26666606  0.70560700
   0.93333333  0.86666667  0.26837554
   0.73333333  0.46666667  0.26837554
   0.73333333  0.46666667  0.16985794
   0.73333333  0.86666667  0.16985794
   0.73333086  0.86666585  0.70560567
   0.73333333  0.86666667  0.26837554
   0.93333333  0.46666667  0.16985794
   0.73333353  0.86666497  0.60909377
   0.73331742  0.66664278  0.60907615
   0.73333269  0.66666621  0.70560643
   0.93333256  0.46666711  0.70560726
   0.73333333  0.66666667  0.16985794
   0.93332432  0.46666616  0.60909260
   0.73333333  0.66666667  0.26837554
   0.93332884  0.26666455  0.60909376
   0.93333333  0.26666667  0.26837554
   0.73331224  0.46665978  0.60907658
   0.73333088  0.46666407  0.70560693
   0.93333333  0.66666667  0.26837554
   0.93333333  0.06666667  0.26837554
   0.93333333  0.66666667  0.16985794
   0.53333793  0.86667146  0.60909397
   0.53333242  0.06666721  0.70560673
   0.53333333  0.86666667  0.16985794
   0.33333333  0.26666667  0.16985794
   0.33333333  0.26666667  0.26837554
   0.33334096  0.06667912  0.60908671
   0.33333496  0.06666805  0.70560728
   0.33333333  0.06666667  0.16985794
   0.33333333  0.06666667  0.26837554
   0.13333246  0.86666474  0.60909447
   0.13333386  0.86666685  0.70560698
   0.13333333  0.86666667  0.16985794
   0.13333333  0.86666667  0.26837554
   0.13332999  0.66666632  0.60909550
   0.13333109  0.66666611  0.70560625
   0.33333489  0.26666883  0.70560894
   0.13333333  0.66666667  0.16985794
   0.13332580  0.46666638  0.60909374
   0.13333249  0.46666334  0.70560662
   0.13333333  0.46666667  0.16985794
   0.13333333  0.46666667  0.26837554
   0.13333436  0.26666372  0.60908870
   0.13333618  0.26667167  0.70560460
   0.13333333  0.26666667  0.16985794
   0.13333333  0.26666667  0.26837554
   0.13333943  0.06666969  0.60909141
   0.13333406  0.06666643  0.70560541
   0.13333333  0.06666667  0.16985794
   0.13333333  0.06666667  0.26837554
   0.13333333  0.66666667  0.26837554
   0.33335302  0.26667721  0.60905155
   0.33333333  0.46666667  0.26837554
   0.33333333  0.46666667  0.16985794
   0.53333333  0.86666667  0.26837554
   0.53333806  0.66664633  0.60907328
   0.53332908  0.66666074  0.70560582
   0.53333333  0.66666667  0.16985794
   0.53333333  0.66666667  0.26837554
   0.53339381  0.46669212  0.60910189
   0.53332884  0.46666741  0.70561584
   0.53333333  0.46666667  0.16985794
   0.53333333  0.46666667  0.26837554
   0.53333631  0.26668484  0.60906195
   0.53333196  0.26666723  0.70560625
   0.53333333  0.26666667  0.16985794
   0.53333333  0.26666667  0.26837554
   0.53333717  0.06667965  0.60909149
   0.93333308  0.86666647  0.70560617
   0.53333333  0.06666667  0.16985794
   0.53333333  0.06666667  0.26837554
   0.33333225  0.86666797  0.60909549
   0.33333388  0.86666916  0.70560662
   0.33333333  0.86666667  0.16985794
   0.33333333  0.86666667  0.26837554
   0.33332932  0.66667192  0.60909265
   0.33333468  0.66666605  0.70560859
   0.33333333  0.66666667  0.16985794
   0.33333333  0.66666667  0.26837554
   0.33336560  0.46666168  0.60905813
   0.33333839  0.46666496  0.70560833
   0.53333653  0.86666723  0.70560680
   0.93333013  0.86666254  0.60909399
Direct configuration=     5
   0.52417908  0.34306273  0.46163413
   0.44399476  0.32458846  0.48725632
   0.58995932  0.44518471  0.46083448
   0.55058216  0.49119506  0.48643086
   0.45929407  0.41566784  0.50279220
   0.33687108  0.35302993  0.39554456
   0.40282769  0.51539704  0.41367397
   0.32376076  0.41912833  0.42174137
   0.46337486  0.50882340  0.38291887
   0.42350528  0.40943651  0.37177218
   0.45287266  0.42174623  0.43780172
   0.41139443  0.42565828  0.52372678
   0.26374242  0.39992316  0.44291925
   0.28879278  0.27482827  0.39343712
   0.41532866  0.58165212  0.42894108
   0.53144860  0.56886347  0.37160293
   0.38034572  0.25385193  0.49285964
   0.53129571  0.28874804  0.44396956
   0.65754257  0.48169007  0.44348494
   0.58472044  0.56842488  0.49321487
   0.45508854  0.38127608  0.34978982
   0.59999189  0.59997122  0.65736114
   0.20000000  0.80000000  0.21911674
   0.20001495  0.60000368  0.65734438
   0.60000000  0.80000000  0.21911674
   0.20000000  0.60000000  0.21911674
   0.60000496  0.80001382  0.65734897
   0.20000000  0.40000000  0.21911674
   0.80000000  0.00000000  0.21911674
   0.20000337  0.20001088  0.65735968
   0.80000111  0.00000734  0.65734887
   0.20000000  0.20000000  0.21911674
   0.20000064  0.80000094  0.65734661
   0.19997789  0.39997892  0.65734879
   0.60000000  0.60000000  0.21911674
   0.40000000  0.60000000  0.21911674
   0.39998314 -0.00000854  0.65734587
   0.59996759  0.40000153  0.65734331
   0.40000000  0.20000000  0.21911674
   0.60000000  0.40000000  0.21911674
   0.40002429  0.20002846  0.65733956
   0.40000000  0.40000000  0.21911674
   0.59999452  0.20000018  0.65735113
   0.40004629  0.39999572  0.65732982
   0.60000000  0.20000000  0.21911674
   0.39999693  0.79999086  0.65734484
   0.40000911  0.60002314  0.65734282
   0.60001794 -0.00000154  0.65734706
   0.40000000  0.80000000  0.21911674
   0.60000000  0.00000000  0.21911674
   0.40000000  0.00000000  0.21911674
   0.80000000  0.20000000  0.21911674
   0.20000117 -0.00000086  0.65734908
   0.20000000  0.00000000  0.21911674
   0.00000000  0.00000000  0.21911674
   0.79999865  0.80000272  0.65735278
  -0.00000413 -0.00000087  0.65733916
   0.80000000  0.80000000  0.21911674
   0.00000000  0.20000000  0.21911674
  -0.00001391  0.19999496  0.65734882
   0.79999456  0.59999516  0.65734286
   0.00000000  0.40000000  0.21911674
  -0.00000129  0.39997922  0.65734669
   0.00000000  0.60000000  0.21911674
   0.79999981  0.40000065  0.65734856
   0.00000541  0.60002224  0.65734730
   0.80000000  0.60000000  0.21911674
   0.80000000  0.40000000  0.21911674
   0.00000160  0.79999767  0.65734980
   0.00000000  0.80000000  0.21911674
   0.80000552  0.19999521  0.65734765
   0.93333333  0.06666667  0.16985794
   0.73332404  0.26667136  0.60909154
   0.73333281  0.26666685  0.70560477
   0.93333295  0.66666560  0.70560614
   0.93332752  0.66666049  0.60909415
   0.73333333  0.26666667  0.16985794
   0.73333333  0.26666667  0.26837554
   0.93333333  0.46666667  0.26837554
   0.73333309  0.06666959  0.60909507
   0.73333233  0.06666568  0.70560626
   0.93333386  0.06666723  0.70560495
   0.93333333  0.86666667  0.16985794
   0.73333333  0.06666667  0.16985794
   0.93333177  0.06666660  0.60909550
   0.73333333  0.06666667  0.26837554
   0.93333333  0.26666667  0.16985794
   0.93333425  0.26666606  0.70560614
   0.93333333  0.86666667  0.26837554
   0.73333333  0.46666667  0.26837554
   0.73333333  0.46666667  0.16985794
   0.73333333  0.86666667  0.16985794
   0.73333085  0.86666585  0.70560480
   0.73333333  0.86666667  0.26837554
   0.93333333  0.46666667  0.16985794
   0.73333353  0.86666497  0.60909463