  93  93   0   0
  0.3967126E+02  0.9570947E-09  0.1276126E-08  0.3488026E-08  0.5000000E-15
  1.000000000000000E-004
  CAR 
 basalPlane                              
      2.54641916    -20.65264504  301      0.28952444      1.00000000
    -20.653  0.0000E+00  0.0000E+00
    -20.575  0.0000E+00  0.0000E+00
    -20.498  0.0000E+00  0.0000E+00
    -20.421  0.0000E+00  0.0000E+00
    -20.343  0.0000E+00  0.0000E+00
    -20.266  0.0000E+00  0.0000E+00
    -20.189  0.1436E-18  0.1110E-19
    -20.111  0.5092E-15  0.3939E-16
    -20.034  0.9167E-12  0.7093E-13
    -19.957  0.5125E-09  0.3970E-10
    -19.879  0.8982E-07  0.6985E-08
    -19.802  0.5001E-05  0.3937E-06
    -19.725  0.8999E-04  0.7353E-05
    -19.647  0.5340E-03  0.4865E-04
    -19.570  0.1064E-02  0.1309E-03
    -19.493  0.7177E-03  0.1864E-03
    -19.415  0.1643E-03  0.1991E-03
    -19.338  0.4527E-04  0.2026E-03
    -19.261  0.3024E-03  0.2260E-03
    -19.183  0.9231E-03  0.2974E-03
    -19.106  0.9535E-03  0.3711E-03
    -19.029  0.3331E-03  0.3969E-03
    -18.951  0.3885E-04  0.3999E-03
    -18.874  0.1484E-05  0.4000E-03
    -18.797  0.1821E-07  0.4000E-03
    -18.719  0.7065E-10  0.4000E-03
    -18.642  0.8564E-13  0.4000E-03
    -18.565  0.3216E-16  0.4000E-03
    -18.487  0.0000E+00  0.4000E-03
    -18.410  0.0000E+00  0.4000E-03
    -18.333  0.0000E+00  0.4000E-03
    -18.255  0.0000E+00  0.4000E-03
    -18.178  0.0000E+00  0.4000E-03
    -18.101  0.0000E+00  0.4000E-03
    -18.023  0.0000E+00  0.4000E-03
    -17.946  0.0000E+00  0.4000E-03
    -17.869  0.0000E+00  0.4000E-03
    -17.791  0.0000E+00  0.4000E-03
    -17.714  0.0000E+00  0.4000E-03
    -17.637  0.0000E+00  0.4000E-03
    -17.559  0.0000E+00  0.4000E-03
    -17.482  0.0000E+00  0.4000E-03
    -17.405  0.0000E+00  0.4000E-03
    -17.327  0.0000E+00  0.4000E-03
    -17.250  0.0000E+00  0.4000E-03
    -17.173  0.0000E+00  0.4000E-03
    -17.095  0.0000E+00  0.4000E-03
    -17.018  0.0000E+00  0.4000E-03
    -16.941  0.0000E+00  0.4000E-03
    -16.863  0.0000E+00  0.4000E-03
    -16.786  0.0000E+00  0.4000E-03
    -16.709  0.0000E+00  0.4000E-03
    -16.631  0.0000E+00  0.4000E-03
    -16.554  0.0000E+00  0.4000E-03
    -16.477  0.0000E+00  0.4000E-03
    -16.399  0.0000E+00  0.4000E-03
    -16.322  0.0000E+00  0.4000E-03
    -16.245  0.0000E+00  0.4000E-03
    -16.167  0.1723E-17  0.4000E-03
    -16.090  0.6916E-14  0.4000E-03
    -16.013  0.8477E-11  0.4000E-03
    -15.936  0.3251E-08  0.4000E-03
    -15.858  0.3962E-06  0.4000E-03
    -15.781  0.1576E-04  0.4012E-03
    -15.704  0.2135E-03  0.4178E-03
    -15.626  0.1044E-02  0.4985E-03
    -15.549  0.1961E-02  0.6501E-03
    -15.472  0.1464E-02  0.7633E-03
    -15.394  0.4270E-03  0.7963E-03
    -15.317  0.4604E-04  0.7999E-03
    -15.240  0.1726E-05  0.8000E-03
    -15.162  0.3923E-06  0.8000E-03
    -15.085  0.2013E-04  0.8016E-03
    -15.008  0.3657E-03  0.8299E-03
    -14.930  0.2348E-02  0.1011E-02
    -14.853  0.5885E-02  0.1467E-02
    -14.776  0.6773E-02  0.1990E-02
    -14.698  0.4075E-02  0.2305E-02
    -14.621  0.1734E-02  0.2439E-02
    -14.544  0.2644E-02  0.2644E-02
    -14.466  0.4515E-02  0.2993E-02
    -14.389  0.5327E-02  0.3405E-02
    -14.312  0.6400E-02  0.3900E-02
    -14.234  0.4780E-02  0.4270E-02
    -14.157  0.1565E-02  0.4391E-02
    -14.080  0.8564E-03  0.4457E-02
    -14.002  0.2907E-02  0.4682E-02
    -13.925  0.6261E-02  0.5166E-02
    -13.848  0.1058E-01  0.5984E-02
    -13.770  0.1377E-01  0.7049E-02
    -13.693  0.1071E-01  0.7877E-02
    -13.616  0.7570E-02  0.8463E-02
    -13.538  0.8743E-02  0.9139E-02
    -13.461  0.9419E-02  0.9867E-02
    -13.384  0.7297E-02  0.1043E-01
    -13.306  0.3708E-02  0.1072E-01
    -13.229  0.9540E-03  0.1079E-01
    -13.152  0.9883E-04  0.1080E-01
    -13.074  0.3647E-05  0.1080E-01
    -12.997  0.4497E-07  0.1080E-01
    -12.920  0.1787E-09  0.1080E-01
    -12.842  0.2240E-12  0.1080E-01
    -12.765  0.8729E-16  0.1080E-01
    -12.688  0.0000E+00  0.1080E-01
    -12.610  0.0000E+00  0.1080E-01
    -12.533  0.0000E+00  0.1080E-01
    -12.456  0.0000E+00  0.1080E-01
    -12.378  0.0000E+00  0.1080E-01
    -12.301  0.0000E+00  0.1080E-01
    -12.224  0.0000E+00  0.1080E-01
    -12.146  0.0000E+00  0.1080E-01
    -12.069  0.0000E+00  0.1080E-01
    -11.992  0.0000E+00  0.1080E-01
    -11.914  0.0000E+00  0.1080E-01
    -11.837  0.0000E+00  0.1080E-01
    -11.760  0.0000E+00  0.1080E-01
    -11.682  0.0000E+00  0.1080E-01
    -11.605  0.0000E+00  0.1080E-01
    -11.528  0.0000E+00  0.1080E-01
    -11.450  0.0000E+00  0.1080E-01
    -11.373  0.0000E+00  0.1080E-01
    -11.296  0.0000E+00  0.1080E-01
    -11.218  0.1436E-17  0.1080E-01
    -11.141  0.6484E-14  0.1080E-01
    -11.064  0.8827E-11  0.1080E-01
    -10.986  0.3747E-08  0.1080E-01
    -10.909  0.5012E-06  0.1080E-01
    -10.832  0.2141E-04  0.1080E-01
    -10.754  0.2977E-03  0.1082E-01
    -10.677  0.1374E-02  0.1093E-01
    -10.600  0.2176E-02  0.1110E-01
    -10.522  0.1606E-02  0.1122E-01
    -10.445  0.2264E-02  0.1140E-01
    -10.368  0.3154E-02  0.1164E-01
    -10.290  0.1698E-02  0.1177E-01
    -10.213  0.3745E-03  0.1180E-01
    -10.136  0.4183E-03  0.1183E-01
    -10.058  0.1004E-02  0.1191E-01
     -9.981  0.8582E-03  0.1198E-01
     -9.904  0.2478E-03  0.1200E-01
     -9.826  0.2382E-04  0.1200E-01
     -9.749  0.7473E-06  0.1200E-01
     -9.672  0.7508E-08  0.1200E-01
     -9.594  0.2379E-10  0.1200E-01
     -9.517  0.2351E-13  0.1200E-01
     -9.440  0.7178E-17  0.1200E-01
     -9.362  0.0000E+00  0.1200E-01
     -9.285  0.0000E+00  0.1200E-01
     -9.208  0.0000E+00  0.1200E-01
     -9.130  0.0000E+00  0.1200E-01
     -9.053  0.0000E+00  0.1200E-01
     -8.976  0.0000E+00  0.1200E-01
     -8.898  0.0000E+00  0.1200E-01
     -8.821  0.0000E+00  0.1200E-01
     -8.744  0.0000E+00  0.1200E-01
     -8.666  0.0000E+00  0.1200E-01
     -8.589  0.0000E+00  0.1200E-01
     -8.512  0.0000E+00  0.1200E-01
     -8.434  0.0000E+00  0.1200E-01
     -8.357  0.0000E+00  0.1200E-01
     -8.280  0.1436E-18  0.1200E-01
     -8.202  0.1086E-14  0.1200E-01
     -8.125  0.1750E-11  0.1200E-01
     -8.048  0.8767E-09  0.1200E-01
     -7.970  0.1378E-06  0.1200E-01
     -7.893  0.6891E-05  0.1200E-01
     -7.816  0.1116E-03  0.1201E-01
     -7.738  0.5970E-03  0.1206E-01
     -7.661  0.1074E-02  0.1214E-01
     -7.584  0.6539E-03  0.1219E-01
     -7.507  0.1364E-03  0.1220E-01
     -7.429  0.7754E-04  0.1221E-01
     -7.352  0.7085E-03  0.1226E-01
     -7.275  0.2795E-02  0.1248E-01
     -7.197  0.4637E-02  0.1283E-01
     -7.120  0.3806E-02  0.1313E-01
     -7.043  0.2301E-02  0.1331E-01
     -6.965  0.2008E-02  0.1346E-01
     -6.888  0.3429E-02  0.1373E-01
     -6.811  0.6925E-02  0.1426E-01
     -6.733  0.1111E-01  0.1512E-01
     -6.656  0.1027E-01  0.1592E-01
     -6.579  0.7508E-02  0.1650E-01
     -6.501  0.1097E-01  0.1735E-01
     -6.424  0.1528E-01  0.1853E-01
     -6.347  0.1407E-01  0.1962E-01
     -6.269  0.9440E-02  0.2035E-01
     -6.192  0.4520E-02  0.2070E-01
     -6.115  0.1204E-02  0.2079E-01
     -6.037  0.1383E-03  0.2080E-01
     -5.960  0.6081E-05  0.2080E-01
     -5.883  0.1079E-04  0.2080E-01
     -5.805  0.2108E-03  0.2082E-01
     -5.728  0.1502E-02  0.2093E-01
     -5.651  0.4239E-02  0.2126E-01
     -5.573  0.5419E-02  0.2168E-01
     -5.496  0.5047E-02  0.2207E-01
     -5.419  0.1011E-01  0.2285E-01
     -5.341  0.2037E-01  0.2443E-01
     -5.264  0.2024E-01  0.2599E-01
     -5.187  0.8951E-02  0.2669E-01
     -5.109  0.2817E-02  0.2690E-01
     -5.032  0.3616E-02  0.2718E-01
     -4.955  0.3712E-02  0.2747E-01
     -4.877  0.1742E-02  0.2760E-01
     -4.800  0.2444E-02  0.2779E-01
     -4.723  0.7318E-02  0.2836E-01
     -4.645  0.1027E-01  0.2915E-01
     -4.568  0.8135E-02  0.2978E-01
     -4.491  0.7605E-02  0.3037E-01
     -4.413  0.8990E-02  0.3107E-01
     -4.336  0.9228E-02  0.3178E-01
     -4.259  0.6298E-02  0.3227E-01
     -4.181  0.3661E-02  0.3255E-01
     -4.104  0.4939E-02  0.3293E-01
     -4.027  0.6382E-02  0.3343E-01
     -3.949  0.6215E-02  0.3391E-01
     -3.872  0.5546E-02  0.3433E-01
     -3.795  0.4198E-02  0.3466E-01
     -3.717  0.2268E-02  0.3483E-01
     -3.640  0.2173E-02  0.3500E-01
     -3.563  0.2560E-02  0.3520E-01
     -3.485  0.3449E-02  0.3547E-01
     -3.408  0.5714E-02  0.3591E-01
     -3.331  0.9087E-02  0.3661E-01
     -3.253  0.1365E-01  0.3767E-01
     -3.176  0.1422E-01  0.3877E-01
     -3.099  0.1088E-01  0.3961E-01
     -3.021  0.8376E-02  0.4026E-01
     -2.944  0.7325E-02  0.4082E-01
     -2.867  0.8831E-02  0.4151E-01
     -2.789  0.1088E-01  0.4235E-01
     -2.712  0.8597E-02  0.4301E-01
     -2.635  0.4113E-02  0.4333E-01
     -2.557  0.2807E-02  0.4355E-01
     -2.480  0.6193E-02  0.4403E-01
     -2.403  0.9476E-02  0.4476E-01
     -2.325  0.8150E-02  0.4539E-01
     -2.248  0.5346E-02  0.4580E-01
     -2.171  0.5147E-02  0.4620E-01
     -2.093  0.6162E-02  0.4668E-01
     -2.016  0.5593E-02  0.4711E-01
     -1.939  0.5051E-02  0.4750E-01
     -1.861  0.3090E-02  0.4774E-01
     -1.784  0.1352E-02  0.4784E-01
     -1.707  0.2626E-02  0.4805E-01
     -1.629  0.4182E-02  0.4837E-01
     -1.552  0.2971E-02  0.4860E-01
     -1.475  0.2185E-02  0.4877E-01
     -1.397  0.2002E-02  0.4892E-01
     -1.320  0.8579E-03  0.4899E-01
     -1.243  0.1351E-03  0.4900E-01
     -1.165  0.7438E-05  0.4900E-01
     -1.088  0.1378E-06  0.4900E-01
     -1.011  0.8320E-09  0.4900E-01
     -0.933  0.1600E-11  0.4900E-01
     -0.856  0.9645E-15  0.4900E-01
     -0.779  0.0000E+00  0.4900E-01
     -0.701  0.0000E+00  0.4900E-01
     -0.624  0.0000E+00  0.4900E-01
     -0.547  0.0000E+00  0.4900E-01
     -0.469  0.0000E+00  0.4900E-01
     -0.392  0.0000E+00  0.4900E-01
     -0.315  0.0000E+00  0.4900E-01
     -0.237  0.0000E+00  0.4900E-01
     -0.160  0.2441E-15  0.4900E-01
     -0.083  0.5638E-12  0.4900E-01
     -0.005  0.4113E-09  0.4900E-01
      0.072  0.9602E-07  0.4900E-01
      0.149  0.7307E-05  0.4900E-01
      0.227  0.1858E-03  0.4901E-01
      0.304  0.1629E-02  0.4914E-01
      0.381  0.5110E-02  0.4954E-01
      0.459  0.6241E-02  0.5002E-01
      0.536  0.4919E-02  0.5040E-01
      0.613  0.7162E-02  0.5095E-01
      0.690  0.1298E-01  0.5196E-01
      0.768  0.1650E-01  0.5323E-01
      0.845  0.1445E-01  0.5435E-01
      0.922  0.1275E-01  0.5534E-01
      1.000  0.8201E-02  0.5597E-01
      1.077  0.2806E-02  0.5619E-01
      1.154  0.2138E-02  0.5635E-01
      1.232  0.6361E-02  0.5684E-01
      1.309  0.1089E-01  0.5769E-01
      1.386  0.1152E-01  0.5858E-01
      1.464  0.9718E-02  0.5933E-01
      1.541  0.6210E-02  0.5981E-01
      1.618  0.2140E-02  0.5998E-01
      1.696  0.3049E-03  0.6000E-01
      1.773  0.1568E-04  0.6000E-01
      1.850  0.2711E-06  0.6000E-01
      1.928  0.1516E-08  0.6000E-01
      2.005  0.2678E-11  0.6000E-01
      2.082  0.1476E-14  0.6000E-01
      2.160  0.0000E+00  0.6000E-01
      2.237  0.0000E+00  0.6000E-01
      2.314  0.0000E+00  0.6000E-01
      2.392  0.0000E+00  0.6000E-01
      2.469  0.0000E+00  0.6000E-01
      2.546  0.0000E+00  0.6000E-01
