       N       E                     dE             d eps       ncg     rms          rms(c)
DAV:   1     0.440831430512E+04    0.44083E+04   -0.18179E+05   600   0.112E+03
DAV:   2    -0.462085050612E+01   -0.44129E+04   -0.42563E+04   972   0.268E+02
DAV:   3    -0.672847547387E+03   -0.66823E+03   -0.66014E+03   708   0.115E+02
DAV:   4    -0.706756606570E+03   -0.33909E+02   -0.33730E+02   840   0.283E+01
DAV:   5    -0.707949510977E+03   -0.11929E+01   -0.11819E+01   876   0.567E+00    0.123E+02
DAV:   6    -0.693799393311E+03    0.14150E+02   -0.69801E+02   840   0.459E+01    0.865E+01
DAV:   7    -0.690755151838E+03    0.30442E+01   -0.39092E+02   900   0.692E+01    0.631E+01
DAV:   8    -0.712606883156E+03   -0.21852E+02   -0.43077E+02   960   0.281E+01    0.858E+01
DAV:   9    -0.720588627165E+03   -0.79817E+01   -0.14380E+02   804   0.147E+01    0.594E+01
DAV:  10    -0.682390581322E+03    0.38198E+02   -0.37653E+01   816   0.166E+01    0.300E+01
DAV:  11    -0.660312997507E+03    0.22078E+02   -0.21902E+01   840   0.217E+01    0.284E+01
DAV:  12    -0.659697860471E+03    0.61514E+00   -0.92644E+00   780   0.336E+00    0.276E+01
DAV:  13    -0.659697742545E+03    0.11793E-03   -0.25817E-01   852   0.636E-01    0.274E+01
DAV:  14    -0.659286195103E+03    0.41155E+00   -0.28356E-01   912   0.881E-01    0.276E+01
DAV:  15    -0.659418179103E+03   -0.13198E+00   -0.65826E-02   768   0.390E-01    0.267E+01
DAV:  16    -0.656065054340E+03    0.33531E+01   -0.33023E+00   900   0.541E+00    0.193E+01
DAV:  17    -0.656752430769E+03   -0.68738E+00   -0.38017E+01   936   0.143E+01    0.308E+01
DAV:  18    -0.655456418002E+03    0.12960E+01   -0.11181E+01   744   0.204E+00    0.231E+01
DAV:  19    -0.655040225484E+03    0.41619E+00   -0.29497E-01   864   0.886E-01    0.202E+01
DAV:  20    -0.655056545544E+03   -0.16320E-01   -0.51966E-02   732   0.289E-01    0.202E+01
DAV:  21    -0.655055140130E+03    0.14054E-02   -0.12900E-02   900   0.234E-01    0.199E+01
DAV:  22    -0.654096777450E+03    0.95836E+00   -0.10702E+00   864   0.165E+00    0.131E+01
DAV:  23    -0.653786683489E+03    0.31009E+00   -0.18887E+00   804   0.244E+00    0.124E+01
DAV:  24    -0.653866221875E+03   -0.79538E-01   -0.84496E-01   912   0.204E+00    0.101E+01
DAV:  25    -0.653696609479E+03    0.16961E+00   -0.11630E-01   900   0.692E-01    0.942E+00
DAV:  26    -0.653706162363E+03   -0.95529E-02   -0.90526E-02   876   0.395E-01    0.928E+00
DAV:  27    -0.653688632281E+03    0.17530E-01   -0.86641E-02   840   0.508E-01    0.933E+00
DAV:  28    -0.653511971008E+03    0.17666E+00   -0.14947E-01   900   0.111E+00    0.928E+00
DAV:  29    -0.653540399603E+03   -0.28429E-01   -0.81642E-02   864   0.583E-01    0.949E+00
DAV:  30    -0.653505144601E+03    0.35255E-01   -0.30278E-02   756   0.290E-01    0.926E+00
DAV:  31    -0.653505010485E+03    0.13412E-03   -0.46119E-03   780   0.799E-02    0.924E+00
DAV:  32    -0.653556780232E+03   -0.51770E-01   -0.14489E-02   936   0.223E-01    0.957E+00
DAV:  33    -0.653555761800E+03    0.10184E-02   -0.48616E-03   792   0.125E-01    0.959E+00
DAV:  34    -0.653508064942E+03    0.47697E-01   -0.69749E-03   840   0.146E-01    0.929E+00
DAV:  35    -0.653368594446E+03    0.13947E+00   -0.37676E-01   804   0.288E-01    0.852E+00
DAV:  36    -0.653339237192E+03    0.29357E-01   -0.69125E-02   864   0.335E-01    0.803E+00
DAV:  37    -0.653310645747E+03    0.28591E-01   -0.28833E-02   804   0.236E-01    0.754E+00
DAV:  38    -0.653319189296E+03   -0.85435E-02   -0.44751E-03   768   0.982E-02    0.749E+00
DAV:  39    -0.653311288278E+03    0.79010E-02   -0.55583E-03   816   0.110E-01    0.729E+00
DAV:  40    -0.653252636145E+03    0.58652E-01   -0.62005E-02   864   0.398E-01    0.634E+00
DAV:  41    -0.653243099631E+03    0.95365E-02   -0.12155E-01   756   0.411E-01    0.534E+00
DAV:  42    -0.653294845531E+03   -0.51746E-01   -0.51487E-02   936   0.436E-01    0.499E+00
DAV:  43    -0.653370654158E+03   -0.75809E-01   -0.10283E-01   792   0.422E-01    0.460E+00
DAV:  44    -0.653450514197E+03   -0.79860E-01   -0.99451E-02   852   0.407E-01    0.443E+00
DAV:  45    -0.653462683045E+03   -0.12169E-01   -0.98320E-03   840   0.184E-01    0.433E+00
DAV:  46    -0.653521766434E+03   -0.59083E-01   -0.56935E-03   960   0.193E-01    0.425E+00
DAV:  47    -0.653635879990E+03   -0.11411E+00   -0.75782E-02   876   0.491E-01    0.441E+00
DAV:  48    -0.653724225275E+03   -0.88345E-01   -0.77873E-02   840   0.405E-01    0.516E+00
DAV:  49    -0.653706242083E+03    0.17983E-01   -0.72889E-03   864   0.225E-01    0.528E+00
DAV:  50    -0.653593750202E+03    0.11249E+00   -0.25878E-02   936   0.442E-01    0.488E+00
DAV:  51    -0.653405705720E+03    0.18804E+00   -0.39596E-01   948   0.131E+00    0.448E+00
DAV:  52    -0.653394645010E+03    0.11061E-01   -0.12322E-01   780   0.406E-01    0.368E+00
DAV:  53    -0.653402866637E+03   -0.82216E-02   -0.74430E-03   900   0.120E-01    0.368E+00
DAV:  54    -0.653429135112E+03   -0.26268E-01   -0.13455E-02   780   0.126E-01    0.422E+00
DAV:  55    -0.653395916606E+03    0.33219E-01   -0.17980E-02   960   0.189E-01    0.431E+00
DAV:  56    -0.653266399773E+03    0.12952E+00   -0.37057E-01   828   0.821E-01    0.305E+00
DAV:  57    -0.653275863060E+03   -0.94633E-02   -0.59157E-02   744   0.321E-01    0.315E+00
DAV:  58    -0.653276438572E+03   -0.57551E-03   -0.54989E-03   840   0.119E-01    0.316E+00
DAV:  59    -0.653295495801E+03   -0.19057E-01   -0.32038E-02   864   0.241E-01    0.357E+00
DAV:  60    -0.653288018524E+03    0.74773E-02   -0.51685E-03   792   0.104E-01    0.352E+00
DAV:  61    -0.653291354008E+03   -0.33355E-02   -0.49125E-02   852   0.296E-01    0.351E+00
DAV:  62    -0.653295473054E+03   -0.41190E-02   -0.34061E-02   840   0.240E-01    0.349E+00
DAV:  63    -0.653295995399E+03   -0.52235E-03   -0.57578E-03   864   0.993E-02    0.334E+00
DAV:  64    -0.653300206972E+03   -0.42116E-02   -0.11465E-03   708   0.426E-02    0.338E+00
DAV:  65    -0.653306772841E+03   -0.65659E-02   -0.99956E-04   768   0.422E-02    0.345E+00
DAV:  66    -0.653324427827E+03   -0.17655E-01   -0.74692E-03   816   0.107E-01    0.359E+00
DAV:  67    -0.653343302859E+03   -0.18875E-01   -0.71150E-03   816   0.107E-01    0.394E+00
DAV:  68    -0.653355134813E+03   -0.11832E-01   -0.24585E-03   840   0.636E-02    0.414E+00
DAV:  69    -0.653358256223E+03   -0.31214E-02   -0.27216E-04   612   0.226E-02    0.418E+00
DAV:  70    -0.653358933530E+03   -0.67731E-03   -0.37279E-05   384   0.967E-03    0.420E+00
DAV:  71    -0.653348288957E+03    0.10645E-01   -0.16970E-03   672   0.534E-02    0.401E+00
DAV:  72    -0.653340546132E+03    0.77428E-02   -0.60606E-04   792   0.336E-02    0.392E+00
DAV:  73    -0.653337602951E+03    0.29432E-02   -0.14423E-04   396   0.182E-02    0.387E+00
DAV:  74    -0.653323465011E+03    0.14138E-01   -0.12243E-03   780   0.451E-02    0.374E+00
DAV:  75    -0.653301632797E+03    0.21832E-01   -0.33622E-03   852   0.786E-02    0.347E+00
DAV:  76    -0.653176486513E+03    0.12515E+00   -0.79549E-01   804   0.113E+00    0.137E+00
DAV:  77    -0.653193640509E+03   -0.17154E-01   -0.13721E-01   768   0.480E-01    0.195E+00
DAV:  78    -0.653198165926E+03   -0.45254E-02   -0.44824E-03   948   0.942E-02    0.218E+00
DAV:  79    -0.653199984824E+03   -0.18189E-02   -0.20692E-04   564   0.283E-02    0.224E+00
DAV:  80    -0.653189595103E+03    0.10390E-01   -0.29084E-02   732   0.567E-02    0.166E+00
DAV:  81    -0.653216673305E+03   -0.27078E-01   -0.28635E-01   888   0.295E-01    0.194E+00
DAV:  82    -0.653209597823E+03    0.70755E-02   -0.61685E-02   840   0.241E-01    0.113E+00
DAV:  83    -0.653204843053E+03    0.47548E-02   -0.25981E-02   828   0.138E-01    0.151E+00
DAV:  84    -0.653200518805E+03    0.43242E-02   -0.31902E-02   792   0.137E-01    0.112E+00
DAV:  85    -0.653184074992E+03    0.16444E-01   -0.47468E-03   780   0.925E-02    0.118E+00
DAV:  86    -0.653188444478E+03   -0.43695E-02   -0.61086E-02   840   0.713E-02    0.173E+00
DAV:  87    -0.653190972307E+03   -0.25278E-02   -0.50852E-04   648   0.469E-02    0.180E+00
DAV:  88    -0.653192292427E+03   -0.13201E-02   -0.45538E-05   360   0.145E-02    0.185E+00
DAV:  89    -0.653192726627E+03   -0.43420E-03   -0.14435E-05   336   0.868E-03    0.188E+00
DAV:  90    -0.653191866708E+03    0.85992E-03   -0.19332E-05   336   0.690E-03    0.183E+00
DAV:  91    -0.653188305231E+03    0.35615E-02   -0.26097E-03   696   0.734E-02    0.147E+00
DAV:  92    -0.653180421564E+03    0.78837E-02   -0.22307E-02   768   0.432E-02    0.102E+00
DAV:  93    -0.653178977754E+03    0.14438E-02   -0.55686E-03   840   0.636E-02    0.911E-01
DAV:  94    -0.653178600601E+03    0.37715E-03   -0.13920E-03   756   0.498E-02    0.848E-01
DAV:  95    -0.653177684765E+03    0.91584E-03   -0.12693E-03   756   0.477E-02    0.654E-01
DAV:  96    -0.653177279418E+03    0.40535E-03   -0.20701E-03   744   0.574E-02    0.482E-01
DAV:  97    -0.653179235114E+03   -0.19557E-02   -0.29713E-02   720   0.421E-02    0.674E-01
DAV:  98    -0.653178127271E+03    0.11078E-02   -0.21138E-04   540   0.280E-02    0.503E-01
DAV:  99    -0.653179835044E+03   -0.17078E-02   -0.19778E-04   432   0.264E-02    0.690E-01
DAV: 100    -0.653182682613E+03   -0.28476E-02   -0.13311E-03   636   0.281E-02    0.902E-01
DAV: 101    -0.653179521482E+03    0.31611E-02   -0.16137E-03   408   0.228E-02    0.554E-01
DAV: 102    -0.653178741886E+03    0.77960E-03   -0.13689E-04   456   0.229E-02    0.491E-01
DAV: 103    -0.653178331280E+03    0.41061E-03   -0.34015E-05   360   0.112E-02    0.433E-01
DAV: 104    -0.653177256131E+03    0.10751E-02   -0.30644E-05   336   0.105E-02    0.301E-01
DAV: 105    -0.653177085171E+03    0.17096E-03   -0.17505E-05   336   0.846E-03    0.277E-01
DAV: 106    -0.653176878432E+03    0.20674E-03   -0.70101E-05   336   0.796E-03    0.213E-01
DAV: 107    -0.653176580252E+03    0.29818E-03   -0.20531E-05   348   0.662E-03    0.129E-01
DAV: 108    -0.653176484286E+03    0.95966E-04   -0.16528E-05   336   0.695E-03
   1 F= -.66854262E+03 E0= -.66848427E+03  d E =-.668543E+03
       N       E                     dE             d eps       ncg     rms          rms(c)
DAV:   1    -0.651367119868E+03    0.18095E+01   -0.35830E+02   600   0.215E+01    0.542E+01
DAV:   2    -0.653942591794E+03   -0.25755E+01   -0.28233E+01   780   0.652E+00    0.268E+01
DAV:   3    -0.655141550063E+03   -0.11990E+01   -0.19900E+01   876   0.901E+00    0.235E+01
DAV:   4    -0.654011102296E+03    0.11304E+01   -0.10815E+01   864   0.575E+00    0.211E+01
DAV:   5    -0.653692719233E+03    0.31838E+00   -0.31088E+00   900   0.399E+00    0.121E+01
DAV:   6    -0.653528617128E+03    0.16410E+00   -0.87773E-01   804   0.112E+00    0.818E+00
DAV:   7    -0.653597673207E+03   -0.69056E-01   -0.15702E+00   876   0.111E+00    0.433E+00
DAV:   8    -0.653558283287E+03    0.39390E-01   -0.28456E-02   780   0.320E-01    0.401E+00
DAV:   9    -0.653501185292E+03    0.57098E-01   -0.63821E-02   888   0.421E-01    0.257E+00
DAV:  10    -0.653506219705E+03   -0.50344E-02   -0.25628E-01   768   0.266E-01    0.214E+00
DAV:  11    -0.653486206747E+03    0.20013E-01   -0.17629E-01   852   0.399E-01    0.836E-01
DAV:  12    -0.653488779228E+03   -0.25725E-02   -0.94283E-02   840   0.225E-01    0.136E+00
DAV:  13    -0.653484387693E+03    0.43915E-02   -0.45882E-02   840   0.133E-01    0.245E-01
DAV:  14    -0.653484752232E+03   -0.36454E-03   -0.15159E-03   792   0.677E-02    0.413E-01
DAV:  15    -0.653484411301E+03    0.34093E-03   -0.63512E-04   672   0.335E-02    0.188E-01
DAV:  16    -0.653484231943E+03    0.17936E-03   -0.52401E-04   600   0.365E-02    0.128E-01
DAV:  17    -0.653484066391E+03    0.16555E-03   -0.10623E-04   432   0.185E-02    0.106E-01
DAV:  18    -0.653484025867E+03    0.40524E-04   -0.58500E-05   348   0.123E-02
   2 F= -.66886626E+03 E0= -.66880697E+03  d E =-.323639E+00
       N       E                     dE             d eps       ncg     rms          rms(c)
DAV:   1    -0.654289167189E+03   -0.80510E+00   -0.92243E+01   600   0.112E+01    0.180E+01
DAV:   2    -0.654820516543E+03   -0.53135E+00   -0.63396E+00   792   0.316E+00    0.655E+00
DAV:   3    -0.655815265713E+03   -0.99475E+00   -0.12743E+01   852   0.594E+00    0.103E+01
DAV:   4    -0.654757374598E+03    0.10579E+01   -0.30686E+00   864   0.539E+00    0.467E+00
DAV:   5    -0.654799096881E+03   -0.41722E-01   -0.18218E+00   816   0.140E+00    0.368E+00
DAV:   6    -0.654854945992E+03   -0.55849E-01   -0.84214E-01   900   0.106E+00    0.383E+00
DAV:   7    -0.654761983579E+03    0.92962E-01   -0.52371E-01   852   0.103E+00    0.181E+00
DAV:   8    -0.654741419156E+03    0.20564E-01   -0.14957E-01   816   0.374E-01    0.977E-01
DAV:   9    -0.654728402293E+03    0.13017E-01   -0.46637E-02   864   0.172E-01    0.538E-01
DAV:  10    -0.654719612063E+03    0.87902E-02   -0.58441E-03   804   0.107E-01    0.323E-01
DAV:  11    -0.654711607174E+03    0.80049E-02   -0.30518E-02   744   0.859E-02    0.552E-01
DAV:  12    -0.654709813426E+03    0.17937E-02   -0.35291E-02   780   0.105E-01    0.214E-01
DAV:  13    -0.654708113387E+03    0.17000E-02   -0.73056E-04   732   0.526E-02    0.121E-01
DAV:  14    -0.654708141166E+03   -0.27779E-04   -0.40755E-04   540   0.335E-02
   3 F= -.67007576E+03 E0= -.67001514E+03  d E =-.153314E+01
       N       E                     dE             d eps       ncg     rms          rms(c)
DAV:   1    -0.653477069926E+03    0.12310E+01   -0.15521E+02   600   0.163E+01    0.641E+00
DAV:   2    -0.653962102484E+03   -0.48503E+00   -0.60024E+00   804   0.323E+00    0.459E+00
DAV:   3    -0.654429562597E+03   -0.46746E+00   -0.66937E+00   888   0.303E+00    0.718E+00
DAV:   4    -0.653929894414E+03    0.49967E+00   -0.14864E+00   864   0.268E+00    0.415E+00
DAV:   5    -0.654022054851E+03   -0.92160E-01   -0.22570E+00   876   0.127E+00    0.411E+00
DAV:   6    -0.653922238692E+03    0.99816E-01   -0.13426E+00   792   0.568E-01    0.355E+00
DAV:   7    -0.653896248741E+03    0.25990E-01   -0.13505E-02   864   0.227E-01    0.327E+00
DAV:   8    -0.653877809083E+03    0.18440E-01   -0.91641E-02   972   0.316E-01    0.190E+00
DAV:   9    -0.653866109484E+03    0.11700E-01   -0.78500E-02   864   0.484E-01    0.903E-01
DAV:  10    -0.653862226113E+03    0.38834E-02   -0.24422E-02   792   0.221E-01    0.373E-01
DAV:  11    -0.653863378780E+03   -0.11527E-02   -0.45504E-03   816   0.109E-01    0.905E-01
DAV:  12    -0.653862436191E+03    0.94259E-03   -0.61903E-03   804   0.105E-01    0.569E-01
DAV:  13    -0.653862041192E+03    0.39500E-03   -0.34804E-03   768   0.718E-02    0.496E-01
DAV:  14    -0.653861544235E+03    0.49696E-03   -0.16103E-03   684   0.571E-02    0.261E-01
DAV:  15    -0.653861520250E+03    0.23986E-04   -0.78935E-04   492   0.379E-02
   4 F= -.66923153E+03 E0= -.66917697E+03  d E =0.844230E+00
       N       E                     dE             d eps       ncg     rms          rms(c)
DAV:   1    -0.654829063117E+03   -0.96752E+00   -0.68590E+01   600   0.106E+01    0.452E+00
DAV:   2    -0.654991585345E+03   -0.16252E+00   -0.22214E+00   744   0.197E+00    0.193E+00
DAV:   3    -0.655100738294E+03   -0.10915E+00   -0.14621E+00   864   0.155E+00    0.463E+00
DAV:   4    -0.655029819549E+03    0.70919E-01   -0.14126E+00   876   0.157E+00    0.342E+00
DAV:   5    -0.654985618906E+03    0.44201E-01   -0.22039E+00   804   0.748E-01    0.113E+00
DAV:   6    -0.654979255659E+03    0.63632E-02   -0.54333E-02   804   0.363E-01    0.104E+00
DAV:   7    -0.654971018214E+03    0.82374E-02   -0.10631E-01   876   0.275E-01    0.149E+00
DAV:   8    -0.654968490506E+03    0.25277E-02   -0.12546E-02   792   0.137E-01    0.523E-01
DAV:   9    -0.654964444292E+03    0.40462E-02   -0.31054E-03   852   0.911E-02    0.405E-01
DAV:  10    -0.654958709581E+03    0.57347E-02   -0.15056E-03   780   0.536E-02    0.422E-01
DAV:  11    -0.654952827729E+03    0.58819E-02   -0.12474E-03   804   0.597E-02    0.264E-01
DAV:  12    -0.654950586546E+03    0.22412E-02   -0.28623E-04   552   0.284E-02    0.120E-01
DAV:  13    -0.654950113757E+03    0.47279E-03   -0.26046E-04   480   0.313E-02    0.140E-01
DAV:  14    -0.654950073201E+03    0.40557E-04   -0.24018E-04   408   0.233E-02
   5 F= -.67031832E+03 E0= -.67025861E+03  d E =-.242563E+00
       N       E                     dE             d eps       ncg     rms          rms(c)
DAV:   1    -0.655096324595E+03   -0.14621E+00   -0.55245E+01   600   0.971E+00    0.268E+00
DAV:   2    -0.655275617626E+03   -0.17929E+00   -0.20388E+00   864   0.204E+00    0.407E+00
DAV:   3    -0.655387374924E+03   -0.11176E+00   -0.23383E+00   864   0.243E+00    0.554E+00
DAV:   4    -0.655171858455E+03    0.21552E+00   -0.21771E-01   888   0.134E+00    0.168E+00
DAV:   5    -0.655163517224E+03    0.83412E-02   -0.17173E-01   840   0.562E-01    0.972E-01
DAV:   6    -0.655166101202E+03   -0.25840E-02   -0.34738E-01   828   0.470E-01    0.156E+00
DAV:   7    -0.655152037047E+03    0.14064E-01   -0.92566E-02   816   0.246E-01    0.404E-01
DAV:   8    -0.655149581805E+03    0.24552E-02   -0.41951E-03   888   0.143E-01    0.211E-01
DAV:   9    -0.655149983387E+03   -0.40158E-03   -0.20286E-03   864   0.885E-02    0.513E-01
DAV:  10    -0.655149701192E+03    0.28220E-03   -0.23905E-03   768   0.851E-02    0.372E-01
DAV:  11    -0.655149404660E+03    0.29653E-03   -0.64697E-04   636   0.406E-02    0.564E-02
DAV:  12    -0.655149415833E+03   -0.11173E-04   -0.21806E-04   516   0.268E-02
   6 F= -.67051137E+03 E0= -.67045524E+03  d E =-.193052E+00
       N       E                     dE             d eps       ncg     rms          rms(c)
DAV:   1    -0.655149736907E+03   -0.33225E-03   -0.35392E-01   600   0.779E-01    0.237E-01
DAV:   2    -0.655152629203E+03   -0.28923E-02   -0.10600E-02   864   0.211E-01    0.981E-01
DAV:   3    -0.655152204752E+03    0.42445E-03   -0.13622E-02   792   0.191E-01    0.861E-01
DAV:   4    -0.655150903253E+03    0.13015E-02   -0.58498E-03   744   0.953E-02    0.168E-01
DAV:   5    -0.655150292835E+03    0.61042E-03   -0.14268E-03   720   0.633E-02    0.234E-01
DAV:   6    -0.655150079374E+03    0.21346E-03   -0.43479E-04   624   0.372E-02    0.587E-02
DAV:   7    -0.655150101284E+03   -0.21910E-04   -0.20397E-04   492   0.257E-02
   7 F= -.67051273E+03 E0= -.67045650E+03  d E =-.194408E+00
       N       E                     dE             d eps       ncg     rms          rms(c)
DAV:   1    -0.655204764836E+03   -0.54685E-01   -0.22305E+01   600   0.587E+00    0.225E+00
DAV:   2    -0.655531211582E+03   -0.32645E+00   -0.23163E+00   852   0.224E+00    0.576E+00
DAV:   3    -0.655319952991E+03    0.21126E+00   -0.19182E+00   876   0.292E+00    0.350E+00
DAV:   4    -0.655313450295E+03    0.65027E-02   -0.12342E+00   816   0.110E+00    0.374E+00
DAV:   5    -0.655262757239E+03    0.50693E-01   -0.32589E-02   828   0.312E-01    0.131E+00
DAV:   6    -0.655261228047E+03    0.15292E-02   -0.16818E-01   876   0.461E-01    0.130E+00
DAV:   7    -0.655277092102E+03   -0.15864E-01   -0.17741E-01   840   0.365E-01    0.257E+00
DAV:   8    -0.655256881019E+03    0.20211E-01   -0.12939E-01   828   0.177E-01    0.135E+00
DAV:   9    -0.655258344957E+03   -0.14639E-02   -0.10642E-02   876   0.836E-02    0.164E+00
DAV:  10    -0.655251536663E+03    0.68083E-02   -0.38404E-02   852   0.157E-01    0.189E-01
DAV:  11    -0.655251326488E+03    0.21018E-03   -0.30363E-03   732   0.657E-02    0.465E-01
DAV:  12    -0.655250689264E+03    0.63722E-03   -0.35311E-04   492   0.274E-02    0.134E-01
DAV:  13    -0.655250781825E+03   -0.92561E-04   -0.11441E-04   420   0.218E-02
   8 F= -.67061029E+03 E0= -.67055329E+03  d E =-.975629E-01
       N       E                     dE             d eps       ncg     rms          rms(c)
DAV:   1    -0.655251236304E+03   -0.54704E-03   -0.23646E-01   600   0.605E-01    0.221E-01
DAV:   2    -0.655254484260E+03   -0.32480E-02   -0.19692E-02   828   0.171E-01    0.105E+00
DAV:   3    -0.655253439266E+03    0.10450E-02   -0.25282E-02   816   0.207E-01    0.787E-01
DAV:   4    -0.655252607307E+03    0.83196E-03   -0.49583E-03   624   0.105E-01    0.398E-01
DAV:   5    -0.655251857587E+03    0.74972E-03   -0.11499E-03   564   0.528E-02    0.905E-02
DAV:   6    -0.655251813084E+03    0.44503E-04   -0.24000E-04   528   0.296E-02
   9 F= -.67061161E+03 E0= -.67055510E+03  d E =-.988797E-01
       N       E                     dE             d eps       ncg     rms          rms(c)
DAV:   1    -0.655323813930E+03   -0.71956E-01   -0.62519E+00   600   0.310E+00    0.118E+00
DAV:   2    -0.655345524267E+03   -0.21710E-01   -0.22567E-01   768   0.680E-01    0.130E+00
DAV:   3    -0.655406593609E+03   -0.61069E-01   -0.80620E-01   876   0.878E-01    0.349E+00
DAV:   4    -0.655352660261E+03    0.53933E-01   -0.50534E-01   840   0.821E-01    0.193E+00
DAV:   5    -0.655346393113E+03    0.62671E-02   -0.27491E-02   840   0.244E-01    0.529E-01
DAV:   6    -0.655340741939E+03    0.56512E-02   -0.13190E-02   888   0.240E-01    0.520E-01
DAV:   7    -0.655341044908E+03   -0.30297E-03   -0.18114E-03   768   0.647E-02    0.566E-01
DAV:   8    -0.655340322528E+03    0.72238E-03   -0.16031E-03   744   0.792E-02    0.335E-01
DAV:   9    -0.655340060759E+03    0.26177E-03   -0.23476E-04   528   0.290E-02    0.235E-01
DAV:  10    -0.655340006732E+03    0.54026E-04   -0.16147E-04   408   0.260E-02
  10 F= -.67069738E+03 E0= -.67064054E+03  d E =-.857731E-01
       N       E                     dE             d eps       ncg     rms          rms(c)
DAV:   1    -0.655356013747E+03   -0.15953E-01   -0.10330E+01   600   0.398E+00    0.151E+00
DAV:   2    -0.655409937882E+03   -0.53924E-01   -0.42355E-01   816   0.969E-01    0.312E+00
DAV:   3    -0.655477096253E+03   -0.67158E-01   -0.17430E+00   888   0.130E+00    0.368E+00
DAV:   4    -0.655400523079E+03    0.76573E-01   -0.57413E-01   840   0.110E+00    0.212E+00
DAV:   5    -0.655390952476E+03    0.95706E-02   -0.10627E-01   816   0.339E-01    0.781E-01
DAV:   6    -0.655383942362E+03    0.70101E-02   -0.24792E-02   876   0.289E-01    0.602E-01
DAV:   7    -0.655384627915E+03   -0.68555E-03   -0.30969E-03   792   0.996E-02    0.336E-01
DAV:   8    -0.655383016003E+03    0.16119E-02   -0.22582E-03   792   0.925E-02    0.201E-01
DAV:   9    -0.655382862304E+03    0.15370E-03   -0.46274E-04   720   0.416E-02    0.524E-02
DAV:  10    -0.655382894984E+03   -0.32680E-04   -0.10160E-04   444   0.233E-02
  11 F= -.67073757E+03 E0= -.67068091E+03  d E =-.125962E+00
       N       E                     dE             d eps       ncg     rms          rms(c)
DAV:   1    -0.655430658453E+03   -0.47796E-01   -0.46971E+00   600   0.278E+00    0.105E+00
DAV:   2    -0.655585261526E+03   -0.15460E+00   -0.16095E+00   864   0.146E+00    0.420E+00
DAV:   3    -0.655452321387E+03    0.13294E+00   -0.28119E-01   864   0.138E+00    0.203E+00
DAV:   4    -0.655444390622E+03    0.79308E-02   -0.27608E-02   888   0.237E-01    0.917E-01
DAV:   5    -0.655439934521E+03    0.44561E-02   -0.10591E-02   864   0.210E-01    0.312E-01
DAV:   6    -0.655439059230E+03    0.87529E-03   -0.10079E-02   792   0.138E-01    0.335E-01
DAV:   7    -0.655438942495E+03    0.11673E-03   -0.73946E-03   828   0.115E-01    0.699E-01
DAV:   8    -0.655438848081E+03    0.94414E-04   -0.81079E-04   792   0.589E-02
  12 F= -.67079103E+03 E0= -.67073795E+03  d E =-.534552E-01
       N       E                     dE             d eps       ncg     rms          rms(c)
DAV:   1    -0.655451000902E+03   -0.12058E-01   -0.57895E+00   600   0.307E+00    0.160E+00
DAV:   2    -0.655816552655E+03   -0.36555E+00   -0.39040E+00   876   0.246E+00    0.558E+00
DAV:   3    -0.655467848054E+03    0.34870E+00   -0.76136E-01   840   0.207E+00    0.113E+00
DAV:   4    -0.655469613075E+03   -0.17650E-02   -0.21140E-01   888   0.432E-01    0.198E+00
DAV:   5    -0.655458711458E+03    0.10902E-01   -0.83261E-02   888   0.160E-01    0.334E-01
DAV:   6    -0.655457274149E+03    0.14373E-02   -0.49087E-03   864   0.150E-01    0.300E-01
DAV:   7    -0.655461165313E+03   -0.38912E-02   -0.10348E-02   876   0.136E-01    0.109E+00
DAV:   8    -0.655461708195E+03   -0.54288E-03   -0.71333E-03   828   0.108E-01    0.141E+00
DAV:   9    -0.655458799341E+03    0.29089E-02   -0.74032E-04   660   0.477E-02    0.900E-01
DAV:  10    -0.655457147466E+03    0.16519E-02   -0.11209E-03   816   0.674E-02    0.350E-01
DAV:  11    -0.655457045085E+03    0.10238E-03   -0.47944E-04   648   0.439E-02    0.133E-01
DAV:  12    -0.655457086236E+03   -0.41151E-04   -0.86654E-05   420   0.181E-02
  13 F= -.67080661E+03 E0= -.67075128E+03  d E =-.690417E-01
       N       E                     dE             d eps       ncg     rms          rms(c)
DAV:   1    -0.655491537772E+03   -0.34493E-01   -0.46323E+00   600   0.280E+00    0.692E-01
DAV:   2    -0.655501577475E+03   -0.10040E-01   -0.11211E-01   768   0.493E-01    0.907E-01
DAV:   3    -0.655528557370E+03   -0.26980E-01   -0.35774E-01   876   0.538E-01    0.291E+00
DAV:   4    -0.655505526186E+03    0.23031E-01   -0.31569E-01   840   0.498E-01    0.129E+00
DAV:   5    -0.655501642167E+03    0.38840E-02   -0.12765E-02   876   0.175E-01    0.449E-01
DAV:   6    -0.655499070704E+03    0.25715E-02   -0.47454E-03   876   0.148E-01    0.457E-01
DAV:   7    -0.655499163213E+03   -0.92510E-04   -0.12784E-03   816   0.542E-02    0.486E-01
DAV:   8    -0.655498553178E+03    0.61004E-03   -0.11734E-03   708   0.694E-02    0.221E-01
DAV:   9    -0.655498467942E+03    0.85236E-04   -0.18652E-04   540   0.292E-02
  14 F= -.67084547E+03 E0= -.67078924E+03  d E =-.388596E-01
       N       E                     dE             d eps       ncg     rms          rms(c)
DAV:   1    -0.655505293325E+03   -0.67401E-02   -0.27635E+00   600   0.216E+00    0.546E-01
DAV:   2    -0.655516703872E+03   -0.11411E-01   -0.72975E-02   816   0.447E-01    0.173E+00
DAV:   3    -0.655520876887E+03   -0.41730E-02   -0.19986E-01   876   0.427E-01    0.191E+00
DAV:   4    -0.655513811752E+03    0.70651E-02   -0.13651E-01   852   0.307E-01    0.111E+00
DAV:   5    -0.655511035324E+03    0.27764E-02   -0.70541E-03   864   0.131E-01    0.299E-01
DAV:   6    -0.655510101236E+03    0.93409E-03   -0.32286E-03   852   0.124E-01    0.388E-01
DAV:   7    -0.655509826966E+03    0.27427E-03   -0.84639E-04   792   0.511E-02    0.377E-01
DAV:   8    -0.655509395100E+03    0.43187E-03   -0.61149E-04   564   0.523E-02    0.145E-01
DAV:   9    -0.655509404130E+03   -0.90294E-05   -0.10098E-04   456   0.226E-02
  15 F= -.67085449E+03 E0= -.67079801E+03  d E =-.478755E-01
       N       E                     dE             d eps       ncg     rms          rms(c)
DAV:   1    -0.655544957793E+03   -0.35563E-01   -0.32913E+00   600   0.231E+00    0.119E+00
DAV:   2    -0.655752225403E+03   -0.20727E+00   -0.10073E+00   864   0.156E+00    0.517E+00
DAV:   3    -0.655561094813E+03    0.19113E+00   -0.45259E-01   864   0.177E+00    0.146E+00
DAV:   4    -0.655569053077E+03   -0.79583E-02   -0.16807E-01   876   0.391E-01    0.264E+00
DAV:   5    -0.655553719451E+03    0.15334E-01   -0.80672E-03   852   0.144E-01    0.967E-01
DAV:   6    -0.655549468701E+03    0.42508E-02   -0.80718E-03   864   0.171E-01    0.208E-01
DAV:   7    -0.655550605819E+03   -0.11371E-02   -0.26256E-03   828   0.907E-02    0.577E-01
DAV:   8    -0.655550473645E+03    0.13217E-03   -0.88378E-04   756   0.553E-02    0.380E-01
DAV:   9    -0.655550366006E+03    0.10764E-03   -0.41116E-04   636   0.391E-02    0.542E-01
DAV:  10    -0.655549807698E+03    0.55831E-03   -0.48072E-04   552   0.377E-02    0.273E-01
DAV:  11    -0.655549660169E+03    0.14753E-03   -0.24362E-04   444   0.305E-02    0.919E-02
DAV:  12    -0.655549732435E+03   -0.72266E-04   -0.49634E-05   372   0.137E-02
  16 F= -.67089267E+03 E0= -.67083482E+03  d E =-.381863E-01
       N       E                     dE             d eps       ncg     rms          rms(c)
DAV:   1    -0.655555652750E+03   -0.59926E-02   -0.69956E+00   600   0.336E+00    0.162E+00
DAV:   2    -0.655776787190E+03   -0.22113E+00   -0.11284E+00   864   0.173E+00    0.522E+00
DAV:   3    -0.655599554264E+03    0.17723E+00   -0.11745E+00   888   0.220E+00    0.276E+00
DAV:   4    -0.655601233685E+03   -0.16794E-02   -0.71422E-01   852   0.751E-01    0.322E+00
DAV:   5    -0.655575371650E+03    0.25862E-01   -0.11469E-02   828   0.209E-01    0.170E+00
DAV:   6    -0.655574275696E+03    0.10960E-02   -0.18963E-03   768   0.826E-02    0.197E+00
DAV:   7    -0.655569357945E+03    0.49178E-02   -0.44127E-02   876   0.261E-01    0.878E-01
DAV:   8    -0.655569232627E+03    0.12532E-03   -0.23564E-02   864   0.178E-01    0.101E+00
DAV:   9    -0.655570737540E+03   -0.15049E-02   -0.72395E-03   792   0.101E-01    0.148E+00
DAV:  10    -0.655566824319E+03    0.39132E-02   -0.83695E-03   744   0.787E-02    0.800E-01
DAV:  11    -0.655565286049E+03    0.15383E-02   -0.39581E-03   828   0.802E-02    0.306E-01
DAV:  12    -0.655565379474E+03   -0.93426E-04   -0.45620E-04   648   0.338E-02
  17 F= -.67090533E+03 E0= -.67084452E+03  d E =-.508442E-01
       N       E                     dE             d eps       ncg     rms          rms(c)
DAV:   1    -0.655585319804E+03   -0.20034E-01   -0.28932E+00   600   0.208E+00    0.972E-01
DAV:   2    -0.655638213422E+03   -0.52894E-01   -0.26654E-01   864   0.770E-01    0.363E+00
DAV:   3    -0.655622008248E+03    0.16205E-01   -0.86807E-01   864   0.915E-01    0.274E+00
DAV:   4    -0.655599275813E+03    0.22732E-01   -0.32393E-01   840   0.472E-01    0.124E+00
DAV:   5    -0.655594017183E+03    0.52586E-02   -0.10537E-02   852   0.161E-01    0.439E-01
DAV:   6    -0.655593710422E+03    0.30676E-03   -0.10619E-02   876   0.157E-01    0.821E-01
DAV:   7    -0.655593500275E+03    0.21015E-03   -0.26057E-03   768   0.626E-02    0.630E-01
DAV:   8    -0.655592306054E+03    0.11942E-02   -0.49687E-03   744   0.668E-02    0.367E-01
DAV:   9    -0.655591999236E+03    0.30682E-03   -0.79719E-04   468   0.430E-02    0.114E-01
DAV:  10    -0.655592066899E+03   -0.67663E-04   -0.10857E-04   444   0.190E-02
  18 F= -.67093058E+03 E0= -.67086968E+03  d E =-.252463E-01
       N       E                     dE             d eps       ncg     rms          rms(c)
DAV:   1    -0.655594916252E+03   -0.29170E-02   -0.24420E+00   600   0.191E+00    0.830E-01
DAV:   2    -0.655624316014E+03   -0.29400E-01   -0.16690E-01   852   0.594E-01    0.291E+00
DAV:   3    -0.655625661407E+03   -0.13454E-02   -0.67203E-01   876   0.722E-01    0.260E+00
DAV:   4    -0.655605669048E+03    0.19992E-01   -0.25424E-01   828   0.420E-01    0.999E-01
DAV:   5    -0.655602644836E+03    0.30242E-02   -0.86947E-03   840   0.140E-01    0.463E-01
DAV:   6    -0.655602145484E+03    0.49935E-03   -0.10297E-02   864   0.137E-01    0.690E-01
DAV:   7    -0.655601752760E+03    0.39272E-03   -0.28859E-03   720   0.556E-02    0.582E-01
DAV:   8    -0.655600794279E+03    0.95848E-03   -0.23890E-03   648   0.688E-02    0.200E-01
DAV:   9    -0.655600784297E+03    0.99826E-05   -0.17869E-04   432   0.250E-02
  19 F= -.67093805E+03 E0= -.67087660E+03  d E =-.327179E-01
       N       E                     dE             d eps       ncg     rms          rms(c)
DAV:   1    -0.655628625787E+03   -0.27832E-01   -0.24981E+00   600   0.199E+00    0.876E-01
DAV:   2    -0.655683640845E+03   -0.55015E-01   -0.56298E-01   888   0.754E-01    0.333E+00
DAV:   3    -0.655656144505E+03    0.27496E-01   -0.62305E-01   876   0.875E-01    0.278E+00
DAV:   4    -0.655636327647E+03    0.19817E-01   -0.47199E-02   852   0.305E-01    0.590E-01
DAV:   5    -0.655632587712E+03    0.37399E-02   -0.95190E-03   828   0.159E-01    0.282E-01
DAV:   6    -0.655632368921E+03    0.21879E-03   -0.13382E-03   744   0.614E-02    0.269E-01
DAV:   7    -0.655633152863E+03   -0.78394E-03   -0.47803E-03   780   0.752E-02    0.195E-01
DAV:   8    -0.655632196075E+03    0.95679E-03   -0.13563E-03   732   0.584E-02    0.248E-01
DAV:   9    -0.655632124280E+03    0.71795E-04   -0.12743E-04   396   0.200E-02
  20 F= -.67096821E+03 E0= -.67090834E+03  d E =-.301579E-01
       N       E                     dE             d eps       ncg     rms          rms(c)
DAV:   1    -0.655637662169E+03   -0.54661E-02   -0.15526E+00   600   0.157E+00    0.806E-01
DAV:   2    -0.655722868809E+03   -0.85207E-01   -0.83737E-01   900   0.900E-01    0.374E+00
DAV:   3    -0.655654388044E+03    0.68481E-01   -0.53710E-01   888   0.941E-01    0.214E+00
DAV:   4    -0.655644439031E+03    0.99490E-02   -0.32456E-02   852   0.222E-01    0.860E-01
DAV:   5    -0.655640444444E+03    0.39946E-02   -0.83875E-03   816   0.164E-01    0.434E-01
DAV:   6    -0.655640321322E+03    0.12312E-03   -0.11909E-03   756   0.649E-02    0.515E-01
DAV:   7    -0.655639787265E+03    0.53406E-03   -0.20122E-03   756   0.573E-02    0.134E-01
DAV:   8    -0.655639717483E+03    0.69782E-04   -0.88578E-04   648   0.509E-02
  21 F= -.67097495E+03 E0= -.67091650E+03  d E =-.368995E-01
       N       E                     dE             d eps       ncg     rms          rms(c)
DAV:   1    -0.655656129915E+03   -0.16343E-01   -0.16579E+00   624   0.168E+00    0.768E-01
DAV:   2    -0.655763998087E+03   -0.10787E+00   -0.10627E+00   888   0.104E+00    0.395E+00
DAV:   3    -0.655668588297E+03    0.95410E-01   -0.47072E-01   864   0.101E+00    0.172E+00
DAV:   4    -0.655662718887E+03    0.58694E-02   -0.22237E-02   852   0.197E-01    0.952E-01
DAV:   5    -0.655658801368E+03    0.39175E-02   -0.64596E-03   876   0.153E-01    0.389E-01
DAV:   6    -0.655658433768E+03    0.36760E-03   -0.13453E-03   744   0.731E-02    0.491E-01
DAV:   7    -0.655657766932E+03    0.66684E-03   -0.11713E-03   780   0.633E-02    0.170E-01
DAV:   8    -0.655657978208E+03   -0.21128E-03   -0.61173E-04   768   0.464E-02    0.293E-01
DAV:   9    -0.655657897487E+03    0.80721E-04   -0.20902E-04   516   0.231E-02
  22 F= -.67099169E+03 E0= -.67093407E+03  d E =-.167423E-01
       N       E                     dE             d eps       ncg     rms          rms(c)
DAV:   1    -0.655662418537E+03   -0.44403E-02   -0.15611E+00   600   0.163E+00    0.767E-01
DAV:   2    -0.655780043435E+03   -0.11762E+00   -0.11615E+00   888   0.109E+00    0.406E+00
DAV:   3    -0.655673657809E+03    0.10639E+00   -0.43361E-01   864   0.113E+00    0.155E+00
DAV:   4    -0.655669078462E+03    0.45793E-02   -0.22228E-02   840   0.193E-01    0.107E+00
DAV:   5    -0.655664991266E+03    0.40872E-02   -0.59990E-03   888   0.145E-01    0.412E-01
DAV:   6    -0.655664891123E+03    0.10014E-03   -0.12013E-03   744   0.718E-02    0.564E-01
DAV:   7    -0.655663917331E+03    0.97379E-03   -0.11138E-03   744   0.612E-02    0.968E-02
DAV:   8    -0.655664223565E+03   -0.30623E-03   -0.54606E-04   636   0.539E-02    0.339E-01
DAV:   9    -0.655664137071E+03    0.86494E-04   -0.18410E-04   552   0.255E-02
  23 F= -.67099659E+03 E0= -.67093988E+03  d E =-.216396E-01
       N       E                     dE             d eps       ncg     rms          rms(c)
DAV:   1    -0.655677366499E+03   -0.13143E-01   -0.72519E-01   600   0.109E+00    0.336E-01
DAV:   2    -0.655695542854E+03   -0.18176E-01   -0.16173E-01   864   0.422E-01    0.246E+00
DAV:   3    -0.655682982495E+03    0.12560E-01   -0.17764E-01   840   0.392E-01    0.109E+00
DAV:   4    -0.655679663984E+03    0.33185E-02   -0.47056E-03   816   0.114E-01    0.383E-01
DAV:   5    -0.655678676417E+03    0.98757E-03   -0.13927E-03   768   0.831E-02    0.125E-01
DAV:   6    -0.655678782192E+03   -0.10578E-03   -0.53385E-04   684   0.470E-02    0.257E-01
DAV:   7    -0.655678443513E+03    0.33868E-03   -0.40984E-04   672   0.462E-02    0.509E-02
DAV:   8    -0.655678463104E+03   -0.19590E-04   -0.13684E-04   444   0.241E-02
  24 F= -.67100988E+03 E0= -.67095255E+03  d E =-.132935E-01
       N       E                     dE             d eps       ncg     rms          rms(c)
DAV:   1    -0.655694152112E+03   -0.15709E-01   -0.65178E+00   600   0.328E+00    0.811E-01
DAV:   2    -0.655719568192E+03   -0.25416E-01   -0.26876E-01   816   0.717E-01    0.225E+00
DAV:   3    -0.655730608330E+03   -0.11040E-01   -0.30355E-01   888   0.641E-01    0.290E+00
DAV:   4    -0.655711492400E+03    0.19116E-01   -0.31584E-02   876   0.355E-01    0.988E-01
DAV:   5    -0.655706212124E+03    0.52803E-02   -0.61262E-03   840   0.171E-01    0.391E-01
DAV:   6    -0.655705975093E+03    0.23703E-03   -0.53473E-03   876   0.116E-01    0.802E-01
DAV:   7    -0.655704534390E+03    0.14407E-02   -0.34856E-03   852   0.854E-02    0.849E-02
DAV:   8    -0.655704416073E+03    0.11832E-03   -0.67104E-04   648   0.504E-02    0.122E-01
DAV:   9    -0.655704421690E+03   -0.56168E-05   -0.10247E-04   432   0.243E-02
  25 F= -.67103287E+03 E0= -.67097531E+03  d E =-.362783E-01
       N       E                     dE             d eps       ncg     rms          rms(c)
DAV:   1    -0.655705926881E+03   -0.15108E-02   -0.89464E-01   600   0.121E+00    0.297E-01
DAV:   2    -0.655707687411E+03   -0.17605E-02   -0.21557E-02   804   0.221E-01    0.223E-01
DAV:   3    -0.655711009153E+03   -0.33217E-02   -0.61704E-03   852   0.162E-01    0.123E+00
DAV:   4    -0.655708512513E+03    0.24966E-02   -0.73388E-03   756   0.159E-01    0.543E-01
DAV:   5    -0.655707968071E+03    0.54444E-03   -0.14241E-03   756   0.702E-02    0.168E-01
DAV:   6    -0.655707419214E+03    0.54886E-03   -0.64467E-04   744   0.552E-02    0.964E-02
DAV:   7    -0.655707392758E+03    0.26456E-04   -0.19561E-04   552   0.298E-02
  26 F= -.67103478E+03 E0= -.67097796E+03  d E =-.381953E-01
       N       E                     dE             d eps       ncg     rms          rms(c)
DAV:   1    -0.655722405420E+03   -0.14986E-01   -0.13100E+00   600   0.141E+00    0.509E-01
DAV:   2    -0.655726145875E+03   -0.37405E-02   -0.43617E-02   840   0.293E-01    0.393E-01
DAV:   3    -0.655740969158E+03   -0.14823E-01   -0.25694E-02   852   0.322E-01    0.245E+00
DAV:   4    -0.655728112543E+03    0.12857E-01   -0.21387E-02   792   0.284E-01    0.642E-01
DAV:   5    -0.655726729029E+03    0.13835E-02   -0.32568E-03   780   0.104E-01    0.402E-01
DAV:   6    -0.655725679792E+03    0.10492E-02   -0.92948E-04   780   0.669E-02    0.223E-01
DAV:   7    -0.655725570455E+03    0.10934E-03   -0.21110E-04   540   0.282E-02    0.195E-01
DAV:   8    -0.655725537403E+03    0.33052E-04   -0.71820E-05   384   0.196E-02
  27 F= -.67105074E+03 E0= -.67099440E+03  d E =-.159594E-01
       N       E                     dE             d eps       ncg     rms          rms(c)
DAV:   1    -0.655730345676E+03   -0.47752E-02   -0.18923E+00   600   0.169E+00    0.616E-01
DAV:   2    -0.655735596151E+03   -0.52505E-02   -0.63099E-02   840   0.352E-01    0.401E-01
DAV:   3    -0.655750828231E+03   -0.15232E-01   -0.25994E-02   828   0.322E-01    0.249E+00
DAV:   4    -0.655737186431E+03    0.13642E-01   -0.22959E-02   840   0.283E-01    0.601E-01
DAV:   5    -0.655736236103E+03    0.95033E-03   -0.45209E-03   816   0.994E-02    0.618E-01
DAV:   6    -0.655735373955E+03    0.86215E-03   -0.15643E-03   816   0.849E-02    0.398E-01
DAV:   7    -0.655735246976E+03    0.12698E-03   -0.49347E-04   660   0.452E-02    0.336E-01
DAV:   8    -0.655734903140E+03    0.34384E-03   -0.23080E-04   480   0.368E-02    0.163E-01
DAV:   9    -0.655734889325E+03    0.13815E-04   -0.79684E-05   420   0.187E-02
  28 F= -.67105751E+03 E0= -.67100113E+03  d E =-.227253E-01
       N       E                     dE             d eps       ncg     rms          rms(c)
DAV:   1    -0.655750252971E+03   -0.15350E-01   -0.13332E+00   600   0.146E+00    0.581E-01
DAV:   2    -0.655766043299E+03   -0.15790E-01   -0.12999E-01   876   0.454E-01    0.215E+00
DAV:   3    -0.655767549553E+03   -0.15063E-02   -0.17428E-01   864   0.504E-01    0.225E+00
DAV:   4    -0.655755986998E+03    0.11563E-01   -0.12423E-02   828   0.201E-01    0.395E-01
DAV:   5    -0.655754223565E+03    0.17634E-02   -0.41033E-03   792   0.109E-01    0.328E-01
DAV:   6    -0.655753751024E+03    0.47254E-03   -0.16726E-03   756   0.697E-02    0.144E-01
DAV:   7    -0.655753602193E+03    0.14883E-03   -0.88024E-04   708   0.587E-02    0.216E-01
DAV:   8    -0.655753478283E+03    0.12391E-03   -0.14574E-04   420   0.255E-02    0.746E-02
DAV:   9    -0.655753497530E+03   -0.19247E-04   -0.45802E-05   372   0.162E-02
  29 F= -.67107349E+03 E0= -.67101715E+03  d E =-.159807E-01
       N       E                     dE             d eps       ncg     rms          rms(c)
DAV:   1    -0.655754227166E+03   -0.74888E-03   -0.98960E+00   600   0.399E+00    0.155E+00
DAV:   2    -0.655815571024E+03   -0.61344E-01   -0.65699E-01   876   0.105E+00    0.320E+00
DAV:   3    -0.655892402608E+03   -0.76832E-01   -0.10821E+00   876   0.125E+00    0.442E+00
DAV:   4    -0.655785798071E+03    0.10660E+00   -0.91921E-02   840   0.804E-01    0.549E-01
DAV:   5    -0.655784504641E+03    0.12934E-02   -0.71110E-02   804   0.219E-01    0.852E-01
DAV:   6    -0.655778354409E+03    0.61502E-02   -0.47039E-02   816   0.177E-01    0.294E-01
DAV:   7    -0.655778577202E+03   -0.22279E-03   -0.40618E-03   804   0.101E-01    0.162E-01
DAV:   8    -0.655778256753E+03    0.32045E-03   -0.13206E-03   816   0.573E-02    0.716E-02
DAV:   9    -0.655778231669E+03    0.25085E-04   -0.31164E-04   576   0.325E-02
  30 F= -.67109121E+03 E0= -.67103467E+03  d E =-.337012E-01
       N       E                     dE             d eps       ncg     rms          rms(c)
DAV:   1    -0.655797091011E+03   -0.18834E-01   -0.33452E+00   600   0.231E+00    0.656E-01
DAV:   2    -0.655824916046E+03   -0.27825E-01   -0.10936E-01   864   0.593E-01    0.288E+00
DAV:   3    -0.655816394026E+03    0.85220E-02   -0.25994E-01   876   0.536E-01    0.207E+00
DAV:   4    -0.655807575635E+03    0.88184E-02   -0.11535E-01   852   0.256E-01    0.115E+00
DAV:   5    -0.655803734566E+03    0.38411E-02   -0.46896E-03   840   0.124E-01    0.369E-01
DAV:   6    -0.655803945106E+03   -0.21054E-03   -0.43461E-03   816   0.150E-01    0.667E-01
DAV:   7    -0.655803389036E+03    0.55607E-03   -0.13491E-03   744   0.626E-02    0.683E-01
DAV:   8    -0.655802544910E+03    0.84413E-03   -0.50907E-04   612   0.494E-02    0.386E-01
DAV:   9    -0.655802346122E+03    0.19879E-03   -0.15172E-04   456   0.255E-02    0.242E-01
DAV:  10    -0.655802343487E+03    0.26347E-05   -0.53988E-05   408   0.140E-02
  31 F= -.67111190E+03 E0= -.67105446E+03  d E =-.206862E-01
       N       E                     dE             d eps       ncg     rms          rms(c)
DAV:   1    -0.655804260815E+03   -0.19147E-02   -0.13679E+01   600   0.466E+00    0.140E+00
DAV:   2    -0.655945297671E+03   -0.14104E+00   -0.75832E-01   864   0.136E+00    0.452E+00
DAV:   3    -0.655866226158E+03    0.79072E-01   -0.96945E-01   888   0.147E+00    0.309E+00
DAV:   4    -0.655847225953E+03    0.19000E-01   -0.49222E-01   840   0.568E-01    0.241E+00
DAV:   5    -0.655829346179E+03    0.17880E-01   -0.14247E-02   804   0.210E-01    0.507E-01
DAV:   6    -0.655829241700E+03    0.10448E-03   -0.35997E-02   864   0.218E-01    0.650E-01
DAV:   7    -0.655834574208E+03   -0.53325E-02   -0.10002E-01   840   0.251E-01    0.177E+00
DAV:   8    -0.655827497769E+03    0.70764E-02   -0.25335E-02   840   0.114E-01    0.879E-01
DAV:   9    -0.655825401282E+03    0.20965E-02   -0.17542E-03   852   0.784E-02    0.571E-01
DAV:  10    -0.655825017057E+03    0.38422E-03   -0.74377E-04   780   0.465E-02    0.315E-01
DAV:  11    -0.655824995383E+03    0.21673E-04   -0.11264E-04   456   0.226E-02
  32 F= -.67112782E+03 E0= -.67106979E+03  d E =-.366099E-01
       N       E                     dE             d eps       ncg     rms          rms(c)
DAV:   1    -0.655840104738E+03   -0.15088E-01   -0.19533E+00   600   0.174E+00    0.607E-01
DAV:   2    -0.655903486219E+03   -0.63381E-01   -0.26257E-01   864   0.741E-01    0.393E+00
DAV:   3    -0.655852924600E+03    0.50562E-01   -0.20181E-01   864   0.742E-01    0.153E+00
DAV:   4    -0.655849384157E+03    0.35404E-02   -0.61784E-02   840   0.231E-01    0.122E+00
DAV:   5    -0.655843775521E+03    0.56086E-02   -0.46861E-03   756   0.128E-01    0.497E-01
DAV:   6    -0.655842952820E+03    0.82270E-03   -0.16892E-03   852   0.818E-02    0.179E-01
DAV:   7    -0.655843018413E+03   -0.65593E-04   -0.18937E-03   792   0.685E-02    0.383E-01
DAV:   8    -0.655842721285E+03    0.29713E-03   -0.56071E-04   600   0.376E-02    0.191E-01
DAV:   9    -0.655842639091E+03    0.82195E-04   -0.14450E-04   420   0.253E-02
  33 F= -.67114324E+03 E0= -.67108483E+03  d E =-.154238E-01
       N       E                     dE             d eps       ncg     rms          rms(c)
DAV:   1    -0.655845472770E+03   -0.27515E-02   -0.16058E+01   600   0.497E+00    0.145E+00
DAV:   2    -0.656004104792E+03   -0.15863E+00   -0.87682E-01   864   0.137E+00    0.470E+00
DAV:   3    -0.655908769973E+03    0.95335E-01   -0.10953E+00   876   0.180E+00    0.300E+00
DAV:   4    -0.655895006476E+03    0.13763E-01   -0.63896E-01   852   0.656E-01    0.285E+00
DAV:   5    -0.655873369817E+03    0.21637E-01   -0.22150E-02   840   0.222E-01    0.812E-01
DAV:   6    -0.655867975832E+03    0.53940E-02   -0.20773E-02   864   0.179E-01    0.420E-01
DAV:   7    -0.655876974161E+03   -0.89983E-02   -0.10977E-01   828   0.259E-01    0.179E+00
DAV:   8    -0.655869776833E+03    0.71973E-02   -0.36449E-02   780   0.140E-01    0.917E-01
DAV:   9    -0.655869350757E+03    0.42608E-03   -0.18528E-03   768   0.550E-02    0.943E-01
DAV:  10    -0.655867189560E+03    0.21612E-02   -0.48640E-03   708   0.774E-02    0.241E-01
DAV:  11    -0.655867143164E+03    0.46396E-04   -0.28574E-04   576   0.329E-02
  34 F= -.67116160E+03 E0= -.67110153E+03  d E =-.337797E-01
       N       E                     dE             d eps       ncg     rms          rms(c)
DAV:   1    -0.655876851490E+03   -0.96619E-02   -0.92851E-01   600   0.120E+00    0.576E-01
DAV:   2    -0.655918588392E+03   -0.41737E-01   -0.17982E-01   864   0.527E-01    0.349E+00
DAV:   3    -0.655889433817E+03    0.29155E-01   -0.34920E-01   888   0.644E-01    0.178E+00
DAV:   4    -0.655883163579E+03    0.62702E-02   -0.11433E-01   792   0.234E-01    0.984E-01
DAV:   5    -0.655878916857E+03    0.42467E-02   -0.33354E-03   756   0.113E-01    0.311E-01
DAV:   6    -0.655878352954E+03    0.56390E-03   -0.28288E-03   660   0.646E-02    0.108E-01
DAV:   7    -0.655878511458E+03   -0.15850E-03   -0.17542E-03   672   0.535E-02    0.332E-01
DAV:   8    -0.655878320442E+03    0.19102E-03   -0.60421E-04   504   0.267E-02    0.235E-01
DAV:   9    -0.655878228358E+03    0.92084E-04   -0.95454E-05   396   0.199E-02
  35 F= -.67117191E+03 E0= -.67111154E+03  d E =-.103086E-01
       N       E                     dE             d eps       ncg     rms          rms(c)
DAV:   1    -0.655881267882E+03   -0.29474E-02   -0.83668E+00   600   0.361E+00    0.141E+00
DAV:   2    -0.655964924260E+03   -0.83656E-01   -0.47651E-01   852   0.101E+00    0.404E+00
DAV:   3    -0.655965570366E+03   -0.64611E-03   -0.17015E+00   876   0.132E+00    0.350E+00
DAV:   4    -0.655904237415E+03    0.61333E-01   -0.40731E-01   816   0.734E-01    0.167E+00
DAV:   5    -0.655896182910E+03    0.80545E-02   -0.23809E-02   852   0.173E-01    0.580E-01
DAV:   6    -0.655894778994E+03    0.14039E-02   -0.74190E-03   840   0.135E-01    0.553E-01
DAV:   7    -0.655896124964E+03   -0.13460E-02   -0.96562E-03   780   0.920E-02    0.465E-01
DAV:   8    -0.655894411309E+03    0.17137E-02   -0.17155E-02   732   0.879E-02    0.183E-01
DAV:   9    -0.655894022667E+03    0.38864E-03   -0.16362E-03   720   0.614E-02    0.181E-01
DAV:  10    -0.655893990341E+03    0.32326E-04   -0.23485E-04   468   0.238E-02
  36 F= -.67118543E+03 E0= -.67112429E+03  d E =-.238295E-01
       N       E                     dE             d eps       ncg     rms          rms(c)
DAV:   1    -0.655903519679E+03   -0.94970E-02   -0.22914E+00   600   0.188E+00    0.650E-01
DAV:   2    -0.655910799575E+03   -0.72799E-02   -0.70731E-02   828   0.406E-01    0.957E-01
DAV:   3    -0.655940596605E+03   -0.29797E-01   -0.43133E-01   888   0.510E-01    0.299E+00
DAV:   4    -0.655910838673E+03    0.29758E-01   -0.20609E-01   852   0.390E-01    0.463E-01
DAV:   5    -0.655909204768E+03    0.16339E-02   -0.84696E-03   816   0.110E-01    0.463E-01
DAV:   6    -0.655908674823E+03    0.52995E-03   -0.29541E-03   840   0.805E-02    0.497E-01
DAV:   7    -0.655908546585E+03    0.12824E-03   -0.13207E-03   768   0.437E-02    0.313E-01
DAV:   8    -0.655908109490E+03    0.43710E-03   -0.18711E-03   600   0.575E-02    0.802E-02
DAV:   9    -0.655908151394E+03   -0.41905E-04   -0.14027E-04   420   0.188E-02
  37 F= -.67119850E+03 E0= -.67113723E+03  d E =-.130716E-01
       N       E                     dE             d eps       ncg     rms          rms(c)
DAV:   1    -0.655909165403E+03   -0.10559E-02   -0.18307E+00   600   0.168E+00    0.584E-01
DAV:   2    -0.655915766456E+03   -0.66011E-02   -0.61029E-02   840   0.371E-01    0.106E+00
DAV:   3    -0.655937795841E+03   -0.22029E-01   -0.36372E-01   900   0.454E-01    0.273E+00
DAV:   4    -0.655915118114E+03    0.22678E-01   -0.18252E-01   864   0.331E-01    0.440E-01
DAV:   5    -0.655913688108E+03    0.14300E-02   -0.62710E-03   792   0.939E-02    0.417E-01
DAV:   6    -0.655913462473E+03    0.22564E-03   -0.32444E-03   840   0.753E-02    0.490E-01
DAV:   7    -0.655913434490E+03    0.27983E-04   -0.19839E-03   684   0.408E-02    0.412E-01
DAV:   8    -0.655912849872E+03    0.58462E-03   -0.19109E-03   564   0.544E-02    0.128E-01
DAV:   9    -0.655912878842E+03   -0.28971E-04   -0.10222E-04   432   0.202E-02
  38 F= -.67120228E+03 E0= -.67114089E+03  d E =-.168511E-01
       N       E                     dE             d eps       ncg     rms          rms(c)
DAV:   1    -0.655922913538E+03   -0.10064E-01   -0.28707E+00   600   0.215E+00    0.670E-01
DAV:   2    -0.655937367450E+03   -0.14454E-01   -0.16529E-01   828   0.503E-01    0.183E+00
DAV:   3    -0.655948429710E+03   -0.11062E-01   -0.35334E-01   840   0.507E-01    0.271E+00
DAV:   4    -0.655930839178E+03    0.17591E-01   -0.32467E-02   852   0.288E-01    0.363E-01
DAV:   5    -0.655928795139E+03    0.20440E-02   -0.94668E-03   840   0.111E-01    0.443E-01
DAV:   6    -0.655927855611E+03    0.93953E-03   -0.14904E-03   768   0.702E-02    0.103E-01
DAV:   7    -0.655927901097E+03   -0.45485E-04   -0.64167E-04   744   0.426E-02
  39 F= -.67121528E+03 E0= -.67115489E+03  d E =-.130025E-01
       N       E                     dE             d eps       ncg     rms          rms(c)
DAV:   1    -0.655929147985E+03   -0.12924E-02   -0.26986E+00   600   0.208E+00    0.713E-01
DAV:   2    -0.655974273075E+03   -0.45125E-01   -0.45685E-01   864   0.694E-01    0.318E+00
DAV:   3    -0.655946344248E+03    0.27929E-01   -0.48150E-01   840   0.650E-01    0.206E+00
DAV:   4    -0.655936134023E+03    0.10210E-01   -0.25425E-02   864   0.196E-01    0.390E-01
DAV:   5    -0.655934154097E+03    0.19799E-02   -0.92102E-03   864   0.123E-01    0.238E-01
DAV:   6    -0.655934507449E+03   -0.35335E-03   -0.69506E-03   816   0.812E-02    0.313E-01
DAV:   7    -0.655933833569E+03    0.67388E-03   -0.40493E-03   780   0.724E-02    0.199E-01
DAV:   8    -0.655933761972E+03    0.71597E-04   -0.47173E-04   636   0.436E-02
  40 F= -.67121924E+03 E0= -.67115911E+03  d E =-.169591E-01
       N       E                     dE             d eps       ncg     rms          rms(c)
DAV:   1    -0.655945460995E+03   -0.11627E-01   -0.39780E+00   600   0.252E+00    0.726E-01
DAV:   2    -0.656000022469E+03   -0.54561E-01   -0.54317E-01   840   0.742E-01    0.337E+00
DAV:   3    -0.655965398182E+03    0.34624E-01   -0.51157E-01   864   0.692E-01    0.214E+00
DAV:   4    -0.655953823608E+03    0.11575E-01   -0.21155E-02   876   0.204E-01    0.464E-01
DAV:   5    -0.655951683912E+03    0.21397E-02   -0.86716E-03   864   0.151E-01    0.311E-01
DAV:   6    -0.655952073476E+03   -0.38956E-03   -0.64978E-03   780   0.856E-02    0.422E-01
DAV:   7    -0.655951101894E+03    0.97158E-03   -0.82294E-03   744   0.699E-02    0.135E-01
DAV:   8    -0.655951015011E+03    0.86883E-04   -0.12556E-03   708   0.538E-02    0.277E-01
DAV:   9    -0.655950881624E+03    0.13339E-03   -0.30860E-04   552   0.273E-02    0.127E-01
DAV:  10    -0.655950853750E+03    0.27874E-04   -0.10709E-04   432   0.191E-02
  41 F= -.67123251E+03 E0= -.67117233E+03  d E =-.132661E-01
       N       E                     dE             d eps       ncg     rms          rms(c)
DAV:   1    -0.655953591031E+03   -0.27094E-02   -0.37928E+00   600   0.246E+00    0.652E-01
DAV:   2    -0.655987254178E+03   -0.33663E-01   -0.33675E-01   840   0.599E-01    0.290E+00
DAV:   3    -0.655972356697E+03    0.14897E-01   -0.41367E-01   876   0.533E-01    0.210E+00
DAV:   4    -0.655961664513E+03    0.10692E-01   -0.17721E-02   876   0.199E-01    0.410E-01
DAV:   5    -0.655959949025E+03    0.17155E-02   -0.88276E-03   876   0.144E-01    0.248E-01
DAV:   6    -0.655959854123E+03    0.94902E-04   -0.72661E-03   780   0.916E-02    0.396E-01
DAV:   7    -0.655959070013E+03    0.78411E-03   -0.57193E-03   792   0.718E-02    0.133E-01
DAV:   8    -0.655958937043E+03    0.13297E-03   -0.51108E-04   636   0.368E-02    0.143E-01
DAV:   9    -0.655958901323E+03    0.35719E-04   -0.12538E-04   456   0.206E-02
  42 F= -.67123687E+03 E0= -.67117701E+03  d E =-.176332E-01
       N       E                     dE             d eps       ncg     rms          rms(c)
DAV:   1    -0.655970214868E+03   -0.11278E-01   -0.31598E+00   600   0.223E+00    0.647E-01
DAV:   2    -0.656003921862E+03   -0.33707E-01   -0.33342E-01   852   0.599E-01    0.292E+00
DAV:   3    -0.655988132422E+03    0.15789E-01   -0.39000E-01   852   0.522E-01    0.204E+00
DAV:   4    -0.655977618507E+03    0.10514E-01   -0.16871E-02   852   0.186E-01    0.388E-01
DAV:   5    -0.655975604297E+03    0.20142E-02   -0.54183E-03   840   0.111E-01    0.218E-01
DAV:   6    -0.655975388914E+03    0.21538E-03   -0.10246E-03   744   0.501E-02    0.150E-01
DAV:   7    -0.655975801940E+03   -0.41303E-03   -0.25921E-03   744   0.507E-02    0.153E-01
DAV:   8    -0.655975328689E+03    0.47325E-03   -0.64698E-04   624   0.388E-02    0.146E-01
DAV:   9    -0.655975306327E+03    0.22362E-04   -0.78166E-05   372   0.182E-02
  43 F= -.67124873E+03 E0= -.67118912E+03  d E =-.118618E-01
       N       E                     dE             d eps       ncg     rms          rms(c)
DAV:   1    -0.655978407125E+03   -0.30784E-02   -0.16290E+00   600   0.160E+00    0.477E-01
DAV:   2    -0.656001080701E+03   -0.22674E-01   -0.20734E-01   840   0.469E-01    0.259E+00
DAV:   3    -0.655988152450E+03    0.12928E-01   -0.24345E-01   864   0.397E-01    0.149E+00
DAV:   4    -0.655982433491E+03    0.57190E-02   -0.75242E-03   804   0.133E-01    0.300E-01
DAV:   5    -0.655981181546E+03    0.12519E-02   -0.31007E-03   768   0.832E-02    0.157E-01
DAV:   6    -0.655981041279E+03    0.14027E-03   -0.57359E-04   720   0.380E-02    0.865E-02
DAV:   7    -0.655981123825E+03   -0.82546E-04   -0.54091E-04   540   0.320E-02
  44 F= -.67125131E+03 E0= -.67119232E+03  d E =-.144386E-01
       N       E                     dE             d eps       ncg     rms          rms(c)
DAV:   1    -0.655991204692E+03   -0.10163E-01   -0.17421E+00   600   0.171E+00    0.665E-01
DAV:   2    -0.656036548699E+03   -0.45344E-01   -0.43118E-01   876   0.632E-01    0.329E+00
DAV:   3    -0.656007723319E+03    0.28825E-01   -0.44210E-01   828   0.604E-01    0.204E+00
DAV:   4    -0.655997451444E+03    0.10272E-01   -0.15103E-02   840   0.189E-01    0.462E-01
DAV:   5    -0.655995080813E+03    0.23706E-02   -0.49462E-03   852   0.121E-01    0.221E-01
DAV:   6    -0.655995493227E+03   -0.41241E-03   -0.15237E-03   744   0.656E-02    0.350E-01
DAV:   7    -0.655994793547E+03    0.69968E-03   -0.36009E-03   708   0.573E-02    0.110E-01
DAV:   8    -0.655994749589E+03    0.43958E-04   -0.58527E-04   588   0.418E-02
  45 F= -.67126062E+03 E0= -.67120174E+03  d E =-.931098E-02
       N       E                     dE             d eps       ncg     rms          rms(c)
DAV:   1    -0.655995910922E+03   -0.11174E-02   -0.69637E+00   600   0.342E+00    0.129E+00
DAV:   2    -0.656114270751E+03   -0.11836E+00   -0.11860E+00   876   0.117E+00    0.402E+00
DAV:   3    -0.656054759522E+03    0.59511E-01   -0.79013E-01   852   0.113E+00    0.344E+00
DAV:   4    -0.656019144677E+03    0.35615E-01   -0.81032E-02   852   0.415E-01    0.955E-01
DAV:   5    -0.656011960181E+03    0.71845E-02   -0.33124E-02   840   0.214E-01    0.409E-01
DAV:   6    -0.656012478857E+03   -0.51868E-03   -0.13021E-02   852   0.137E-01    0.715E-01
DAV:   7    -0.656010355835E+03    0.21230E-02   -0.74162E-03   840   0.123E-01    0.303E-01
DAV:   8    -0.656010203970E+03    0.15186E-03   -0.12335E-03   816   0.597E-02    0.221E-01
DAV:   9    -0.656010155407E+03    0.48563E-04   -0.61751E-04   744   0.383E-02
  46 F= -.67126748E+03 E0= -.67120912E+03  d E =-.161660E-01
       N       E                     dE             d eps       ncg     rms          rms(c)
DAV:   1    -0.656018469636E+03   -0.82657E-02   -0.16750E+00   600   0.165E+00    0.660E-01
DAV:   2    -0.656075934837E+03   -0.57465E-01   -0.53513E-01   888   0.625E-01    0.357E+00
DAV:   3    -0.656033774914E+03    0.42160E-01   -0.43335E-01   852   0.692E-01    0.189E+00
DAV:   4    -0.656025661628E+03    0.81133E-02   -0.17020E-02   816   0.202E-01    0.793E-01
DAV:   5    -0.656022256109E+03    0.34055E-02   -0.10291E-02   804   0.133E-01    0.330E-01
DAV:   6    -0.656022264294E+03   -0.81856E-05   -0.19140E-03   768   0.770E-02    0.578E-01
DAV:   7    -0.656021450504E+03    0.81379E-03   -0.17727E-03   708   0.687E-02    0.100E-01
DAV:   8    -0.656021426737E+03    0.23767E-04   -0.37780E-04   588   0.340E-02
  47 F= -.67127489E+03 E0= -.67121618E+03  d E =-.741455E-02
       N       E                     dE             d eps       ncg     rms          rms(c)
DAV:   1    -0.656024792568E+03   -0.33421E-02   -0.21892E+00   600   0.187E+00    0.680E-01
DAV:   2    -0.656070653665E+03   -0.45861E-01   -0.43122E-01   888   0.588E-01    0.337E+00
DAV:   3    -0.656042843137E+03    0.27811E-01   -0.41611E-01   852   0.611E-01    0.206E+00
DAV:   4    -0.656033190356E+03    0.96528E-02   -0.17606E-02   852   0.219E-01    0.827E-01
DAV:   5    -0.656029715479E+03    0.34749E-02   -0.84103E-03   840   0.132E-01    0.322E-01
DAV:   6    -0.656029964333E+03   -0.24885E-03   -0.25189E-03   816   0.863E-02    0.640E-01
DAV:   7    -0.656028812579E+03    0.11518E-02   -0.21695E-03   804   0.801E-02    0.954E-02
DAV:   8    -0.656028753590E+03    0.58989E-04   -0.37807E-04   576   0.354E-02
  48 F= -.67127785E+03 E0= -.67121919E+03  d E =-.103714E-01
       N       E                     dE             d eps       ncg     rms          rms(c)
DAV:   1    -0.656037606792E+03   -0.87942E-02   -0.15566E+00   600   0.150E+00    0.407E-01
DAV:   2    -0.656050631429E+03   -0.13025E-01   -0.10182E-01   828   0.336E-01    0.206E+00
DAV:   3    -0.656044399551E+03    0.62319E-02   -0.10198E-01   864   0.297E-01    0.120E+00
DAV:   4    -0.656041245749E+03    0.31538E-02   -0.63567E-03   828   0.138E-01    0.574E-01
DAV:   5    -0.656040175221E+03    0.10705E-02   -0.19721E-03   828   0.773E-02    0.251E-01
DAV:   6    -0.656040303941E+03   -0.12872E-03   -0.12300E-03   732   0.601E-02    0.347E-01
DAV:   7    -0.656039669259E+03    0.63468E-03   -0.10906E-03   720   0.573E-02    0.478E-02
DAV:   8    -0.656039692969E+03   -0.23711E-04   -0.16630E-04   492   0.256E-02
  49 F= -.67128610E+03 E0= -.67122727E+03  d E =-.825604E-02
       N       E                     dE             d eps       ncg     rms          rms(c)
DAV:   1    -0.656038647238E+03    0.10220E-02   -0.13790E+01   600   0.443E+00    0.117E+00
DAV:   2    -0.656092742373E+03   -0.54095E-01   -0.59130E-01   828   0.837E-01    0.316E+00
DAV:   3    -0.656105056604E+03   -0.12314E-01   -0.71672E-01   864   0.785E-01    0.339E+00
DAV:   4    -0.656066730727E+03    0.38326E-01   -0.10245E-01   864   0.503E-01    0.123E+00
DAV:   5    -0.656063794943E+03    0.29358E-02   -0.76279E-02   840   0.205E-01    0.645E-01
DAV:   6    -0.656060677609E+03    0.31173E-02   -0.62702E-02   804   0.169E-01    0.716E-01
DAV:   7    -0.656058358705E+03    0.23189E-02   -0.74930E-03   852   0.140E-01    0.252E-01
DAV:   8    -0.656058277364E+03    0.81341E-04   -0.10799E-03   792   0.613E-02    0.157E-01
DAV:   9    -0.656058161309E+03    0.11606E-03   -0.61076E-04   768   0.431E-02    0.680E-02
DAV:  10    -0.656058114442E+03    0.46866E-04   -0.18517E-04   516   0.267E-02
  50 F= -.67129665E+03 E0= -.67123791E+03  d E =-.187967E-01
       N       E                     dE             d eps       ncg     rms          rms(c)
DAV:   1    -0.656065467613E+03   -0.73063E-02   -0.17397E+00   600   0.162E+00    0.444E-01
DAV:   2    -0.656071424679E+03   -0.59571E-02   -0.49131E-02   804   0.331E-01    0.108E+00
DAV:   3    -0.656081881438E+03   -0.10457E-01   -0.17599E-01   900   0.310E-01    0.224E+00
DAV:   4    -0.656070053870E+03    0.11828E-01   -0.86194E-02   840   0.202E-01    0.292E-01
DAV:   5    -0.656068880625E+03    0.11732E-02   -0.19015E-03   780   0.733E-02    0.485E-01
DAV:   6    -0.656069085416E+03   -0.20479E-03   -0.14673E-03   684   0.638E-02    0.639E-01
DAV:   7    -0.656068643156E+03    0.44226E-03   -0.98285E-04   600   0.512E-02    0.357E-01
DAV:   8    -0.656068318466E+03    0.32469E-03   -0.22125E-04   492   0.295E-02    0.281E-01
DAV:   9    -0.656068251099E+03    0.67367E-04   -0.77372E-05   396   0.170E-02
  51 F= -.67130455E+03 E0= -.67124473E+03  d E =-.790408E-02
       N       E                     dE             d eps       ncg     rms          rms(c)
DAV:   1    -0.656066057369E+03    0.22611E-02   -0.85684E+00   600   0.360E+00    0.104E+00
DAV:   2    -0.656106807214E+03   -0.40750E-01   -0.28630E-01   816   0.806E-01    0.286E+00
DAV:   3    -0.656135053205E+03   -0.28246E-01   -0.10994E+00   888   0.799E-01    0.354E+00
DAV:   4    -0.656084365706E+03    0.50687E-01   -0.27961E-01   888   0.451E-01    0.612E-01
DAV:   5    -0.656083303834E+03    0.10619E-02   -0.12839E-02   840   0.135E-01    0.124E+00
DAV:   6    -0.656082945859E+03    0.35797E-03   -0.42573E-03   840   0.114E-01    0.118E+00
DAV:   7    -0.656083171748E+03   -0.22589E-03   -0.18986E-02   816   0.135E-01    0.754E-01
DAV:   8    -0.656079347980E+03    0.38238E-02   -0.21813E-02   768   0.949E-02    0.172E-01
DAV:   9    -0.656079434897E+03   -0.86918E-04   -0.37005E-04   564   0.355E-02
  52 F= -.67131086E+03 E0= -.67125032E+03  d E =-.142125E-01
       N       E                     dE             d eps       ncg     rms          rms(c)
DAV:   1    -0.656085644032E+03   -0.62961E-02   -0.23403E+00   600   0.192E+00    0.704E-01
DAV:   2    -0.656112622880E+03   -0.26979E-01   -0.12967E-01   852   0.538E-01    0.272E+00
DAV:   3    -0.656111544820E+03    0.10781E-02   -0.52985E-01   888   0.546E-01    0.258E+00
DAV:   4    -0.656093656298E+03    0.17889E-01   -0.18850E-01   852   0.266E-01    0.728E-01
DAV:   5    -0.656090945855E+03    0.27104E-02   -0.43653E-03   804   0.995E-02    0.434E-01
DAV:   6    -0.656091037451E+03   -0.91597E-04   -0.58944E-03   732   0.840E-02    0.708E-01
DAV:   7    -0.656091086525E+03   -0.49073E-04   -0.28176E-03   732   0.439E-02    0.602E-01
DAV:   8    -0.656090203619E+03    0.88291E-03   -0.14635E-03   624   0.497E-02    0.413E-01
DAV:   9    -0.656089920363E+03    0.28326E-03   -0.35662E-04   432   0.324E-02    0.206E-01
DAV:  10    -0.656089932534E+03   -0.12171E-04   -0.98361E-05   432   0.174E-02
  53 F= -.67131887E+03 E0= -.67125809E+03  d E =-.801025E-02
       N       E                     dE             d eps       ncg     rms          rms(c)
DAV:   1    -0.656084644151E+03    0.52762E-02   -0.86611E+00   600   0.368E+00    0.127E+00
DAV:   2    -0.656119621304E+03   -0.34977E-01   -0.30006E-01   840   0.835E-01    0.247E+00
DAV:   3    -0.656201879235E+03   -0.82258E-01   -0.16519E+00   864   0.938E-01    0.401E+00
DAV:   4    -0.656105243085E+03    0.96636E-01   -0.24813E-01   876   0.711E-01    0.525E-01
DAV:   5    -0.656104468179E+03    0.77491E-03   -0.38673E-02   864   0.172E-01    0.127E+00
DAV:   6    -0.656102163839E+03    0.23043E-02   -0.13749E-02   840   0.841E-02    0.770E-01
DAV:   7    -0.656103718755E+03   -0.15549E-02   -0.13534E-02   828   0.129E-01    0.304E-01
DAV:   8    -0.656101420325E+03    0.22984E-02   -0.10997E-02   804   0.111E-01    0.603E-01
DAV:   9    -0.656100787432E+03    0.63289E-03   -0.12405E-03   600   0.403E-02    0.252E-01
DAV:  10    -0.656100623685E+03    0.16375E-03   -0.40161E-04   672   0.328E-02    0.204E-01
DAV:  11    -0.656100526835E+03    0.96850E-04   -0.52636E-04   528   0.309E-02
  54 F= -.67132480E+03 E0= -.67126370E+03  d E =-.139401E-01
       N       E                     dE             d eps       ncg     rms          rms(c)
DAV:   1    -0.656107604773E+03   -0.69811E-02   -0.11415E+00   600   0.129E+00    0.471E-01
DAV:   2    -0.656111056235E+03   -0.34515E-02   -0.40094E-02   864   0.270E-01    0.619E-01
DAV:   3    -0.656130208108E+03   -0.19152E-01   -0.10145E-01   840   0.321E-01    0.261E+00
DAV:   4    -0.656111877423E+03    0.18331E-01   -0.41025E-02   804   0.290E-01    0.400E-01
DAV:   5    -0.656110503262E+03    0.13742E-02   -0.19340E-03   756   0.779E-02    0.366E-01
DAV:   6    -0.656110133492E+03    0.36977E-03   -0.91772E-04   612   0.454E-02    0.271E-01
DAV:   7    -0.656109939150E+03    0.19434E-03   -0.66201E-04   612   0.450E-02    0.121E-01
DAV:   8    -0.656109838580E+03    0.10057E-03   -0.21308E-04   372   0.245E-02    0.385E-02
DAV:   9    -0.656109858374E+03   -0.19793E-04   -0.63133E-05   336   0.161E-02
  55 F= -.67133186E+03 E0= -.67127118E+03  d E =-.706340E-02
       N       E                     dE             d eps       ncg     rms          rms(c)
DAV:   1    -0.656111914872E+03   -0.20763E-02   -0.25224E+00   600   0.192E+00    0.739E-01
DAV:   2    -0.656140293540E+03   -0.28379E-01   -0.29491E-01   864   0.548E-01    0.275E+00
DAV:   3    -0.656138697910E+03    0.15956E-02   -0.53574E-01   864   0.541E-01    0.260E+00
DAV:   4    -0.656119516979E+03    0.19181E-01   -0.22681E-02   852   0.242E-01    0.362E-01
DAV:   5    -0.656117153351E+03    0.23636E-02   -0.48106E-03   828   0.933E-02    0.307E-01
DAV:   6    -0.656116998599E+03    0.15475E-03   -0.12189E-03   744   0.609E-02    0.221E-01
DAV:   7    -0.656117008148E+03   -0.95495E-05   -0.10248E-03   696   0.506E-02    0.113E-01
DAV:   8    -0.656116710681E+03    0.29747E-03   -0.75828E-04   564   0.356E-02    0.811E-02
DAV:   9    -0.656116706741E+03    0.39403E-05   -0.81805E-05   360   0.183E-02
  56 F= -.67133537E+03 E0= -.67127483E+03  d E =-.105765E-01
       N       E                     dE             d eps       ncg     rms          rms(c)
DAV:   1    -0.656123503693E+03   -0.67930E-02   -0.16858E+00   600   0.159E+00    0.553E-01
DAV:   2    -0.656144803630E+03   -0.21300E-01   -0.21000E-01   864   0.435E-01    0.254E+00
DAV:   3    -0.656138560179E+03    0.62435E-02   -0.34870E-01   852   0.416E-01    0.201E+00
DAV:   4    -0.656128251967E+03    0.10308E-01   -0.13879E-02   852   0.179E-01    0.323E-01
DAV:   5    -0.656126595165E+03    0.16568E-02   -0.44878E-03   816   0.871E-02    0.211E-01
DAV:   6    -0.656126663117E+03   -0.67952E-04   -0.23186E-03   708   0.607E-02    0.191E-01
DAV:   7    -0.656126269732E+03    0.39339E-03   -0.15640E-03   660   0.446E-02    0.980E-02
DAV:   8    -0.656126204925E+03    0.64806E-04   -0.29293E-04   432   0.274E-02
  57 F= -.67134170E+03 E0= -.67128148E+03  d E =-.632772E-02
       N       E                     dE             d eps       ncg     rms          rms(c)
DAV:   1    -0.656128188830E+03   -0.19191E-02   -0.88511E-01   600   0.115E+00    0.411E-01
DAV:   2    -0.656141645048E+03   -0.13456E-01   -0.12484E-01   876   0.331E-01    0.214E+00
DAV:   3    -0.656136688964E+03    0.49561E-02   -0.19957E-01   876   0.318E-01    0.155E+00
DAV:   4    -0.656130914530E+03    0.57744E-02   -0.86691E-03   816   0.132E-01    0.266E-01
DAV:   5    -0.656129807826E+03    0.11067E-02   -0.24349E-03   636   0.677E-02    0.155E-01
DAV:   6    -0.656129853286E+03   -0.45460E-04   -0.86578E-04   612   0.461E-02
  58 F= -.67134307E+03 E0= -.67128208E+03  d E =-.769322E-02
       N       E                     dE             d eps       ncg     rms          rms(c)
DAV:   1    -0.656137752666E+03   -0.79448E-02   -0.14316E+00   600   0.151E+00    0.406E-01
DAV:   2    -0.656149012577E+03   -0.11260E-01   -0.86719E-02   852   0.357E-01    0.186E+00
DAV:   3    -0.656145508693E+03    0.35039E-02   -0.11128E-01   864   0.304E-01    0.142E+00
DAV:   4    -0.656141877999E+03    0.36307E-02   -0.14593E-02   840   0.147E-01    0.308E-01
DAV:   5    -0.656140055283E+03    0.18227E-02   -0.32143E-03   792   0.871E-02    0.298E-01
DAV:   6    -0.656139705427E+03    0.34986E-03   -0.81394E-04   708   0.499E-02    0.710E-02
DAV:   7    -0.656139729438E+03   -0.24012E-04   -0.29922E-04   600   0.305E-02
  59 F= -.67134967E+03 E0= -.67128978E+03  d E =-.660155E-02
       N       E                     dE             d eps       ncg     rms          rms(c)
DAV:   1    -0.656144009115E+03   -0.43037E-02   -0.34133E+00   600   0.233E+00    0.620E-01
DAV:   2    -0.656168115785E+03   -0.24107E-01   -0.23945E-01   840   0.551E-01    0.253E+00
DAV:   3    -0.656162033780E+03    0.60820E-02   -0.33743E-01   864   0.424E-01    0.206E+00
DAV:   4    -0.656151367462E+03    0.10666E-01   -0.10469E-02   876   0.175E-01    0.339E-01
DAV:   5    -0.656149616095E+03    0.17514E-02   -0.68112E-03   864   0.105E-01    0.352E-01
DAV:   6    -0.656149864396E+03   -0.24830E-03   -0.62957E-03   768   0.836E-02    0.250E-01
DAV:   7    -0.656149113265E+03    0.75113E-03   -0.57702E-03   732   0.633E-02    0.159E-01
DAV:   8    -0.656148938912E+03    0.17435E-03   -0.26064E-04   564   0.303E-02    0.795E-02
DAV:   9    -0.656148934699E+03    0.42128E-05   -0.64474E-05   372   0.163E-02
  60 F= -.67135388E+03 E0= -.67129382E+03  d E =-.108100E-01
       N       E                     dE             d eps       ncg     rms          rms(c)
DAV:   1    -0.656154658188E+03   -0.57193E-02   -0.20393E+00   600   0.177E+00    0.559E-01
DAV:   2    -0.656177504934E+03   -0.22847E-01   -0.21138E-01   864   0.488E-01    0.257E+00
DAV:   3    -0.656169151739E+03    0.83532E-02   -0.29181E-01   864   0.409E-01    0.187E+00
DAV:   4    -0.656160284683E+03    0.88671E-02   -0.12633E-02   840   0.156E-01    0.305E-01
DAV:   5    -0.656158691614E+03    0.15931E-02   -0.26754E-03   792   0.795E-02    0.237E-01
DAV:   6    -0.656158829139E+03   -0.13753E-03   -0.15031E-03   756   0.642E-02    0.155E-01
DAV:   7    -0.656158546506E+03    0.28263E-03   -0.15588E-03   708   0.540E-02    0.131E-01
DAV:   8    -0.656158391409E+03    0.15510E-03   -0.17507E-04   432   0.246E-02    0.112E-01
DAV:   9    -0.656158378286E+03    0.13123E-04   -0.43185E-05   372   0.143E-02
  61 F= -.67135999E+03 E0= -.67130015E+03  d E =-.611734E-02
       N       E                     dE             d eps       ncg     rms          rms(c)
DAV:   1    -0.656159095038E+03   -0.70363E-03   -0.99167E-02   600   0.391E-01    0.154E-01
DAV:   2    -0.656163690048E+03   -0.45950E-02   -0.19551E-02   900   0.172E-01    0.136E+00
DAV:   3    -0.656160208770E+03    0.34813E-02   -0.22551E-02   744   0.147E-01    0.498E-01
DAV:   4    -0.656159496100E+03    0.71267E-03   -0.96688E-04   516   0.484E-02    0.119E-01
DAV:   5    -0.656159301744E+03    0.19436E-03   -0.28470E-04   396   0.318E-02    0.427E-02
DAV:   6    -0.656159321019E+03   -0.19275E-04   -0.83571E-05   372   0.205E-02
  62 F= -.67136021E+03 E0= -.67130036E+03  d E =-.633134E-02
       N       E                     dE             d eps       ncg     rms          rms(c)
DAV:   1    -0.656165326037E+03   -0.60243E-02   -0.14529E+00   600   0.146E+00    0.534E-01
DAV:   2    -0.656186021673E+03   -0.20696E-01   -0.18062E-01   840   0.433E-01    0.255E+00
DAV:   3    -0.656178188974E+03    0.78327E-02   -0.26553E-01   864   0.395E-01    0.181E+00
DAV:   4    -0.656170104147E+03    0.80848E-02   -0.16170E-02   816   0.167E-01    0.428E-01
DAV:   5    -0.656168363798E+03    0.17403E-02   -0.38912E-03   768   0.862E-02    0.168E-01
DAV:   6    -0.656168482476E+03   -0.11868E-03   -0.26085E-03   744   0.632E-02    0.252E-01
DAV:   7    -0.656168074839E+03    0.40764E-03   -0.12490E-03   684   0.503E-02    0.762E-02
DAV:   8    -0.656167997139E+03    0.77700E-04   -0.12336E-04   384   0.238E-02
  63 F= -.67136659E+03 E0= -.67130696E+03  d E =-.637936E-02
       N       E                     dE             d eps       ncg     rms          rms(c)
DAV:   1    -0.656166060390E+03    0.20144E-02   -0.63353E+00   600   0.306E+00    0.110E+00
DAV:   2    -0.656221530027E+03   -0.55470E-01   -0.54862E-01   852   0.794E-01    0.343E+00
DAV:   3    -0.656227034883E+03   -0.55049E-02   -0.83720E-01   852   0.780E-01    0.336E+00
DAV:   4    -0.656185331890E+03    0.41703E-01   -0.58989E-02   864   0.393E-01    0.609E-01
DAV:   5    -0.656179784657E+03    0.55472E-02   -0.22085E-02   852   0.172E-01    0.461E-01
DAV:   6    -0.656178921384E+03    0.86327E-03   -0.52677E-03   816   0.118E-01    0.574E-01
DAV:   7    -0.656178860171E+03    0.61213E-04   -0.28004E-03   792   0.785E-02    0.190E-01
DAV:   8    -0.656178182218E+03    0.67795E-03   -0.14447E-03   708   0.476E-02    0.115E-01
DAV:   9    -0.656178143178E+03    0.39041E-04   -0.41006E-04   492   0.379E-02
  64 F= -.67137202E+03 E0= -.67131326E+03  d E =-.118142E-01
       N       E                     dE             d eps       ncg     rms          rms(c)
DAV:   1    -0.656182265955E+03   -0.40837E-02   -0.26420E+00   600   0.196E+00    0.543E-01
DAV:   2    -0.656192068743E+03   -0.98028E-02   -0.77416E-02   840   0.400E-01    0.141E+00
DAV:   3    -0.656202632245E+03   -0.10564E-01   -0.97903E-02   876   0.367E-01    0.236E+00
DAV:   4    -0.656189062206E+03    0.13570E-01   -0.27125E-02   864   0.220E-01    0.363E-01
DAV:   5    -0.656187876475E+03    0.11857E-02   -0.81609E-03   840   0.104E-01    0.376E-01
DAV:   6    -0.656186942851E+03    0.93362E-03   -0.51230E-03   792   0.829E-02    0.156E-01
DAV:   7    -0.656186897766E+03    0.45085E-04   -0.16362E-03   708   0.504E-02    0.264E-01
DAV:   8    -0.656186675962E+03    0.22180E-03   -0.29296E-04   444   0.342E-02    0.647E-02
DAV:   9    -0.656186722684E+03   -0.46722E-04   -0.81362E-05   408   0.204E-02
  65 F= -.67137824E+03 E0= -.67131987E+03  d E =-.621687E-02
       N       E                     dE             d eps       ncg     rms          rms(c)
DAV:   1    -0.656187114442E+03   -0.43848E-03   -0.10444E-01   600   0.391E-01    0.126E-01
DAV:   2    -0.656189176769E+03   -0.20623E-02   -0.59423E-03   864   0.126E-01    0.900E-01
DAV:   3    -0.656187897541E+03    0.12792E-02   -0.59994E-03   684   0.105E-01    0.444E-01
DAV:   4    -0.656187464579E+03    0.43296E-03   -0.68097E-04   576   0.441E-02    0.104E-01
DAV:   5    -0.656187358752E+03    0.10583E-03   -0.30842E-04   432   0.347E-02    0.494E-02
DAV:   6    -0.656187333011E+03    0.25742E-04   -0.10958E-04   348   0.209E-02
  66 F= -.67137839E+03 E0= -.67131932E+03  d E =-.636318E-02
       N       E                     dE             d eps       ncg     rms          rms(c)
DAV:   1    -0.656192964072E+03   -0.56053E-02   -0.19270E+00   600   0.174E+00    0.413E-01
DAV:   2    -0.656196542927E+03   -0.35789E-02   -0.43199E-02   792   0.297E-01    0.479E-01
DAV:   3    -0.656210171773E+03   -0.13629E-01   -0.11523E-01   852   0.258E-01    0.234E+00
DAV:   4    -0.656197936893E+03    0.12235E-01   -0.93871E-02   816   0.222E-01    0.567E-01
DAV:   5    -0.656196244771E+03    0.16921E-02   -0.24184E-03   792   0.826E-02    0.294E-01
DAV:   6    -0.656196024944E+03    0.21983E-03   -0.18762E-03   684   0.725E-02    0.442E-01
DAV:   7    -0.656195999836E+03    0.25108E-04   -0.48844E-04   564   0.345E-02
  67 F= -.67138558E+03 E0= -.67132501E+03  d E =-.719800E-02
       N       E                     dE             d eps       ncg     rms          rms(c)
DAV:   1    -0.656194244665E+03    0.17803E-02   -0.60050E+00   600   0.306E+00    0.862E-01
DAV:   2    -0.656268606892E+03   -0.74362E-01   -0.33880E-01   876   0.807E-01    0.366E+00
DAV:   3    -0.656220739644E+03    0.47867E-01   -0.41509E-01   900   0.838E-01    0.232E+00
DAV:   4    -0.656210758280E+03    0.99814E-02   -0.16712E-01   900   0.281E-01    0.144E+00
DAV:   5    -0.656204031515E+03    0.67268E-02   -0.57389E-03   828   0.142E-01    0.350E-01
DAV:   6    -0.656203941369E+03    0.90146E-04   -0.16486E-02   840   0.121E-01    0.738E-01
DAV:   7    -0.656205121747E+03   -0.11804E-02   -0.28292E-03   804   0.833E-02    0.966E-01
DAV:   8    -0.656203692897E+03    0.14288E-02   -0.14261E-03   696   0.544E-02    0.767E-01
DAV:   9    -0.656202636033E+03    0.10569E-02   -0.59792E-04   612   0.450E-02    0.419E-01
DAV:  10    -0.656202345943E+03    0.29009E-03   -0.39901E-04   576   0.332E-02    0.185E-01
DAV:  11    -0.656202374170E+03   -0.28227E-04   -0.12618E-04   408   0.186E-02
  68 F= -.67138944E+03 E0= -.67132980E+03  d E =-.110488E-01
       N       E                     dE             d eps       ncg     rms          rms(c)
DAV:   1    -0.656207710233E+03   -0.53643E-02   -0.28842E+00   600   0.208E+00    0.686E-01
DAV:   2    -0.656247678932E+03   -0.39969E-01   -0.17108E-01   816   0.594E-01    0.313E+00
DAV:   3    -0.656227791339E+03    0.19888E-01   -0.35362E-01   900   0.540E-01    0.220E+00
DAV:   4    -0.656217303581E+03    0.10488E-01   -0.12873E-01   852   0.233E-01    0.104E+00
DAV:   5    -0.656213477493E+03    0.38261E-02   -0.32732E-03   780   0.976E-02    0.254E-01
DAV:   6    -0.656213784203E+03   -0.30671E-03   -0.95590E-03   840   0.953E-02    0.747E-01
DAV:   7    -0.656213611386E+03    0.17282E-03   -0.72343E-04   612   0.436E-02    0.722E-01
DAV:   8    -0.656212773418E+03    0.83797E-03   -0.66417E-04   504   0.427E-02    0.399E-01
DAV:   9    -0.656212637093E+03    0.13632E-03   -0.80819E-04   456   0.257E-02    0.310E-01
DAV:  10    -0.656212474892E+03    0.16220E-03   -0.20896E-04   408   0.207E-02    0.143E-01
DAV:  11    -0.656212500080E+03   -0.25188E-04   -0.42293E-05   408   0.130E-02
  69 F= -.67139744E+03 E0= -.67133739E+03  d E =-.800562E-02
       N       E                     dE             d eps       ncg     rms          rms(c)
DAV:   1    -0.656211354927E+03    0.11200E-02   -0.42729E+00   600   0.253E+00    0.832E-01
DAV:   2    -0.656262289986E+03   -0.50935E-01   -0.22020E-01   828   0.725E-01    0.330E+00
DAV:   3    -0.656241222688E+03    0.21067E-01   -0.56078E-01   900   0.676E-01    0.263E+00
DAV:   4    -0.656225158392E+03    0.16064E-01   -0.22851E-01   852   0.306E-01    0.126E+00
DAV:   5    -0.656219861481E+03    0.52969E-02   -0.59683E-03   816   0.117E-01    0.336E-01
DAV:   6    -0.656220252398E+03   -0.39092E-03   -0.13123E-02   852   0.109E-01    0.880E-01
DAV:   7    -0.656220389425E+03   -0.13703E-03   -0.11296E-03   720   0.531E-02    0.950E-01
DAV:   8    -0.656218815833E+03    0.15736E-02   -0.14842E-03   612   0.503E-02    0.470E-01
DAV:   9    -0.656218416357E+03    0.39948E-03   -0.51124E-04   528   0.346E-02    0.248E-01
DAV:  10    -0.656218411744E+03    0.46129E-05   -0.11388E-04   408   0.181E-02
  70 F= -.67140083E+03 E0= -.67134019E+03  d E =-.113936E-01
       N       E                     dE             d eps       ncg     rms          rms(c)
[...]
DAV:   1    -0.656437663278E+03    0.21319E-02   -0.19276E+00   600   0.163E+00    0.452E-01
DAV:   2    -0.656440258461E+03   -0.25952E-02   -0.40975E-02   840   0.257E-01    0.283E-01
DAV:   3    -0.656440151143E+03    0.10732E-03   -0.65038E-03   780   0.734E-02    0.404E-01
DAV:   4    -0.656441193431E+03   -0.10423E-02   -0.11545E-02   648   0.922E-02    0.830E-01
DAV:   5    -0.656440264181E+03    0.92925E-03   -0.48272E-03   768   0.107E-01    0.363E-01
DAV:   6    -0.656440551137E+03   -0.28696E-03   -0.15101E-03   708   0.689E-02    0.165E-01
DAV:   7    -0.656439707059E+03    0.84408E-03   -0.15247E-03   660   0.474E-02    0.159E-01
DAV:   8    -0.656439687928E+03    0.19131E-04   -0.10475E-04   372   0.184E-02
 535 F= -.67167798E+03 E0= -.67161555E+03  d E =-.181653E-02
       N       E                     dE             d eps       ncg     rms          rms(c)
DAV:   1    -0.656439337431E+03    0.36963E-03   -0.66148E-01   600   0.951E-01    0.231E-01
DAV:   2    -0.656440713891E+03   -0.13765E-02   -0.14896E-02   840   0.158E-01    0.486E-01
DAV:   3    -0.656443238988E+03   -0.25251E-02   -0.15973E-02   732   0.130E-01    0.116E+00
DAV:   4    -0.656440266252E+03    0.29727E-02   -0.73790E-03   636   0.114E-01    0.213E-01
DAV:   5    -0.656440198599E+03    0.67653E-04   -0.14148E-03   684   0.424E-02    0.170E-01
DAV:   6    -0.656440247180E+03   -0.48581E-04   -0.39349E-04   600   0.340E-02
 536 F= -.67167886E+03 E0= -.67161586E+03  d E =-.876353E-03
       N       E                     dE             d eps       ncg     rms          rms(c)
DAV:   1    -0.656439692833E+03    0.50577E-03   -0.34697E-01   600   0.688E-01    0.193E-01
DAV:   2    -0.656444996266E+03   -0.53034E-02   -0.40558E-02   852   0.172E-01    0.144E+00
DAV:   3    -0.656440963467E+03    0.40328E-02   -0.54994E-02   720   0.149E-01    0.509E-01
DAV:   4    -0.656440814485E+03    0.14898E-03   -0.90722E-03   648   0.767E-02    0.324E-01
DAV:   5    -0.656440088872E+03    0.72561E-03   -0.24773E-03   588   0.439E-02    0.148E-01
DAV:   6    -0.656440104210E+03   -0.15338E-04   -0.32810E-04   660   0.289E-02
 537 F= -.67167894E+03 E0= -.67161598E+03  d E =-.960682E-03
       N       E                     dE             d eps       ncg     rms          rms(c)
DAV:   1    -0.656439513150E+03    0.57572E-03   -0.70249E-01   600   0.100E+00    0.235E-01
DAV:   2    -0.656440556967E+03   -0.10438E-02   -0.13501E-02   864   0.157E-01    0.154E-01
DAV:   3    -0.656440767911E+03   -0.21094E-03   -0.15295E-03   732   0.551E-02    0.175E-01
DAV:   4    -0.656440685443E+03    0.82468E-04   -0.47730E-03   720   0.639E-02    0.377E-01
DAV:   5    -0.656440762845E+03   -0.77402E-04   -0.40579E-03   480   0.563E-02    0.341E-01
DAV:   6    -0.656440400082E+03    0.36276E-03   -0.72472E-04   720   0.500E-02    0.679E-02
DAV:   7    -0.656440345707E+03    0.54375E-04   -0.44886E-04   660   0.319E-02
 538 F= -.67167971E+03 E0= -.67161722E+03  d E =-.767522E-03
       N       E                     dE             d eps       ncg     rms          rms(c)
DAV:   1    -0.656440080476E+03    0.31961E-03   -0.88427E-02   600   0.356E-01    0.100E-01
DAV:   2    -0.656441846275E+03   -0.17658E-02   -0.14793E-02   840   0.993E-02    0.861E-01
DAV:   3    -0.656440482418E+03    0.13639E-02   -0.17628E-02   624   0.842E-02    0.262E-01
DAV:   4    -0.656440248867E+03    0.23355E-03   -0.93726E-04   444   0.322E-02    0.130E-01
DAV:   5    -0.656440189954E+03    0.58913E-04   -0.14250E-04   384   0.149E-02
 539 F= -.67167974E+03 E0= -.67161710E+03  d E =-.797275E-03
       N       E                     dE             d eps       ncg     rms          rms(c)
DAV:   1    -0.656439885549E+03    0.36332E-03   -0.41819E-01   600   0.787E-01    0.205E-01
DAV:   2    -0.656441347807E+03   -0.14623E-02   -0.13442E-02   828   0.138E-01    0.437E-01
DAV:   3    -0.656442912207E+03   -0.15644E-02   -0.22611E-02   840   0.128E-01    0.108E+00
DAV:   4    -0.656441393434E+03    0.15188E-02   -0.45651E-03   744   0.118E-01    0.324E-01
DAV:   5    -0.656440382137E+03    0.10113E-02   -0.72133E-04   660   0.573E-02    0.179E-01
DAV:   6    -0.656440309807E+03    0.72330E-04   -0.38645E-04   480   0.268E-02
 540 F= -.67168037E+03 E0= -.67161754E+03  d E =-.627865E-03
       N       E                     dE             d eps       ncg     rms          rms(c)
DAV:   1    -0.656439250266E+03    0.11319E-02   -0.62281E-01   600   0.961E-01    0.245E-01
DAV:   2    -0.656440508629E+03   -0.12584E-02   -0.12870E-02   852   0.153E-01    0.428E-01
DAV:   3    -0.656444153899E+03   -0.36453E-02   -0.48617E-02   696   0.155E-01    0.133E+00
DAV:   4    -0.656440548306E+03    0.36056E-02   -0.46611E-02   648   0.121E-01    0.280E-01
DAV:   5    -0.656440225738E+03    0.32257E-03   -0.34749E-03   660   0.605E-02    0.176E-01
DAV:   6    -0.656439957315E+03    0.26842E-03   -0.91645E-04   612   0.365E-02    0.117E-01
DAV:   7    -0.656439920369E+03    0.36946E-04   -0.16505E-04   408   0.220E-02
 541 F= -.67168060E+03 E0= -.67161799E+03  d E =-.855295E-03
       N       E                     dE             d eps       ncg     rms          rms(c)
DAV:   1    -0.656439578871E+03    0.37844E-03   -0.28363E-01   600   0.634E-01    0.167E-01
DAV:   2    -0.656439979080E+03   -0.40021E-03   -0.56929E-03   816   0.101E-01    0.104E-01
DAV:   3    -0.656440220484E+03   -0.24140E-03   -0.12331E-03   552   0.463E-02    0.359E-01
DAV:   4    -0.656440039356E+03    0.18113E-03   -0.18421E-03   444   0.468E-02    0.197E-01
DAV:   5    -0.656440057246E+03   -0.17890E-04   -0.25233E-04   504   0.304E-02
 542 F= -.67168121E+03 E0= -.67161912E+03  d E =-.616047E-03
       N       E                     dE             d eps       ncg     rms          rms(c)
DAV:   1    -0.656437727435E+03    0.23119E-02   -0.11763E+00   600   0.129E+00    0.349E-01
DAV:   2    -0.656442534499E+03   -0.48071E-02   -0.29154E-02   840   0.242E-01    0.114E+00
DAV:   3    -0.656443506406E+03   -0.97191E-03   -0.10120E-01   804   0.233E-01    0.135E+00
DAV:   4    -0.656440474494E+03    0.30319E-02   -0.62375E-02   780   0.142E-01    0.277E-01
DAV:   5    -0.656439164180E+03    0.13103E-02   -0.48813E-03   708   0.773E-02    0.195E-01
DAV:   6    -0.656438981919E+03    0.18226E-03   -0.76071E-04   672   0.439E-02    0.202E-01
DAV:   7    -0.656438894289E+03    0.87630E-04   -0.68062E-04   648   0.383E-02
 543 F= -.67168103E+03 E0= -.67161837E+03  d E =-.428758E-03
       N       E                     dE             d eps       ncg     rms          rms(c)
DAV:   1    -0.656439273821E+03   -0.29190E-03   -0.23444E-01   600   0.577E-01    0.154E-01
DAV:   2    -0.656439661386E+03   -0.38756E-03   -0.52572E-03   840   0.952E-02    0.208E-01
DAV:   3    -0.656441677798E+03   -0.20164E-02   -0.79365E-03   624   0.945E-02    0.993E-01
DAV:   4    -0.656439572091E+03    0.21057E-02   -0.54910E-03   516   0.935E-02    0.120E-01
DAV:   5    -0.656439667483E+03   -0.95391E-04   -0.11703E-03   480   0.325E-02    0.261E-01
DAV:   6    -0.656439608915E+03    0.58567E-04   -0.39132E-04   432   0.249E-02
 544 F= -.67168131E+03 E0= -.67161912E+03  d E =-.709610E-03
       N       E                     dE             d eps       ncg     rms          rms(c)
DAV:   1    -0.656439690514E+03   -0.23032E-04   -0.11696E-01   600   0.409E-01    0.136E-01
DAV:   2    -0.656443516023E+03   -0.38255E-02   -0.38916E-02   900   0.142E-01    0.123E+00
DAV:   3    -0.656440403368E+03    0.31127E-02   -0.43948E-02   696   0.122E-01    0.364E-01
DAV:   4    -0.656440160095E+03    0.24327E-03   -0.10330E-03   648   0.572E-02    0.178E-01
DAV:   5    -0.656439785061E+03    0.37503E-03   -0.26849E-04   444   0.326E-02    0.462E-02
DAV:   6    -0.656439792187E+03   -0.71263E-05   -0.10467E-04   312   0.190E-02
 545 F= -.67168118E+03 E0= -.67161836E+03  d E =-.585080E-03
       N       E                     dE             d eps       ncg     rms          rms(c)
DAV:   1    -0.656439702137E+03    0.82924E-04   -0.11292E-02   588   0.127E-01    0.384E-02
DAV:   2    -0.656439758568E+03   -0.56431E-04   -0.39776E-04   480   0.277E-02
 546 F= -.67168124E+03 E0= -.67161841E+03  d E =-.645192E-03
       N       E                     dE             d eps       ncg     rms          rms(c)
DAV:   1    -0.656439891060E+03   -0.18892E-03   -0.44523E-02   600   0.273E-01    0.168E-01
DAV:   2    -0.656453374171E+03   -0.13483E-01   -0.12851E-01   864   0.214E-01    0.226E+00
DAV:   3    -0.656440463730E+03    0.12910E-01   -0.12510E-01   720   0.218E-01    0.322E-01
DAV:   4    -0.656440222786E+03    0.24094E-03   -0.46759E-03   576   0.608E-02    0.331E-01
DAV:   5    -0.656439960998E+03    0.26179E-03   -0.77116E-04   396   0.274E-02    0.193E-01
DAV:   6    -0.656439901989E+03    0.59009E-04   -0.41341E-05   300   0.143E-02
 547 F= -.67168155E+03 E0= -.67161869E+03  d E =-.311910E-03
       N       E                     dE             d eps       ncg     rms          rms(c)
DAV:   1    -0.656439276193E+03    0.68481E-03   -0.27454E-01   600   0.678E-01    0.165E-01
DAV:   2    -0.656440041228E+03   -0.76504E-03   -0.66122E-03   876   0.121E-01    0.415E-01
DAV:   3    -0.656440970665E+03   -0.92944E-03   -0.16641E-02   624   0.104E-01    0.754E-01
DAV:   4    -0.656439889871E+03    0.10808E-02   -0.87760E-03   528   0.720E-02    0.184E-01
DAV:   5    -0.656439731971E+03    0.15790E-03   -0.28469E-04   540   0.394E-02    0.860E-02
DAV:   6    -0.656439621580E+03    0.11039E-03   -0.29992E-04   528   0.259E-02    0.464E-02
DAV:   7    -0.656439609817E+03    0.11763E-04   -0.13932E-04   372   0.176E-02
 548 F= -.67168169E+03 E0= -.67161902E+03  d E =-.444078E-03
       N       E                     dE             d eps       ncg     rms          rms(c)
DAV:   1    -0.656439767107E+03   -0.14553E-03   -0.24111E-02   600   0.201E-01    0.581E-02
DAV:   2    -0.656440408866E+03   -0.64176E-03   -0.41498E-03   672   0.602E-02    0.530E-01
DAV:   3    -0.656439870642E+03    0.53822E-03   -0.51244E-03   468   0.550E-02    0.156E-01
DAV:   4    -0.656439815896E+03    0.54746E-04   -0.33509E-04   396   0.212E-02
 549 F= -.67168177E+03 E0= -.67161885E+03  d E =-.524815E-03
       N       E                     dE             d eps       ncg     rms          rms(c)
DAV:   1    -0.656439841257E+03    0.29385E-04   -0.52193E-02   600   0.291E-01    0.722E-02
DAV:   2    -0.656440107927E+03   -0.26667E-03   -0.16108E-03   816   0.548E-02    0.140E-01
DAV:   3    -0.656440208794E+03   -0.10087E-03   -0.36628E-03   516   0.536E-02    0.366E-01
DAV:   4    -0.656440057386E+03    0.15141E-03   -0.21235E-03   408   0.445E-02    0.154E-01
DAV:   5    -0.656439907567E+03    0.14982E-03   -0.78168E-05   348   0.235E-02    0.207E-02
DAV:   6    -0.656439918218E+03   -0.10651E-04   -0.66003E-05   300   0.113E-02
 550 F= -.67168199E+03 E0= -.67161945E+03  d E =-.224071E-03
       N       E                     dE             d eps       ncg     rms          rms(c)
DAV:   1    -0.656439764424E+03    0.14314E-03   -0.63084E-02   600   0.320E-01    0.920E-02
DAV:   2    -0.656441443544E+03   -0.16791E-02   -0.12536E-02   852   0.101E-01    0.844E-01
DAV:   3    -0.656440067705E+03    0.13758E-02   -0.14446E-02   600   0.781E-02    0.212E-01
DAV:   4    -0.656439872551E+03    0.19515E-03   -0.70909E-04   420   0.284E-02    0.685E-02
DAV:   5    -0.656439855499E+03    0.17052E-04   -0.21850E-04   372   0.160E-02
 551 F= -.67168206E+03 E0= -.67161919E+03  d E =-.296086E-03
       N       E                     dE             d eps       ncg     rms          rms(c)
DAV:   1    -0.656439918116E+03   -0.45565E-04   -0.25485E-02   600   0.212E-01    0.727E-02
DAV:   2    -0.656440913142E+03   -0.99503E-03   -0.34015E-03   720   0.714E-02    0.614E-01
DAV:   3    -0.656440187879E+03    0.72526E-03   -0.61201E-03   492   0.675E-02    0.268E-01
DAV:   4    -0.656440033066E+03    0.15481E-03   -0.12388E-03   504   0.368E-02    0.577E-02
DAV:   5    -0.656439933201E+03    0.99865E-04   -0.20541E-04   360   0.189E-02
 552 F= -.67168222E+03 E0= -.67161958E+03  d E =-.159929E-03
       N       E                     dE             d eps       ncg     rms          rms(c)
DAV:   1    -0.656439760200E+03    0.27287E-03   -0.11280E-01   600   0.445E-01    0.111E-01
DAV:   2    -0.656439998251E+03   -0.23805E-03   -0.26826E-03   876   0.766E-02    0.182E-01
DAV:   3    -0.656440933489E+03   -0.93524E-03   -0.45306E-03   576   0.696E-02    0.691E-01
DAV:   4    -0.656439939245E+03    0.99424E-03   -0.22135E-03   492   0.596E-02    0.578E-02
DAV:   5    -0.656440020990E+03   -0.81746E-04   -0.15992E-04   492   0.250E-02
 553 F= -.67168248E+03 E0= -.67162043E+03  d E =-.420912E-03
       N       E                     dE             d eps       ncg     rms          rms(c)
DAV:   1    -0.656440055971E+03   -0.11673E-03   -0.25016E-02   600   0.215E-01    0.134E-01
DAV:   2    -0.656447317115E+03   -0.72611E-02   -0.63894E-02   840   0.176E-01    0.172E+00
DAV:   3    -0.656440661648E+03    0.66555E-02   -0.74235E-02   672   0.157E-01    0.392E-01
DAV:   4    -0.656440258974E+03    0.40267E-03   -0.14594E-03   636   0.547E-02    0.157E-01
DAV:   5    -0.656440070187E+03    0.18879E-03   -0.16417E-04   384   0.253E-02    0.794E-02
DAV:   6    -0.656440052606E+03    0.17581E-04   -0.90348E-05   300   0.135E-02
 554 F= -.67168256E+03 E0= -.67161974E+03  d E =-.746337E-04
       N       E                     dE             d eps       ncg     rms          rms(c)
DAV:   1    -0.656440053311E+03    0.16875E-04   -0.25278E-02   600   0.214E-01    0.899E-02
DAV:   2    -0.656442274494E+03   -0.22212E-02   -0.18545E-02   828   0.101E-01    0.983E-01
DAV:   3    -0.656440389024E+03    0.18855E-02   -0.22882E-02   612   0.901E-02    0.256E-01
DAV:   4    -0.656440168699E+03    0.22032E-03   -0.69502E-04   468   0.363E-02    0.109E-01
DAV:   5    -0.656440087737E+03    0.80963E-04   -0.51156E-05   360   0.186E-02
 555 F= -.67168264E+03 E0= -.67162004E+03  d E =-.152938E-03
       N       E                     dE             d eps       ncg     rms          rms(c)
DAV:   1    -0.656440073727E+03    0.94972E-04   -0.10742E-03   564   0.447E-02    0.344E-02
DAV:   2    -0.656440416966E+03   -0.34324E-03   -0.23869E-03   396   0.394E-02    0.387E-01
DAV:   3    -0.656440109728E+03    0.30724E-03   -0.29411E-03   396   0.406E-02    0.134E-01
DAV:   4    -0.656440082963E+03    0.26765E-04   -0.79235E-05   360   0.162E-02
 556 F= -.67168264E+03 E0= -.67161983E+03  d E =-.156925E-03
       N       E                     dE             d eps       ncg     rms          rms(c)
DAV:   1    -0.656440128992E+03   -0.19264E-04   -0.12583E-02   600   0.150E-01    0.533E-02
DAV:   2    -0.656440597495E+03   -0.46850E-03   -0.25824E-03   624   0.562E-02    0.447E-01
DAV:   3    -0.656440210581E+03    0.38691E-03   -0.34654E-03   456   0.483E-02    0.156E-01
DAV:   4    -0.656440184871E+03    0.25711E-04   -0.44937E-04   372   0.225E-02
 557 F= -.67168281E+03 E0= -.67162025E+03  d E =-.164281E-03
       N       E                     dE             d eps       ncg     rms          rms(c)
DAV:   1    -0.656440044430E+03    0.16615E-03   -0.61186E-02   600   0.329E-01    0.101E-01
DAV:   2    -0.656440571219E+03   -0.52679E-03   -0.47697E-03   864   0.824E-02    0.409E-01
DAV:   3    -0.656440499417E+03    0.71801E-04   -0.71042E-03   600   0.648E-02    0.409E-01
DAV:   4    -0.656440332334E+03    0.16708E-03   -0.57843E-04   504   0.403E-02    0.782E-02
DAV:   5    -0.656440148875E+03    0.18346E-03   -0.97066E-05   360   0.248E-02    0.994E-02
DAV:   6    -0.656440139037E+03    0.98385E-05   -0.11171E-04   348   0.194E-02
 558 F= -.67168290E+03 E0= -.67162009E+03  d E =-.256073E-03
       N       E                     dE             d eps       ncg     rms          rms(c)
DAV:   1    -0.656440044701E+03    0.10417E-03   -0.19999E-02   600   0.184E-01    0.492E-02
DAV:   2    -0.656440155349E+03   -0.11065E-03   -0.92263E-04   684   0.394E-02    0.188E-01
DAV:   3    -0.656440150354E+03    0.49944E-05   -0.12889E-03   444   0.349E-02    0.195E-01
DAV:   4    -0.656440119127E+03    0.31227E-04   -0.21174E-04   360   0.223E-02
 559 F= -.67168306E+03 E0= -.67162006E+03  d E =-.166920E-03
       N       E                     dE             d eps       ncg     rms          rms(c)
DAV:   1    -0.656440007150E+03    0.14320E-03   -0.28260E-03   564   0.701E-02    0.253E-02
DAV:   2    -0.656440063343E+03   -0.56194E-04   -0.13210E-04   360   0.197E-02
 560 F= -.67168308E+03 E0= -.67161996E+03  d E =-.181000E-03
       N       E                     dE             d eps       ncg     rms          rms(c)
DAV:   1    -0.656439817892E+03    0.18926E-03   -0.20242E-02   600   0.195E-01    0.640E-02
DAV:   2    -0.656440372713E+03   -0.55482E-03   -0.40295E-03   828   0.594E-02    0.440E-01
DAV:   3    -0.656439935233E+03    0.43748E-03   -0.43505E-03   468   0.476E-02    0.158E-01
DAV:   4    -0.656439931421E+03    0.38115E-05   -0.26065E-04   540   0.314E-02
 561 F= -.67168324E+03 E0= -.67162003E+03  d E =-.163593E-03
       N       E                     dE             d eps       ncg     rms          rms(c)
DAV:   1    -0.656439526658E+03    0.40857E-03   -0.20668E-02   600   0.197E-01    0.685E-02
DAV:   2    -0.656440112962E+03   -0.58630E-03   -0.24466E-03   708   0.629E-02    0.515E-01
DAV:   3    -0.656439657754E+03    0.45521E-03   -0.32155E-03   480   0.612E-02    0.182E-01
DAV:   4    -0.656439584706E+03    0.73048E-04   -0.52343E-04   396   0.248E-02
 562 F= -.67168320E+03 E0= -.67162082E+03  d E =-.118599E-03
       N       E                     dE             d eps       ncg     rms          rms(c)
DAV:   1    -0.656439683239E+03   -0.25486E-04   -0.26257E-03   576   0.709E-02    0.514E-02
DAV:   2    -0.656440646266E+03   -0.96303E-03   -0.78810E-03   660   0.685E-02    0.549E-01
DAV:   3    -0.656439938785E+03    0.70748E-03   -0.88302E-03   480   0.626E-02    0.252E-01
DAV:   4    -0.656439681222E+03    0.25756E-03   -0.34149E-04   480   0.321E-02    0.280E-02
DAV:   5    -0.656439664018E+03    0.17203E-04   -0.43301E-05   324   0.142E-02
 563 F= -.67168317E+03 E0= -.67162056E+03  d E =-.928600E-04
       N       E                     dE             d eps       ncg     rms          rms(c)
DAV:   1    -0.656439602730E+03    0.78491E-04   -0.13125E-02   600   0.154E-01    0.424E-02
DAV:   2    -0.656439688451E+03   -0.85720E-04   -0.55108E-04   504   0.356E-02
 564 F= -.67168330E+03 E0= -.67162028E+03  d E =-.131424E-03
       N       E                     dE             d eps       ncg     rms          rms(c)
DAV:   1    -0.656439661459E+03   -0.58728E-04   -0.78706E-04   432   0.308E-02    0.135E-01
DAV:   2    -0.656449629699E+03   -0.99682E-02   -0.87519E-02   720   0.192E-01    0.199E+00
DAV:   3    -0.656440094402E+03    0.95353E-02   -0.90746E-02   624   0.171E-01    0.308E-01
DAV:   4    -0.656439795071E+03    0.29933E-03   -0.22002E-03   444   0.472E-02    0.223E-01
DAV:   5    -0.656439642121E+03    0.15295E-03   -0.12949E-04   324   0.167E-02    0.128E-01
DAV:   6    -0.656439634674E+03    0.74469E-05   -0.30996E-05   300   0.810E-03
 565 F= -.67168324E+03 E0= -.67162033E+03  d E =-.707030E-04
       N       E                     dE             d eps       ncg     rms          rms(c)
DAV:   1    -0.656439568542E+03    0.73579E-04   -0.12819E-02   588   0.148E-01    0.923E-02
DAV:   2    -0.656443286079E+03   -0.37175E-02   -0.85612E-03   684   0.120E-01    0.129E+00
DAV:   3    -0.656439826301E+03    0.34598E-02   -0.11715E-02   588   0.122E-01    0.241E-01
DAV:   4    -0.656439768977E+03    0.57325E-04   -0.21408E-03   432   0.397E-02    0.267E-01
DAV:   5    -0.656439620568E+03    0.14841E-03   -0.20563E-04   348   0.172E-02    0.706E-02
DAV:   6    -0.656439585239E+03    0.35329E-04   -0.71274E-05   312   0.110E-02
 566 F= -.67168332E+03 E0= -.67162068E+03  d E =-.754425E-04
