basalPlane                              
           1
     9.570946    0.000000    0.000000
    -6.380628   11.051579    0.000000
     0.000000    0.000000   34.880263
   C    Co   H    Mo   S 
  10   1  10  24  48
Direct configuration=     1
   0.10080419  0.01393949  0.93690675
   0.07539647  0.08262920  0.96569412
   0.19187636  0.09462666  0.90645697
   0.22322504  0.21329203  0.91649715
   0.15104431  0.20583424  0.95306849
   0.72357704  0.99199412  0.91680447
   0.86308419  0.17312631  0.88372420
   0.77601843  0.11852629  0.91825472
   0.86491620  0.08038233  0.86098315
   0.77853695  0.96842659  0.88142906
   0.97490136  0.09385696  0.91385637
   0.15084684  0.28034460  0.96814512
   0.75589760  0.16525971  0.94180789
   0.92365575  0.09306288  0.83331505
   0.92098908  0.26871306  0.87652472
   0.65679125  0.92585379  0.93902865
   0.00763099  0.04701521  0.99212806
   0.05573184  0.91705216  0.93769138
   0.22852187  0.06969871  0.88007716
   0.28727077  0.29439803  0.89906635
   0.76057812  0.88125449  0.87208800
   0.55555566  0.08333325  0.25000928
   0.55555566  0.33333325  0.25000928
   0.44444432  0.41666674  0.74999076
   0.55555566  0.58333325  0.25000928
   0.44444432  0.66666674  0.74999076
   0.55555566  0.83333325  0.25000928
   0.44444432  0.91666674  0.74999076
   0.88888899  0.33333325  0.25000928
   0.77777765  0.16666674  0.74999076
   0.77777765  0.41666674  0.74999076
   0.88888899  0.58333325  0.25000928
   0.77777765  0.66666674  0.74999076
   0.88888899  0.83333325  0.25000928
   0.77777765  0.91666674  0.74999076
   0.11111099  0.91666674  0.74999076
   0.88888899  0.08333325  0.25000928
   0.22222233  0.83333325  0.25000928
   0.44444432  0.16666674  0.74999076
   0.22222233  0.58333325  0.25000928
   0.11111099  0.41666674  0.74999076
   0.22222233  0.33333325  0.25000928
   0.22222233  0.08333325  0.25000928
   0.11111099  0.16666674  0.74999076
   0.11111099  0.66666674  0.74999076
   0.77777765  0.16666674  0.29487388
   0.88888899  0.08333325  0.79485533
   0.77777765  0.16666674  0.20514467
   0.88888899  0.08333325  0.70512613
   0.22222233  0.08333325  0.70512613
   0.11111099  0.16666674  0.20514467
   0.77777765  0.41666674  0.29487388
   0.88888899  0.33333325  0.79485533
   0.11111099  0.66666674  0.20514467
   0.55555566  0.83333325  0.70512613
   0.88888899  0.33333325  0.70512613
   0.22222233  0.08333325  0.79485533
   0.11111099  0.16666674  0.29487388
   0.77777765  0.66666674  0.29487388
   0.88888899  0.58333325  0.79485533
   0.77777765  0.66666674  0.20514467
   0.88888899  0.58333325  0.70512613
   0.77777765  0.91666674  0.29487388
   0.88888899  0.83333325  0.79485533
   0.77777765  0.41666674  0.20514467
   0.44444432  0.91666674  0.20514467
   0.44444432  0.91666674  0.29487388
   0.22222233  0.58333325  0.70512613
   0.22222233  0.58333325  0.79485533
   0.11111099  0.91666674  0.29487388
   0.22222233  0.83333325  0.79485533
   0.11111099  0.91666674  0.20514467
   0.22222233  0.83333325  0.70512613
   0.11111099  0.66666674  0.29487388
   0.77777765  0.91666674  0.20514467
   0.44444432  0.16666674  0.29487388
   0.55555566  0.08333325  0.79485533
   0.44444432  0.16666674  0.20514467
   0.55555566  0.08333325  0.70512613
   0.44444432  0.41666674  0.29487388
   0.55555566  0.33333325  0.79485533
   0.44444432  0.41666674  0.20514467
   0.55555566  0.33333325  0.70512613
   0.22222233  0.33333325  0.70512613
   0.11111099  0.41666674  0.20514467
   0.44444432  0.66666674  0.29487388
   0.55555566  0.58333325  0.79485533
   0.44444432  0.66666674  0.20514467
   0.55555566  0.58333325  0.70512613
   0.22222233  0.33333325  0.79485533
   0.11111099  0.41666674  0.29487388
   0.55555566  0.83333325  0.79485533
   0.88888899  0.83333325  0.70512613
Direct configuration=     2
   0.09999115  0.01433928  0.93674276
   0.07514803  0.08290649  0.96568900
   0.19198076  0.09488824  0.90634137
   0.22233378  0.21255806  0.91625983
   0.14991385  0.20517299  0.95308522
   0.72448357  0.99241523  0.91685854
   0.86363722  0.17278351  0.88400239
   0.77649880  0.11850302  0.91830898
   0.86357862  0.08039710  0.86707875
   0.77957779  0.96882857  0.88158668
   0.97277838  0.09348758  0.91419614
   0.15070470  0.28023588  0.96815621
   0.75589907  0.16524178  0.94183829
   0.93359008  0.09550224  0.83980478
   0.92119254  0.26877391  0.87647799
   0.65682969  0.92588634  0.93906734
   0.00759951  0.04705058  0.99211099
   0.05563559  0.91705317  0.93765092
   0.22842316  0.06978970  0.88001869
   0.28717032  0.29429804  0.89899131
   0.76086054  0.88127585  0.87205000
   0.55617273  0.08410295  0.24999786
   0.55617447  0.33410420  0.24999804
   0.44407131  0.41597047  0.75003288
   0.55617398  0.58410375  0.24999786
   0.44353531  0.66561327  0.74998918
   0.55617171  0.83410264  0.24999776
   0.44391944  0.91586293  0.75002209
   0.88951783  0.33410565  0.24999827
   0.77769559  0.16617866  0.74978815
   0.77696084  0.41586967  0.75004293
   0.88951732  0.58410475  0.24999815
   0.77693151  0.66562738  0.75001881
   0.88951781  0.83410429  0.24999839
   0.77742028  0.91618974  0.74981180
   0.11034264  0.91599769  0.75001163
   0.88951819  0.08410561  0.24999877
   0.22281671  0.83411103  0.24999744
   0.44405618  0.16638186  0.74997469
   0.22281687  0.58411187  0.24999756
   0.11042357  0.41581920  0.74999281
   0.22281754  0.33411261  0.24999776
   0.22281799  0.08411134  0.24999781
   0.11066192  0.16615930  0.74961693
   0.11058293  0.66598633  0.75002585
   0.77746602  0.16628091  0.29459580
   0.88205504  0.08125927  0.78213860
   0.77746388  0.16627787  0.20543187
   0.88914732  0.08369281  0.70525998
   0.22246070  0.08377789  0.70540554
   0.11080196  0.16627848  0.20543195
   0.77746587  0.41628082  0.29459591
   0.88932791  0.33402071  0.79458591
   0.11080170  0.66627843  0.20543209
   0.55607509  0.83377244  0.70540837
   0.88906815  0.33355835  0.70541872
   0.22274965  0.08347364  0.79466274
   0.11080382  0.16628129  0.29459573
   0.77746559  0.66628100  0.29459590
   0.88922437  0.58374334  0.79458760
   0.77746360  0.66627747  0.20543189
   0.88915082  0.58368710  0.70538649
   0.77746590  0.91628105  0.29459574
   0.88943957  0.83349935  0.79465058
   0.77746386  0.41627789  0.20543190
   0.44413388  0.91627743  0.20543207
   0.44413633  0.91628093  0.29459586
   0.22256966  0.58373921  0.70540091
   0.22255729  0.58373556  0.79457868
   0.11080413  0.91628159  0.29459581
   0.22257298  0.83373432  0.79456650
   0.11080183  0.91627828  0.20543208
   0.22250219  0.83368644  0.70541053
   0.11080416  0.66628156  0.29459593
   0.77746377  0.91627746  0.20543187
   0.44413623  0.16628088  0.29459583
   0.55554556  0.08357375  0.79466879
   0.44413440  0.16627786  0.20543201
   0.55607464  0.08379632  0.70539749
   0.44413629  0.41628101  0.29459590
   0.55583822  0.33366131  0.79455878
   0.44413470  0.41627815  0.20543188
   0.55578169  0.33358631  0.70541977
   0.22244752  0.33351497  0.70541708
   0.11080215  0.41627887  0.20543192
   0.44413661  0.66628098  0.29459589
   0.55589010  0.58376718  0.79458988
   0.44413443  0.66627756  0.20543197
   0.55586984  0.58374667  0.70539631
   0.22270250  0.33393433  0.79467596
   0.11080405  0.41628134  0.29459594
   0.55543187  0.83353892  0.79460486
   0.88912414  0.83375246  0.70540506
Direct configuration=     3
   0.10039316  0.01414160  0.93682384
   0.07527087  0.08276939  0.96569153
   0.19192914  0.09475890  0.90639853
   0.22277446  0.21292097  0.91637717
   0.15047281  0.20549994  0.95307695
   0.72403534  0.99220701  0.91683181
   0.86336378  0.17295301  0.88386484
   0.77626129  0.11851453  0.91828215
   0.86423998  0.08038980  0.86406478
   0.77906315  0.96862981  0.88150874
   0.97382809  0.09367022  0.91402814
   0.15077498  0.28028964  0.96815072
   0.75589834  0.16525064  0.94182326
   0.92867805  0.09429609  0.83659593
   0.92109194  0.26874382  0.87650110
   0.65681069  0.92587025  0.93904821
   0.00761508  0.04703309  0.99211943
   0.05568318  0.91705267  0.93767093
   0.22847197  0.06974471  0.88004760
   0.28721999  0.29434748  0.89902842
   0.76072090  0.88126529  0.87206879
   0.55586762  0.08372237  0.25000351
   0.55586850  0.33372300  0.25000360
   0.44425575  0.41631474  0.75001205
   0.55586825  0.58372278  0.25000351
   0.44398477  0.66613416  0.74998996
   0.55586711  0.83372222  0.25000346
   0.44417897  0.91626037  0.75000660
   0.88920690  0.33372373  0.25000372
   0.77773617  0.16641999  0.74988833
   0.77736471  0.41626379  0.75001714
   0.88920664  0.58372328  0.25000365
   0.77734989  0.66614129  0.75000494
   0.88920689  0.83372305  0.25000378
   0.77759698  0.91642559  0.74990029
   0.11072255  0.91632850  0.75000131
   0.88920708  0.08372371  0.25000397
   0.22252282  0.83372646  0.25000330
   0.44424809  0.16652272  0.74998263
   0.22252290  0.58372688  0.25000336
   0.11076347  0.41623827  0.74999180
   0.22252324  0.33372725  0.25000346
   0.22252347  0.08372661  0.25000348
   0.11088396  0.16641020  0.74980177
   0.11084403  0.66632276  0.75000850
   0.77762011  0.16647169  0.29473330
   0.88543409  0.08228475  0.78842639
   0.77761903  0.16647015  0.20528986
   0.88901959  0.08351502  0.70519380
   0.22234284  0.08355804  0.70526739
   0.11095476  0.16647045  0.20528990
   0.77762003  0.41647164  0.29473335
   0.88911089  0.33368079  0.79471912
   0.11095463  0.66647043  0.20528998
   0.55581826  0.83355528  0.70526882
   0.88897957  0.33344705  0.70527405
   0.22248892  0.08340422  0.79475796
   0.11095570  0.16647188  0.29473326
   0.77761989  0.66647173  0.29473335
   0.88905854  0.58354057  0.79471998
   0.77761888  0.66646995  0.20528988
   0.88902136  0.58351214  0.70525776
   0.77762004  0.91647176  0.29473327
   0.88916734  0.83341722  0.79475182
   0.77761901  0.41647016  0.20528988
   0.44428738  0.91646993  0.20528997
   0.44428862  0.91647170  0.29473333
   0.22239792  0.58353848  0.70526504
   0.22239167  0.58353664  0.79471547
   0.11095585  0.91647203  0.29473330
   0.22239960  0.83353601  0.79470931
   0.11095469  0.91647036  0.20528997
   0.22236381  0.83351180  0.70526991
   0.11095587  0.66647202  0.29473336
   0.77761897  0.91646994  0.20528987
   0.44428856  0.16647167  0.29473331
   0.55555055  0.08345483  0.79476102
   0.44428764  0.16647014  0.20528993
   0.55581803  0.08356735  0.70526331
   0.44428860  0.41647174  0.29473335
   0.55569851  0.33349910  0.79470541
   0.44428779  0.41647029  0.20528987
   0.55566993  0.33346118  0.70527458
   0.22233617  0.33342512  0.70527322
   0.11095485  0.41647066  0.20528989
   0.44428876  0.66647172  0.29473334
   0.55572474  0.58355262  0.79472113
   0.44428765  0.66646999  0.20528991
   0.55571449  0.58354225  0.70526272
   0.22246508  0.33363712  0.79476465
   0.11095582  0.41647190  0.29473337
   0.55549308  0.83343722  0.79472871
   0.88900787  0.83354518  0.70526715
Direct configuration=     4
   0.09987410  0.01376424  0.93670241
   0.07425678  0.08231334  0.96555577
   0.19075697  0.09411563  0.90633246
   0.22182395  0.21323330  0.91641641
   0.15055743  0.20604533  0.95285136
   0.72304902  0.99067191  0.91744805
   0.86251032  0.17786082  0.88591864
   0.77603351  0.11966075  0.91898238
   0.87495626  0.08184673  0.86207603
   0.77450776  0.96370062  0.88322434
   0.97370524  0.09358487  0.91506558
   0.15062819  0.28006652  0.96814093
   0.75580596  0.16505178  0.94186431
   0.93127417  0.09497027  0.84033213
   0.92102820  0.26804245  0.87638866
   0.65700756  0.92617521  0.93907556
   0.00752631  0.04704495  0.99211407
   0.05575653  0.91745977  0.93762237
   0.22834779  0.06979736  0.87994719
   0.28693028  0.29405807  0.89897310
   0.76142861  0.88196488  0.87194182
   0.55613311  0.08407214  0.25000096
   0.55613497  0.33407338  0.25000120
   0.44407381  0.41600411  0.75001399
   0.55613440  0.58407319  0.25000100
   0.44351724  0.66565652  0.74996258
   0.55613196  0.83407170  0.25000082
   0.44398504  0.91593622  0.74996260
   0.88947967  0.33407772  0.25000095
   0.77411333  0.16801967  0.74845846
   0.77714529  0.41609972  0.75002369
   0.88947932  0.58407664  0.25000091
   0.77683524  0.66557172  0.75000988
   0.88947957  0.83407607  0.25000107
   0.77440437  0.91200113  0.74850616
   0.11049578  0.91606700  0.74997816
   0.88947896  0.08407779  0.25000160
   0.22278341  0.83408419  0.25000055
   0.44401178  0.16645353  0.74990919
   0.22278362  0.58408512  0.25000067
   0.11051571  0.41592400  0.74995255
   0.22278450  0.33408612  0.25000079
   0.22278476  0.08408457  0.25000087
   0.11409041  0.16726447  0.74881219
   0.11043357  0.66583618  0.75002571
   0.77748409  0.16629395  0.29453829
   0.88503598  0.08219455  0.78535467
   0.77748226  0.16629034  0.20548434
   0.88922285  0.08372475  0.70468599
   0.22270385  0.08368082  0.70547300
   0.11081814  0.16629317  0.20548360
   0.77748423  0.41629392  0.29453847
   0.88941143  0.33395624  0.79461258
   0.11081719  0.66629261  0.20548366
   0.55574458  0.83362606  0.70545000
   0.88931639  0.33387677  0.70543682
   0.22258748  0.08348494  0.79464573
   0.11082083  0.16629684  0.29453869
   0.77748378  0.66629383  0.29453841
   0.88928356  0.58376318  0.79453807
   0.77748199  0.66628973  0.20548427
   0.88919957  0.58367907  0.70545155
   0.77748379  0.91629379  0.29453823
   0.88945403  0.83358388  0.79467291
   0.77748220  0.41629052  0.20548421
   0.44415084  0.91629025  0.20548405
   0.44415369  0.91629456  0.29453867
   0.22255662  0.58371110  0.70548723
   0.22253934  0.58371685  0.79451289
   0.11082071  0.91629670  0.29453869
   0.22257636  0.83374336  0.79449077
   0.11081735  0.91629237  0.20548370
   0.22250472  0.83370249  0.70550518
   0.11082072  0.66629676  0.29453885
   0.77748193  0.91628974  0.20548427
   0.44415395  0.16629481  0.29453868
   0.55561535  0.08357993  0.79468312
   0.44415179  0.16629117  0.20548403
   0.55572160  0.08368143  0.70547615
   0.44415388  0.41629491  0.29453875
   0.55581456  0.33363468  0.79451338
   0.44415213  0.41629143  0.20548387
   0.55579276  0.33358655  0.70549042
   0.22264730  0.33379849  0.70545293
   0.11081802  0.41629353  0.20548356
   0.44415395  0.66629480  0.29453871
   0.55589499  0.58377463  0.79452025
   0.44415140  0.66629056  0.20548391
   0.55585228  0.58369777  0.70548847
   0.22245648  0.33372568  0.79467235
   0.11082067  0.41629678  0.29453879
   0.55542380  0.83350897  0.79461618
   0.88932377  0.83361553  0.70544702
Direct configuration=     5
   0.10021691  0.01401346  0.93678261
   0.07492652  0.08261453  0.96564543
   0.19153111  0.09454047  0.90637609
   0.22245170  0.21302703  0.91639049
   0.15050154  0.20568514  0.95300035
   0.72370041  0.99168574  0.91704106
   0.86307397  0.17461954  0.88456225
   0.77618394  0.11890375  0.91851993
   0.86787889  0.08088452  0.86338946
   0.77751629  0.96695602  0.88209131
   0.97378637  0.09364124  0.91438042
   0.15072514  0.28021387  0.96814740
   0.75586697  0.16518312  0.94183720
   0.92955961  0.09452502  0.83786463
   0.92107029  0.26850566  0.87646292
   0.65687754  0.92597380  0.93905750
   0.00758493  0.04703712  0.99211761
   0.05570809  0.91719091  0.93765444
   0.22842980  0.06976259  0.88001351
   0.28712161  0.29424921  0.89900963
   0.76096121  0.88150285  0.87202567
   0.55595777  0.08384114  0.25000264
   0.55595898  0.33384198  0.25000278
   0.44419397  0.41620926  0.75001271
   0.55595863  0.58384176  0.25000266
   0.44382601  0.66597197  0.74998066
   0.55595704  0.83384089  0.25000256
   0.44411312  0.91615030  0.74999166
   0.88929953  0.33384394  0.25000278
   0.77650597  0.16696319  0.74940279
   0.77729020  0.41620808  0.75001936
   0.88929924  0.58384327  0.25000272
   0.77717513  0.66594788  0.75000662
   0.88929948  0.83384292  0.25000286
   0.77651288  0.91492319  0.74942689
   0.11064555  0.91623970  0.74999345
   0.88929940  0.08384395  0.25000317
   0.22261131  0.83384793  0.25000237
   0.44416785  0.16649922  0.74995769
   0.22261143  0.58384852  0.25000244
   0.11067934  0.41613155  0.74997847
   0.22261195  0.33384911  0.25000255
   0.22261219  0.08384816  0.25000260
   0.11197277  0.16670029  0.74946574
   0.11070465  0.66615753  0.75001434
   0.77757392  0.16641133  0.29466708
   0.88529891  0.08225412  0.78738333
   0.77757258  0.16640909  0.20535590
   0.88908861  0.08358624  0.70502136
   0.22246542  0.08359973  0.70533721
   0.11090837  0.16641025  0.20535568
   0.77757392  0.41641129  0.29466718
   0.88921294  0.33377433  0.79468294
   0.11090796  0.66641005  0.20535575
   0.55579324  0.83357932  0.70533034
   0.88909394  0.33359297  0.70532932
   0.22252239  0.08343163  0.79471985
   0.11090990  0.16641244  0.29466719
   0.77757367  0.66641132  0.29466715
   0.88913495  0.58361616  0.79465821
   0.77757240  0.66640875  0.20535589
   0.88908187  0.58356882  0.70532357
   0.77757378  0.91641132  0.29466704
   0.88926469  0.83347381  0.79472502
   0.77757256  0.41640916  0.20535587
   0.44424101  0.91640892  0.20535587
   0.44424280  0.91641155  0.29466723
   0.22245181  0.58359710  0.70534049
   0.22244181  0.58359783  0.79464668
   0.11090996  0.91641249  0.29466722
   0.22245962  0.83360642  0.79463510
   0.11090806  0.91640992  0.20535576
   0.22241166  0.83357655  0.70534980
   0.11090998  0.66641250  0.29466731
   0.77757244  0.91640875  0.20535588
   0.44424285  0.16641161  0.29466722
   0.55557256  0.08349731  0.79473457
   0.44424151  0.16640937  0.20535584
   0.55578529  0.08360609  0.70533559
   0.44424285  0.41641169  0.29466727
   0.55573792  0.33354514  0.79464020
   0.44424173  0.41640955  0.20535575
   0.55571164  0.33350375  0.70534787
   0.22244182  0.33355190  0.70533424
   0.11090839  0.41641051  0.20535565
   0.44424298  0.66641164  0.29466725
   0.55578255  0.58362801  0.79465291
   0.44424139  0.66640906  0.20535579
   0.55576128  0.58359506  0.70533938
   0.22246216  0.33366720  0.79473331
   0.11090993  0.41641244  0.29466730
   0.55546955  0.83346159  0.79469050
   0.88911514  0.83356907  0.70532822
Direct configuration=     6
   0.10011530  0.01370413  0.93673828
   0.07389518  0.08223586  0.96544925
   0.18993456  0.09387513  0.90634572
   0.22152031  0.21330947  0.91644565
   0.15075447  0.20619019  0.95286094
   0.72362267  0.99135900  0.91749404
   0.86213506  0.17409860  0.88549358
   0.77597451  0.11918783  0.91901955
   0.87034484  0.08126848  0.86473519
   0.77688953  0.96696153  0.88289691
   0.97354057  0.09361132  0.91519209
   0.15060987  0.28011013  0.96815028
   0.75538751  0.16536073  0.94218429
   0.93616103  0.09597345  0.83873399
   0.92176731  0.26947618  0.87638822
   0.65632923  0.92564861  0.93935258
   0.00748088  0.04703206  0.99212057
   0.05567374  0.91736706  0.93760252
   0.22819420  0.06979539  0.87991016
   0.28680942  0.29401294  0.89893765
   0.76117699  0.88100762  0.87193014
   0.55606522  0.08398568  0.25000265
   0.55606709  0.33398708  0.25000291
   0.44413698  0.41611153  0.75002343
   0.55606650  0.58398672  0.25000270
   0.44351449  0.66576710  0.74997176
   0.55606412  0.83398533  0.25000252
   0.44414812  0.91606895  0.74998053
   0.88940969  0.33399613  0.25000248
   0.77295722  0.16878453  0.74800027
   0.77735895  0.41627409  0.75002753
   0.88940923  0.58399508  0.25000249
   0.77698907  0.66568978  0.75001818
   0.88940954  0.83399441  0.25000260
   0.77334916  0.91051664  0.74806381
   0.11053427  0.91614012  0.74999996
   0.88940962  0.08399602  0.25000297
   0.22272050  0.83399703  0.25000214
   0.44398864  0.16643672  0.74992709
   0.22272093  0.58399804  0.25000227
   0.11050198  0.41591493  0.74996838
   0.22272177  0.33399907  0.25000231
   0.22272200  0.08399752  0.25000242
   0.11558630  0.16784655  0.74849974
   0.11048572  0.66588614  0.75002663
   0.77751759  0.16633594  0.29452502
   0.88576212  0.08243579  0.78668051
   0.77751578  0.16633202  0.20549554
   0.88915324  0.08368468  0.70429043
   0.22298572  0.08353171  0.70539561
   0.11085103  0.16633687  0.20549424
   0.77751799  0.41633599  0.29452521
   0.88928307  0.33378607  0.79458338
   0.11085002  0.66633616  0.20549422
   0.55506810  0.83327681  0.70533441
   0.88952383  0.33434038  0.70532020
   0.22245622  0.08353567  0.79461124
   0.11085337  0.16634100  0.29452579
   0.77751748  0.66633567  0.29452513
   0.88925107  0.58372937  0.79453935
   0.77751555  0.66633132  0.20549542
   0.88916090  0.58363075  0.70545620
   0.77751719  0.91633564  0.29452491
   0.88930757  0.83359833  0.79463990
   0.77751585  0.41633238  0.20549540
   0.44418253  0.91633184  0.20549523
   0.44418503  0.91633637  0.29452513
   0.22249854  0.58365747  0.70549736
   0.22249709  0.58366259  0.79449655
   0.11085306  0.91634045  0.29452583
   0.22256274  0.83372205  0.79446073
   0.11085008  0.91633575  0.20549423
   0.22244573  0.83364016  0.70551674
   0.11085298  0.66634070  0.29452593
   0.77751555  0.91633150  0.20549553
   0.44418551  0.16633668  0.29452521
   0.55573875  0.08364899  0.79465023
   0.44418368  0.16633288  0.20549522
   0.55501396  0.08348217  0.70536331
   0.44418538  0.41633691  0.29452524
   0.55578548  0.33360961  0.79450348
   0.44418410  0.41633324  0.20549508
   0.55580709  0.33361510  0.70549343
   0.22292903  0.33411479  0.70537645
   0.11085093  0.41633719  0.20549408
   0.44418528  0.66633663  0.29452522
   0.55584867  0.58372997  0.79450619
   0.44418304  0.66633208  0.20549503
   0.55579852  0.58361025  0.70550211
   0.22228068  0.33350037  0.79464360
   0.11085304  0.41634074  0.29452592
   0.55551679  0.83346470  0.79457996
   0.88954262  0.83328193  0.70534402
Direct configuration=     7
   0.10012344  0.01372889  0.93674183
   0.07397775  0.08226617  0.96546495
   0.19006237  0.09392840  0.90634815
   0.22159487  0.21328685  0.91644124
   0.15073423  0.20614976  0.95287210
   0.72362890  0.99138516  0.91745777
   0.86221022  0.17414030  0.88541902
   0.77599128  0.11916509  0.91897955
   0.87014742  0.08123774  0.86462746
   0.77693970  0.96696109  0.88283241
   0.97356025  0.09361372  0.91512711
   0.15061910  0.28011843  0.96815004
   0.75542590  0.16534651  0.94215651
   0.93563254  0.09585749  0.83866439
   0.92171151  0.26939849  0.87639420
   0.65637312  0.92567464  0.93932896
   0.00748921  0.04703246  0.99212033
   0.05567649  0.91735295  0.93760667
   0.22821306  0.06979277  0.87991844
   0.28683441  0.29403186  0.89894341
   0.76115972  0.88104727  0.87193779
   0.55605662  0.08397411  0.25000265
   0.55605844  0.33397546  0.25000290
   0.44414154  0.41611935  0.75002257
   0.55605787  0.58397511  0.25000270
   0.44353943  0.66578351  0.74997247
   0.55605554  0.83397376  0.25000252
   0.44414531  0.91607546  0.74998142
   0.88940087  0.33398394  0.25000251
   0.77324132  0.16863872  0.74811255
   0.77735345  0.41626880  0.75002688
   0.88940043  0.58398293  0.25000251
   0.77700396  0.66571044  0.75001726
   0.88940073  0.83398228  0.25000262
   0.77360244  0.91086941  0.74817294
   0.11054317  0.91614809  0.74999944
   0.88940080  0.08398385  0.25000299
   0.22271175  0.83398510  0.25000216
   0.44400298  0.16644172  0.74992954
   0.22271217  0.58398607  0.25000228
   0.11051618  0.41593227  0.74996919
   0.22271298  0.33398706  0.25000233
   0.22271320  0.08398556  0.25000244
   0.11529701  0.16775479  0.74857707
   0.11050325  0.66590787  0.75002565
   0.77752210  0.16634198  0.29453639
   0.88572504  0.08242124  0.78673678
   0.77752033  0.16633819  0.20548436
   0.88914806  0.08367680  0.70434894
   0.22294407  0.08353715  0.70539093
   0.11085562  0.16634275  0.20548315
   0.77752247  0.41634202  0.29453657
   0.88927746  0.33378513  0.79459135
   0.11085466  0.66634207  0.20548313
   0.55512615  0.83330103  0.70533408
   0.88948942  0.33428054  0.70532093
   0.22246151  0.08352734  0.79461994
   0.11085790  0.16634672  0.29453711
   0.77752198  0.66634173  0.29453650
   0.88924177  0.58372031  0.79454886
   0.77752010  0.66633752  0.20548425
   0.88915458  0.58362579  0.70544558
   0.77752172  0.91634169  0.29453629
   0.88930414  0.83358836  0.79464671
   0.77752039  0.41633853  0.20548423
   0.44418721  0.91633801  0.20548407
   0.44418966  0.91634239  0.29453651
   0.22249480  0.58365264  0.70548480
   0.22249267  0.58365740  0.79450857
   0.11085762  0.91634622  0.29453715
   0.22255448  0.83371279  0.79447469
   0.11085472  0.91634169  0.20548315
   0.22244301  0.83363507  0.70550338
   0.11085754  0.66634645  0.29453725
   0.77752010  0.91633768  0.20548435
   0.44419010  0.16634268  0.29453658
   0.55572545  0.08363685  0.79465698
   0.44418831  0.16633900  0.20548406
   0.55507571  0.08349209  0.70536109
   0.44418998  0.41634290  0.29453661
   0.55578168  0.33360445  0.79451443
   0.44418871  0.41633935  0.20548393
   0.55579945  0.33360618  0.70548178
   0.22289003  0.33406972  0.70537308
   0.11085553  0.41634306  0.20548300
   0.44418990  0.66634263  0.29453659
   0.55584338  0.58372181  0.79451794
   0.44418771  0.66633824  0.20548389
   0.55579554  0.58360903  0.70548908
   0.22229521  0.33351373  0.79465078
   0.11085759  0.41634648  0.29453724
   0.55551301  0.83346445  0.79458881
   0.88950840  0.83330492  0.70534276
Direct configuration=     8
   0.10030018  0.01381838  0.93683064
   0.07331250  0.08234358  0.96541801
   0.18886281  0.09401070  0.90619513
   0.22088105  0.21285543  0.91628433
   0.15045253  0.20592207  0.95305214
   0.72334578  0.99181658  0.91825228
   0.86423581  0.17537766  0.88534021
   0.77483587  0.11826899  0.91980017
   0.87251391  0.08181226  0.86563241
   0.77803964  0.96649144  0.88277968
   0.97295506  0.09353430  0.91580754
   0.15055826  0.28031151  0.96819885
   0.75453915  0.16576847  0.94276173
   0.94135205  0.09706361  0.83943885
   0.92113218  0.26866860  0.87665051
   0.65523890  0.92490811  0.93984130
   0.00748377  0.04707397  0.99207252
   0.05533380  0.91686728  0.93755380
   0.22754076  0.06986178  0.87990407
   0.28645686  0.29391481  0.89883278
   0.76138739  0.88167229  0.87214548
   0.55600395  0.08390995  0.25000164
   0.55600602  0.33391155  0.25000191
   0.44423185  0.41631349  0.75006372
   0.55600538  0.58391114  0.25000169
   0.44324779  0.66582348  0.75000350
   0.55600270  0.83390941  0.25000147
   0.44441235  0.91623199  0.75006083
   0.88934358  0.33391918  0.25000159
   0.77284598  0.16922152  0.74776202
   0.77774349  0.41656240  0.75004550
   0.88934308  0.58391788  0.25000165
   0.77736764  0.66583847  0.75003880
   0.88934322  0.83391709  0.25000171
   0.77302437  0.90992691  0.74782168
   0.11041512  0.91616043  0.75006812
   0.88934399  0.08391883  0.25000203
   0.22265820  0.83391927  0.25000126
   0.44377339  0.16619974  0.75000334
   0.22265877  0.58392047  0.25000138
   0.11027298  0.41566724  0.75002454
   0.22265994  0.33392179  0.25000139
   0.22265986  0.08391993  0.25000151
   0.11632262  0.16824386  0.74820475
   0.11058762  0.66599980  0.75002736
   0.77754589  0.16637402  0.29448832
   0.88522349  0.08229738  0.78628339
   0.77754309  0.16636843  0.20553089
   0.88892124  0.08361258  0.70357879
   0.22387870  0.08313952  0.70511583
   0.11087980  0.16637710  0.20552869
   0.77754671  0.41637404  0.29448860
   0.88882854  0.33340070  0.79439806
   0.11087834  0.66637596  0.20552853
   0.55285308  0.83220600  0.70492452
   0.89016396  0.33586872  0.70492823
   0.22224709  0.08377153  0.79444846
   0.11088339  0.16638250  0.29448964
   0.77754594  0.66637348  0.29448848
   0.88920570  0.58370970  0.79452635
   0.77754279  0.66636746  0.20553067
   0.88909453  0.58358223  0.70548727
   0.77754524  0.91637330  0.29448815
   0.88884404  0.83361023  0.79444867
   0.77754310  0.41636893  0.20553062
   0.44420819  0.91636601  0.20553028
   0.44421110  0.91637182  0.29448863
   0.22237301  0.58356425  0.70553133
   0.22243350  0.58356138  0.79443754
   0.11088258  0.91638144  0.29448967
   0.22263147  0.83376026  0.79436263
   0.11087845  0.91637556  0.20552860
   0.22233443  0.83351365  0.70555494
   0.11088246  0.66638181  0.29448981
   0.77754273  0.91636773  0.20553090
   0.44421199  0.16637238  0.29448877
   0.55612134  0.08394680  0.79447472
   0.44420991  0.16636759  0.20553034
   0.55271840  0.08287330  0.70492197
   0.44421182  0.41637282  0.29448880
   0.55579541  0.33363738  0.79445306
   0.44421059  0.41636806  0.20553018
   0.55592469  0.33378875  0.70552594
   0.22389659  0.33514324  0.70512683
   0.11087968  0.41637766  0.20552840
   0.44421140  0.66637229  0.29448877
   0.55578893  0.58367823  0.79445802
   0.44420877  0.66636631  0.20553003
   0.55572732  0.58345507  0.70554568
   0.22202003  0.33301160  0.79449269
   0.11088256  0.41638206  0.29448976
   0.55585371  0.83338932  0.79438148
   0.89029601  0.83225830  0.70498080
Direct configuration=     9
   0.10028192  0.01380913  0.93682146
   0.07338123  0.08233559  0.96542286
   0.18898675  0.09400220  0.90621094
   0.22095480  0.21290001  0.91630054
   0.15048163  0.20594559  0.95303354
   0.72337503  0.99177200  0.91817020
   0.86402652  0.17524982  0.88534835
   0.77495525  0.11836158  0.91971538
   0.87226940  0.08175290  0.86552857
   0.77792600  0.96653996  0.88278513
   0.97301759  0.09354250  0.91573724
   0.15056455  0.28029156  0.96819380
   0.75463077  0.16572487  0.94269920
   0.94076111  0.09693899  0.83935883
   0.92119203  0.26874401  0.87662403
   0.65535609  0.92498731  0.93978836
   0.00748433  0.04706968  0.99207746
   0.05536920  0.91691746  0.93755926
   0.22761022  0.06985465  0.87990555
   0.28649587  0.29392690  0.89884421
   0.76136387  0.88160771  0.87212402
   0.55600939  0.08391658  0.25000174
   0.55601144  0.33391816  0.25000201
   0.44422252  0.41629343  0.75005947
   0.55601080  0.58391775  0.25000180
   0.44327792  0.66581935  0.75000029
   0.55600816  0.83391606  0.25000158
   0.44438476  0.91621582  0.75005263
   0.88934950  0.33392587  0.25000168
   0.77288683  0.16916131  0.74779823
   0.77770319  0.41653206  0.75004358
   0.88934901  0.58392460  0.25000174
   0.77733006  0.66582524  0.75003657