  93  93   0   0
  0.3967126E+02  0.9570947E-09  0.1276126E-08  0.3488026E-08  0.5000000E-15
  1.000000000000000E-004
  CAR 
 basalPlane                              
      2.32626839    -19.30290214  301      0.01061103      1.00000000
    -19.303  0.0000E+00  0.0000E+00
    -19.231  0.0000E+00  0.0000E+00
    -19.159  0.0000E+00  0.0000E+00
    -19.087  0.0000E+00  0.0000E+00
    -19.015  0.0000E+00  0.0000E+00
    -18.942  0.0000E+00  0.0000E+00
    -18.870  0.1386E-17  0.9992E-19
    -18.798  0.3428E-14  0.2472E-15
    -18.726  0.2993E-11  0.2160E-12
    -18.654  0.9467E-09  0.6847E-10
    -18.582  0.1093E-06  0.7945E-08
    -18.510  0.4645E-05  0.3429E-06
    -18.438  0.7367E-04  0.5654E-05
    -18.366  0.4417E-03  0.3750E-04
    -18.294  0.1013E-02  0.1105E-03
    -18.221  0.8952E-03  0.1751E-03
    -18.149  0.3078E-03  0.1973E-03
    -18.077  0.9930E-04  0.2044E-03
    -18.005  0.3931E-03  0.2328E-03
    -17.933  0.9777E-03  0.3033E-03
    -17.861  0.9411E-03  0.3711E-03
    -17.789  0.3488E-03  0.3962E-03
    -17.717  0.4936E-04  0.3998E-03
    -17.645  0.2635E-05  0.4000E-03
    -17.573  0.5234E-07  0.4000E-03
    -17.500  0.3824E-09  0.4000E-03
    -17.428  0.1018E-11  0.4000E-03
    -17.356  0.9803E-15  0.4000E-03
    -17.284  0.3080E-18  0.4000E-03
    -17.212  0.0000E+00  0.4000E-03
    -17.140  0.0000E+00  0.4000E-03
    -17.068  0.0000E+00  0.4000E-03
    -16.996  0.0000E+00  0.4000E-03
    -16.924  0.0000E+00  0.4000E-03
    -16.852  0.0000E+00  0.4000E-03
    -16.779  0.0000E+00  0.4000E-03
    -16.707  0.0000E+00  0.4000E-03
    -16.635  0.0000E+00  0.4000E-03
    -16.563  0.0000E+00  0.4000E-03
    -16.491  0.0000E+00  0.4000E-03
    -16.419  0.0000E+00  0.4000E-03
    -16.347  0.4620E-17  0.4000E-03
    -16.275  0.1018E-13  0.4000E-03
    -16.203  0.8313E-11  0.4000E-03
    -16.131  0.2468E-08  0.4000E-03
    -16.059  0.2685E-06  0.4000E-03
    -15.986  0.1081E-04  0.4008E-03
    -15.914  0.1629E-03  0.4125E-03
    -15.842  0.9325E-03  0.4798E-03
    -15.770  0.2051E-02  0.6276E-03
    -15.698  0.1743E-02  0.7533E-03
    -15.626  0.5723E-03  0.7946E-03
    -15.554  0.7191E-04  0.7997E-03
    -15.482  0.3415E-05  0.8000E-03
    -15.410  0.6052E-07  0.8000E-03
    -15.338  0.1162E-07  0.8000E-03
    -15.265  0.1039E-05  0.8001E-03
    -15.193  0.3570E-04  0.8026E-03
    -15.121  0.4602E-03  0.8358E-03
    -15.049  0.2257E-02  0.9986E-03
    -14.977  0.4261E-02  0.1306E-02
    -14.905  0.3147E-02  0.1533E-02
    -14.833  0.1351E-02  0.1630E-02
    -14.761  0.2406E-02  0.1803E-02
    -14.689  0.4557E-02  0.2132E-02
    -14.617  0.5085E-02  0.2499E-02
    -14.544  0.6384E-02  0.2959E-02
    -14.472  0.6006E-02  0.3392E-02
    -14.400  0.2476E-02  0.3570E-02
    -14.328  0.5923E-03  0.3613E-02
    -14.256  0.1434E-02  0.3717E-02
    -14.184  0.4239E-02  0.4022E-02
    -14.112  0.7404E-02  0.4556E-02
    -14.040  0.1204E-01  0.5424E-02
    -13.968  0.1432E-01  0.6456E-02
    -13.896  0.1007E-01  0.7183E-02
    -13.824  0.8840E-02  0.7820E-02
    -13.751  0.1264E-01  0.8731E-02
    -13.679  0.1329E-01  0.9689E-02
    -13.607  0.9332E-02  0.1036E-01
    -13.535  0.4616E-02  0.1069E-01
    -13.463  0.1294E-02  0.1079E-01
    -13.391  0.1595E-03  0.1080E-01
    -13.319  0.7714E-05  0.1080E-01
    -13.247  0.1404E-06  0.1080E-01
    -13.175  0.9435E-09  0.1080E-01
    -13.103  0.2315E-11  0.1080E-01
    -13.030  0.2061E-14  0.1080E-01
    -12.958  0.0000E+00  0.1080E-01
    -12.886  0.0000E+00  0.1080E-01
    -12.814  0.0000E+00  0.1080E-01
    -12.742  0.0000E+00  0.1080E-01
    -12.670  0.0000E+00  0.1080E-01
    -12.598  0.0000E+00  0.1080E-01
    -12.526  0.0000E+00  0.1080E-01
    -12.454  0.0000E+00  0.1080E-01
    -12.382  0.0000E+00  0.1080E-01
    -12.309  0.0000E+00  0.1080E-01
    -12.237  0.0000E+00  0.1080E-01
    -12.165  0.0000E+00  0.1080E-01
    -12.093  0.0000E+00  0.1080E-01
    -12.021  0.0000E+00  0.1080E-01
    -11.949  0.0000E+00  0.1080E-01
    -11.877  0.0000E+00  0.1080E-01
    -11.805  0.0000E+00  0.1080E-01
    -11.733  0.0000E+00  0.1080E-01
    -11.661  0.0000E+00  0.1080E-01
    -11.588  0.0000E+00  0.1080E-01
    -11.516  0.0000E+00  0.1080E-01
    -11.444  0.0000E+00  0.1080E-01
    -11.372  0.0000E+00  0.1080E-01
    -11.300  0.0000E+00  0.1080E-01
    -11.228  0.0000E+00  0.1080E-01
    -11.156  0.0000E+00  0.1080E-01
    -11.084  0.0000E+00  0.1080E-01
    -11.012  0.0000E+00  0.1080E-01
    -10.940  0.0000E+00  0.1080E-01
    -10.868  0.0000E+00  0.1080E-01
    -10.795  0.0000E+00  0.1080E-01
    -10.723  0.0000E+00  0.1080E-01
    -10.651  0.0000E+00  0.1080E-01
    -10.579  0.0000E+00  0.1080E-01
    -10.507  0.0000E+00  0.1080E-01
    -10.435  0.0000E+00  0.1080E-01
    -10.363  0.0000E+00  0.1080E-01
    -10.291  0.0000E+00  0.1080E-01
    -10.219  0.1540E-18  0.1080E-01
    -10.147  0.3308E-15  0.1080E-01
    -10.074  0.3994E-12  0.1080E-01
    -10.002  0.1749E-09  0.1080E-01
     -9.930  0.2808E-07  0.1080E-01
     -9.858  0.1679E-05  0.1080E-01
     -9.786  0.3831E-04  0.1080E-01
     -9.714  0.3454E-03  0.1083E-01
     -9.642  0.1290E-02  0.1092E-01
     -9.570  0.2188E-02  0.1108E-01
     -9.498  0.2339E-02  0.1125E-01
     -9.426  0.2668E-02  0.1144E-01
     -9.353  0.2571E-02  0.1162E-01
     -9.281  0.1654E-02  0.1174E-01
     -9.209  0.6914E-03  0.1179E-01
     -9.137  0.4493E-03  0.1183E-01
     -9.065  0.9298E-03  0.1189E-01
     -8.993  0.9950E-03  0.1197E-01
     -8.921  0.4140E-03  0.1199E-01
     -8.849  0.6588E-04  0.1200E-01
     -8.777  0.3961E-05  0.1200E-01
     -8.705  0.8877E-07  0.1200E-01
     -8.633  0.7326E-09  0.1200E-01
     -8.560  0.2205E-11  0.1200E-01
     -8.488  0.2403E-14  0.1200E-01
     -8.416  0.9239E-18  0.1200E-01
     -8.344  0.0000E+00  0.1200E-01
     -8.272  0.0000E+00  0.1200E-01
     -8.200  0.0000E+00  0.1200E-01
     -8.128  0.0000E+00  0.1200E-01
     -8.056  0.0000E+00  0.1200E-01
     -7.984  0.4558E-16  0.1200E-01
     -7.912  0.7690E-13  0.1200E-01
     -7.839  0.4698E-10  0.1200E-01
     -7.767  0.1046E-07  0.1200E-01
     -7.695  0.8548E-06  0.1200E-01
     -7.623  0.2595E-04  0.1200E-01
     -7.551  0.2968E-03  0.1202E-01
     -7.479  0.1309E-02  0.1212E-01
     -7.407  0.2415E-02  0.1229E-01
     -7.335  0.2593E-02  0.1248E-01
     -7.263  0.2489E-02  0.1266E-01
     -7.191  0.1564E-02  0.1277E-01
     -7.118  0.1001E-02  0.1284E-01
     -7.046  0.3605E-02  0.1310E-01
     -6.974  0.9522E-02  0.1379E-01
     -6.902  0.1175E-01  0.1464E-01
     -6.830  0.7590E-02  0.1518E-01
     -6.758  0.7285E-02  0.1571E-01
     -6.686  0.1237E-01  0.1660E-01
     -6.614  0.1300E-01  0.1754E-01
     -6.542  0.9119E-02  0.1820E-01
     -6.470  0.5435E-02  0.1859E-01
     -6.397  0.2726E-02  0.1878E-01
     -6.325  0.1535E-02  0.1890E-01
     -6.253  0.1058E-02  0.1897E-01
     -6.181  0.7175E-03  0.1902E-01
     -6.109  0.1437E-02  0.1913E-01
     -6.037  0.2274E-02  0.1929E-01
     -5.965  0.2475E-02  0.1947E-01
     -5.893  0.4825E-02  0.1982E-01
     -5.821  0.7570E-02  0.2036E-01
     -5.749  0.6336E-02  0.2082E-01
     -5.677  0.5878E-02  0.2124E-01
     -5.604  0.1382E-01  0.2224E-01
     -5.532  0.2371E-01  0.2395E-01
     -5.460  0.1988E-01  0.2538E-01
     -5.388  0.9460E-02  0.2606E-01
     -5.316  0.5720E-02  0.2648E-01
     -5.244  0.6389E-02  0.2694E-01
     -5.172  0.5586E-02  0.2734E-01
     -5.100  0.2859E-02  0.2755E-01
     -5.028  0.2066E-02  0.2769E-01
     -4.956  0.5962E-02  0.2812E-01
     -4.883  0.1070E-01  0.2890E-01
     -4.811  0.9160E-02  0.2956E-01
     -4.739  0.7159E-02  0.3007E-01
     -4.667  0.8129E-02  0.3066E-01
     -4.595  0.8204E-02  0.3125E-01
     -4.523  0.6492E-02  0.3172E-01
     -4.451  0.3677E-02  0.3198E-01
     -4.379  0.3244E-02  0.3222E-01
     -4.307  0.5431E-02  0.3261E-01
     -4.235  0.6504E-02  0.3308E-01
     -4.162  0.6033E-02  0.3351E-01
     -4.090  0.5452E-02  0.3391E-01
     -4.018  0.4505E-02  0.3423E-01
     -3.946  0.1977E-02  0.3437E-01
     -3.874  0.3670E-03  0.3440E-01
     -3.802  0.2547E-03  0.3442E-01
     -3.730  0.1550E-02  0.3453E-01
     -3.658  0.4365E-02  0.3484E-01
     -3.586  0.7052E-02  0.3535E-01
     -3.514  0.1092E-01  0.3614E-01
     -3.442  0.1465E-01  0.3720E-01
     -3.369  0.1358E-01  0.3817E-01
     -3.297  0.1047E-01  0.3893E-01
     -3.225  0.8443E-02  0.3954E-01
     -3.153  0.7074E-02  0.4005E-01
     -3.081  0.8444E-02  0.4066E-01
     -3.009  0.1103E-01  0.4145E-01
     -2.937  0.9470E-02  0.4213E-01
     -2.865  0.5055E-02  0.4250E-01
     -2.793  0.3455E-02  0.4275E-01
     -2.721  0.5015E-02  0.4311E-01
     -2.648  0.7532E-02  0.4365E-01
     -2.576  0.7866E-02  0.4422E-01
     -2.504  0.6181E-02  0.4467E-01
     -2.432  0.5386E-02  0.4505E-01
     -2.360  0.7140E-02  0.4557E-01
     -2.288  0.7458E-02  0.4611E-01
     -2.216  0.6476E-02  0.4657E-01
     -2.144  0.5410E-02  0.4696E-01
     -2.072  0.2722E-02  0.4716E-01
     -2.000  0.1186E-02  0.4725E-01
     -1.927  0.2687E-02  0.4744E-01
     -1.855  0.4349E-02  0.4775E-01
     -1.783  0.3035E-02  0.4797E-01
     -1.711  0.1971E-02  0.4811E-01
     -1.639  0.2222E-02  0.4827E-01
     -1.567  0.1381E-02  0.4837E-01
     -1.495  0.3382E-03  0.4840E-01
     -1.423  0.3155E-04  0.4840E-01
     -1.351  0.1105E-05  0.4840E-01
     -1.279  0.1433E-07  0.4840E-01
     -1.206  0.6816E-10  0.4840E-01
     -1.134  0.1178E-12  0.4840E-01
     -1.062  0.7361E-16  0.4840E-01
     -0.990  0.0000E+00  0.4840E-01
     -0.918  0.0000E+00  0.4840E-01
     -0.846  0.1540E-18  0.4840E-01
     -0.774  0.3708E-15  0.4840E-01
     -0.702  0.4393E-12  0.4840E-01
     -0.630  0.1882E-09  0.4840E-01
     -0.558  0.2933E-07  0.4840E-01
     -0.486  0.1679E-05  0.4840E-01
     -0.413  0.3572E-04  0.4840E-01
     -0.341  0.2860E-03  0.4842E-01
     -0.269  0.8738E-03  0.4849E-01
     -0.197  0.1037E-02  0.4856E-01
     -0.125  0.6124E-03  0.4861E-01
     -0.053  0.9246E-03  0.4867E-01
      0.019  0.2077E-02  0.4882E-01
      0.091  0.2982E-02  0.4904E-01
      0.163  0.4241E-02  0.4934E-01
      0.235  0.4518E-02  0.4967E-01
      0.308  0.3824E-02  0.4994E-01
      0.380  0.6183E-02  0.5039E-01
      0.452  0.1183E-01  0.5124E-01
      0.524  0.1685E-01  0.5246E-01
      0.596  0.1519E-01  0.5355E-01
      0.668  0.1342E-01  0.5452E-01
      0.740  0.1117E-01  0.5532E-01
      0.812  0.5309E-02  0.5571E-01
      0.884  0.1675E-02  0.5583E-01
      0.956  0.2981E-02  0.5604E-01
      1.029  0.7762E-02  0.5660E-01
      1.101  0.1121E-01  0.5741E-01
      1.173  0.1122E-01  0.5822E-01
      1.245  0.1036E-01  0.5897E-01
      1.317  0.8538E-02  0.5958E-01
      1.389  0.4468E-02  0.5991E-01
      1.461  0.1171E-02  0.5999E-01
      1.533  0.1388E-03  0.6000E-01
      1.605  0.6985E-05  0.6000E-01
      1.677  0.1420E-06  0.6000E-01
      1.749  0.1120E-08  0.6000E-01
      1.822  0.3336E-11  0.6000E-01
      1.894  0.3675E-14  0.6000E-01
      1.966  0.1232E-17  0.6000E-01
      2.038  0.0000E+00  0.6000E-01
      2.110  0.0000E+00  0.6000E-01
      2.182  0.0000E+00  0.6000E-01
      2.254  0.0000E+00  0.6000E-01
      2.326  0.0000E+00  0.6000E-01
