 running on   36 total cores
 distrk:  each k-point on   36 cores,    1 groups
 distr:  one band on    3 cores,   12 groups
 using from now: INCAR     
 vasp.5.4.1 05Feb16 (build Apr 21 2017 13:36:42) gamma-only                     
  
 POSCAR found :  5 types and      93 ions
 scaLAPACK will be used
 LDA part: xc-table for Pade appr. of Perdew
 POSCAR found :  5 types and      93 ions
 POSCAR, INCAR and KPOINTS ok, starting setup
 FFT: planning ...
 WAVECAR not read
 entering main loop
       N       E                     dE             d eps       ncg     rms          rms(c)
DAV:   1     0.441519941398E+04    0.44152E+04   -0.18001E+05   600   0.112E+03
DAV:   2    -0.616769018926E+01   -0.44214E+04   -0.42553E+04   996   0.266E+02
DAV:   3    -0.680067471597E+03   -0.67390E+03   -0.66490E+03   744   0.113E+02
DAV:   4    -0.713143902109E+03   -0.33076E+02   -0.32856E+02   852   0.319E+01
DAV:   5    -0.714441116803E+03   -0.12972E+01   -0.12884E+01   876   0.565E+00    0.123E+02
DAV:   6    -0.698496795394E+03    0.15944E+02   -0.58531E+02   852   0.322E+01    0.791E+01
DAV:   7    -0.709108553113E+03   -0.10612E+02   -0.82379E+02   924   0.780E+01    0.444E+01
DAV:   8    -0.675958564406E+03    0.33150E+02   -0.13573E+02   780   0.150E+01    0.370E+01
DAV:   9    -0.677924868866E+03   -0.19663E+01   -0.17518E+02   924   0.113E+01    0.394E+01
DAV:  10    -0.664903898924E+03    0.13021E+02   -0.25529E+02   864   0.105E+01    0.241E+01
DAV:  11    -0.659030225758E+03    0.58737E+01   -0.30910E+01   948   0.110E+01    0.152E+01
DAV:  12    -0.659461796144E+03   -0.43157E+00   -0.13167E+01   924   0.246E+00    0.176E+01
DAV:  13    -0.658917576234E+03    0.54422E+00   -0.26464E-01   912   0.654E-01    0.170E+01
DAV:  14    -0.659530747909E+03   -0.61317E+00   -0.36270E+00   864   0.302E+00    0.188E+01
DAV:  15    -0.658925428762E+03    0.60532E+00   -0.36582E+00   792   0.232E+00    0.104E+01
DAV:  16    -0.660144619862E+03   -0.12192E+01   -0.64538E+00   936   0.201E+00    0.202E+01
DAV:  17    -0.657700245238E+03    0.24444E+01   -0.28808E+01   924   0.540E+00    0.799E+00
DAV:  18    -0.657847810167E+03   -0.14756E+00   -0.43164E+00   948   0.179E+00    0.629E+00
DAV:  19    -0.658262230539E+03   -0.41442E+00   -0.38784E+00   912   0.158E+00    0.712E+00
DAV:  20    -0.658392354925E+03   -0.13012E+00   -0.29011E-01   900   0.736E-01    0.745E+00
DAV:  21    -0.658289473614E+03    0.10288E+00   -0.92246E-02   900   0.414E-01    0.681E+00
DAV:  22    -0.657963888372E+03    0.32559E+00   -0.66628E-01   876   0.101E+00    0.434E+00
DAV:  23    -0.657860433122E+03    0.10346E+00   -0.24155E-01   924   0.539E-01    0.372E+00
DAV:  24    -0.657812920123E+03    0.47513E-01   -0.55055E-02   924   0.226E-01    0.301E+00
DAV:  25    -0.657816514007E+03   -0.35939E-02   -0.23454E-02   816   0.770E-02    0.332E+00
DAV:  26    -0.657806703700E+03    0.98103E-02   -0.12919E-02   696   0.518E-02    0.301E+00
DAV:  27    -0.657804255625E+03    0.24481E-02   -0.97877E-03   684   0.534E-02    0.316E+00
DAV:  28    -0.657793774918E+03    0.10481E-01   -0.10541E-02   732   0.640E-02    0.291E+00
DAV:  29    -0.657800140129E+03   -0.63652E-02   -0.97481E-03   624   0.448E-02    0.308E+00
DAV:  30    -0.657799697074E+03    0.44306E-03   -0.81296E-03   528   0.304E-02    0.302E+00
DAV:  31    -0.657787863256E+03    0.11834E-01   -0.22466E-02   876   0.166E-01    0.294E+00
DAV:  32    -0.657786337743E+03    0.15255E-02   -0.12533E-02   816   0.518E-02    0.284E+00
DAV:  33    -0.657786810837E+03   -0.47309E-03   -0.89726E-02   864   0.240E-01    0.305E+00
DAV:  34    -0.657776647898E+03    0.10163E-01   -0.29114E-02   888   0.187E-01    0.266E+00
DAV:  35    -0.657781971168E+03   -0.53233E-02   -0.65149E-02   912   0.220E-01    0.318E+00
DAV:  36    -0.657786309176E+03   -0.43380E-02   -0.10984E-02   888   0.109E-01    0.315E+00
DAV:  37    -0.657822865379E+03   -0.36556E-01   -0.31767E-02   840   0.181E-01    0.429E+00
DAV:  38    -0.657859624731E+03   -0.36759E-01   -0.24705E-02   900   0.203E-01    0.495E+00
DAV:  39    -0.657891676362E+03   -0.32052E-01   -0.14686E-02   912   0.143E-01    0.545E+00
DAV:  40    -0.657884034005E+03    0.76424E-02   -0.23100E-03   732   0.389E-02    0.529E+00
DAV:  41    -0.657897317229E+03   -0.13283E-01   -0.92178E-03   792   0.792E-02    0.544E+00
DAV:  42    -0.657966694538E+03   -0.69377E-01   -0.47682E-02   852   0.169E-01    0.618E+00
DAV:  43    -0.657953110028E+03    0.13585E-01   -0.94224E-03   852   0.904E-02    0.630E+00
DAV:  44    -0.657949199428E+03    0.39106E-02   -0.13689E-03   672   0.345E-02    0.629E+00
DAV:  45    -0.657948540535E+03    0.65889E-03   -0.28369E-04   468   0.149E-02    0.626E+00
DAV:  46    -0.657952197620E+03   -0.36571E-02   -0.27140E-04   504   0.172E-02    0.628E+00
DAV:  47    -0.657942298452E+03    0.98992E-02   -0.18258E-03   564   0.225E-02    0.628E+00
DAV:  48    -0.657939999518E+03    0.22989E-02   -0.17077E-04   420   0.128E-02    0.630E+00
DAV:  49    -0.657941622896E+03   -0.16234E-02   -0.23170E-05   372   0.973E-03    0.630E+00
DAV:  50    -0.657945493011E+03   -0.38701E-02   -0.16776E-04   396   0.110E-02    0.631E+00
DAV:  51    -0.657781085807E+03    0.16441E+00   -0.20204E-01   804   0.292E-01    0.638E+00
DAV:  52    -0.657783384207E+03   -0.22984E-02   -0.17417E-01   864   0.269E-01    0.593E+00
DAV:  53    -0.657793012687E+03   -0.96285E-02   -0.40697E-02   852   0.200E-01    0.521E+00
DAV:  54    -0.657778725436E+03    0.14287E-01   -0.11098E-02   792   0.101E-01    0.532E+00
DAV:  55    -0.657792913506E+03   -0.14188E-01   -0.38498E-02   768   0.717E-02    0.547E+00
DAV:  56    -0.657755517746E+03    0.37396E-01   -0.50717E-02   876   0.945E-02    0.495E+00
DAV:  57    -0.657770615415E+03   -0.15098E-01   -0.14982E-01   804   0.155E-01    0.488E+00
DAV:  58    -0.657722380468E+03    0.48235E-01   -0.58124E-02   792   0.212E-01    0.310E+00
DAV:  59    -0.657732920891E+03   -0.10540E-01   -0.88664E-02   888   0.153E-01    0.335E+00
DAV:  60    -0.657718276871E+03    0.14644E-01   -0.31546E-02   804   0.801E-02    0.248E+00
DAV:  61    -0.657684309602E+03    0.33967E-01   -0.10347E-01   780   0.262E-01    0.162E+00
DAV:  62    -0.657692914481E+03   -0.86049E-02   -0.27926E-02   888   0.127E-01    0.200E+00
DAV:  63    -0.657690821676E+03    0.20928E-02   -0.26678E-03   792   0.782E-02    0.180E+00
DAV:  64    -0.657689274936E+03    0.15467E-02   -0.15191E-03   768   0.798E-02    0.163E+00
DAV:  65    -0.657700710244E+03   -0.11435E-01   -0.42633E-02   744   0.127E-01    0.240E+00
DAV:  66    -0.657697404881E+03    0.33054E-02   -0.35716E-02   768   0.850E-02    0.184E+00
DAV:  67    -0.657693541943E+03    0.38629E-02   -0.20823E-02   732   0.795E-02    0.200E+00
DAV:  68    -0.657694931704E+03   -0.13898E-02   -0.16214E-02   672   0.374E-02    0.189E+00
DAV:  69    -0.657694863074E+03    0.68629E-04   -0.16498E-02   588   0.425E-02    0.201E+00
DAV:  70    -0.657693404574E+03    0.14585E-02   -0.40762E-03   564   0.385E-02    0.186E+00
DAV:  71    -0.657728683054E+03   -0.35278E-01   -0.30604E-02   804   0.106E-01    0.344E+00
DAV:  72    -0.657759808324E+03   -0.31125E-01   -0.56047E-03   840   0.970E-02    0.461E+00
DAV:  73    -0.657755435840E+03    0.43725E-02   -0.17036E-03   708   0.499E-02    0.411E+00
DAV:  74    -0.657803990509E+03   -0.48555E-01   -0.10039E-01   684   0.536E-02    0.619E+00
DAV:  75    -0.657803465420E+03    0.52509E-03   -0.12771E-03   732   0.519E-02    0.568E+00
DAV:  76    -0.657756536066E+03    0.46929E-01   -0.14080E-01   840   0.187E-01    0.380E+00
DAV:  77    -0.657760103648E+03   -0.35676E-02   -0.19095E-02   864   0.130E-01    0.426E+00
DAV:  78    -0.657763279829E+03   -0.31762E-02   -0.24889E-02   780   0.864E-02    0.432E+00
DAV:  79    -0.657788661351E+03   -0.25382E-01   -0.80327E-03   864   0.881E-02    0.549E+00
DAV:  80    -0.657869073240E+03   -0.80412E-01   -0.88893E-02   840   0.106E-01    0.788E+00
DAV:  81    -0.657782869589E+03    0.86204E-01   -0.28697E-01   780   0.763E-02    0.455E+00
DAV:  82    -0.657772639459E+03    0.10230E-01   -0.34778E-02   816   0.196E-01    0.527E+00
DAV:  83    -0.657774166733E+03   -0.15273E-02   -0.60837E-03   756   0.662E-02    0.501E+00
DAV:  84    -0.657785271832E+03   -0.11105E-01   -0.28536E-03   480   0.335E-02    0.567E+00
DAV:  85    -0.657768928206E+03    0.16344E-01   -0.12892E-03   528   0.417E-02    0.476E+00
DAV:  86    -0.657716094540E+03    0.52834E-01   -0.84613E-02   816   0.125E-01    0.204E+00
DAV:  87    -0.657728065103E+03   -0.11971E-01   -0.56416E-03   828   0.811E-02    0.332E+00
DAV:  88    -0.657720610027E+03    0.74551E-02   -0.34239E-03   552   0.386E-02    0.253E+00
DAV:  89    -0.657732868427E+03   -0.12258E-01   -0.83774E-04   480   0.305E-02    0.350E+00
DAV:  90    -0.657723771092E+03    0.90973E-02   -0.64467E-04   492   0.311E-02    0.268E+00
DAV:  91    -0.657731925220E+03   -0.81541E-02   -0.53731E-04   492   0.322E-02    0.340E+00
DAV:  92    -0.657726569742E+03    0.53555E-02   -0.45977E-04   480   0.264E-02    0.291E+00
DAV:  93    -0.657731785709E+03   -0.52160E-02   -0.58956E-04   588   0.291E-02    0.340E+00
DAV:  94    -0.657730116827E+03    0.16689E-02   -0.28862E-04   480   0.236E-02    0.319E+00
DAV:  95    -0.657728301667E+03    0.18152E-02   -0.36426E-04   480   0.282E-02    0.321E+00
DAV:  96    -0.657721493581E+03    0.68081E-02   -0.27389E-04   552   0.182E-02    0.279E+00
DAV:  97    -0.657720910126E+03    0.58346E-03   -0.90475E-05   420   0.165E-02    0.286E+00
DAV:  98    -0.657721717884E+03   -0.80776E-03   -0.38689E-05   432   0.105E-02    0.286E+00
DAV:  99    -0.657721810487E+03   -0.92603E-04   -0.10069E-05   372   0.632E-03
   1 F= -.67288023E+03 E0= -.67279297E+03  d E =-.672880E+03
 curvature:   0.00 expect dE= 0.000E+00 dE for cont linesearch  0.000E+00
 trial: gam= 0.00000 g(F)=  0.321E+00 g(S)=  0.000E+00 ort = 0.000E+00 (trialstep = 0.100E+01)
 search vector abs. value=  0.321E+00
 bond charge predicted
       N       E                     dE             d eps       ncg     rms          rms(c)
DAV:   1    -0.657803276009E+03   -0.81558E-01   -0.23345E+01   600   0.728E+00    0.764E+00
DAV:   2    -0.671229902167E+03   -0.13427E+02   -0.16968E+02   924   0.913E+00    0.305E+01
DAV:   3    -0.658094920897E+03    0.13135E+02   -0.17820E+01   924   0.128E+01    0.587E+00
DAV:   4    -0.658024763103E+03    0.70158E-01   -0.52920E+00   900   0.211E+00    0.467E+00
DAV:   5    -0.657970366918E+03    0.54396E-01   -0.31342E+00   948   0.957E-01    0.310E+00
DAV:   6    -0.657884352160E+03    0.86015E-01   -0.11926E+00   876   0.504E-01    0.248E+00
DAV:   7    -0.657849700202E+03    0.34652E-01   -0.94451E-01   912   0.425E-01    0.201E+00
DAV:   8    -0.657812126511E+03    0.37574E-01   -0.38340E-01   864   0.334E-01    0.134E+00
DAV:   9    -0.657799037991E+03    0.13089E-01   -0.23154E-01   840   0.183E-01    0.939E-01
DAV:  10    -0.657790342985E+03    0.86950E-02   -0.11543E-01   900   0.129E-01    0.858E-01
DAV:  11    -0.657785861809E+03    0.44812E-02   -0.69942E-02   864   0.180E-01    0.783E-01
DAV:  12    -0.657776272945E+03    0.95889E-02   -0.29577E-02   840   0.141E-01    0.525E-01
DAV:  13    -0.657773107361E+03    0.31656E-02   -0.13484E-02   876   0.657E-02    0.169E-01
DAV:  14    -0.657770491798E+03    0.26156E-02   -0.52998E-03   756   0.443E-02    0.333E-01
DAV:  15    -0.657768050650E+03    0.24411E-02   -0.47031E-03   720   0.465E-02    0.509E-01
DAV:  16    -0.657768050060E+03    0.59036E-06   -0.22434E-03   732   0.502E-02    0.195E-01
DAV:  17    -0.657767179289E+03    0.87077E-03   -0.11096E-03   468   0.220E-02    0.278E-01
DAV:  18    -0.657767028380E+03    0.15091E-03   -0.15981E-03   456   0.222E-02    0.163E-01
DAV:  19    -0.657767000209E+03    0.28170E-04   -0.14004E-03   564   0.208E-02    0.111E-01
DAV:  20    -0.657767018299E+03   -0.18090E-04   -0.10638E-04   384   0.140E-02
   2 F= -.67294778E+03 E0= -.67288620E+03  d E =-.675545E-01
 trial-energy change:   -0.067554  1 .order   -0.124969   -0.321427    0.071488
 step:   0.6094(harm=  0.8181)  dis= 0.01259  next Energy=  -672.965169 (dE=-0.849E-01)
 bond charge predicted
       N       E                     dE             d eps       ncg     rms          rms(c)
DAV:   1    -0.657766358467E+03    0.64174E-03   -0.35315E+00   624   0.286E+00    0.124E+00
DAV:   2    -0.657881255792E+03   -0.11490E+00   -0.51139E-01   852   0.977E-01    0.659E+00
DAV:   3    -0.657824732771E+03    0.56523E-01   -0.71982E-01   912   0.612E-01    0.148E+00
DAV:   4    -0.657805156599E+03    0.19576E-01   -0.24490E-01   948   0.182E-01    0.171E+00
DAV:   5    -0.657796353924E+03    0.88027E-02   -0.22883E-01   864   0.124E-01    0.112E+00
DAV:   6    -0.657787420775E+03    0.89331E-02   -0.49093E-02   888   0.157E-01    0.891E-01
DAV:   7    -0.657782235579E+03    0.51852E-02   -0.40572E-02   864   0.166E-01    0.602E-01
DAV:   8    -0.657780405099E+03    0.18305E-02   -0.19906E-02   828   0.806E-02    0.408E-01
DAV:   9    -0.657779009808E+03    0.13953E-02   -0.15898E-02   828   0.656E-02    0.350E-01
DAV:  10    -0.657778401908E+03    0.60790E-03   -0.78654E-03   804   0.580E-02    0.225E-01
DAV:  11    -0.657778046915E+03    0.35499E-03   -0.43500E-03   504   0.326E-02    0.215E-01
DAV:  12    -0.657777853796E+03    0.19312E-03   -0.28063E-03   408   0.245E-02    0.136E-01
DAV:  13    -0.657777726731E+03    0.12707E-03   -0.13711E-03   396   0.192E-02    0.121E-01
DAV:  14    -0.657777629815E+03    0.96915E-04   -0.91746E-04   396   0.148E-02
   3 F= -.67294931E+03 E0= -.67288834E+03  d E =-.690783E-01
 curvature:   0.13 expect dE= 0.154E-01 dE for cont linesearch  0.159E-02
 ZBRENT: interpolating
 opt :   0.7922  next Energy=  -672.955055 (dE=-0.748E-01)
 bond charge predicted
       N       E                     dE             d eps       ncg     rms          rms(c)
DAV:   1    -0.657776882534E+03    0.84420E-03   -0.77285E-01   600   0.133E+00    0.660E-01
DAV:   2    -0.657799747983E+03   -0.22865E-01   -0.13135E-01   900   0.582E-01    0.118E+00
DAV:   3    -0.657782448844E+03    0.17299E-01   -0.13088E-01   936   0.418E-01    0.824E-01
DAV:   4    -0.657782850541E+03   -0.40170E-03   -0.13775E-02   828   0.101E-01    0.669E-01
DAV:   5    -0.657782324731E+03    0.52581E-03   -0.64263E-03   756   0.612E-02    0.551E-01
DAV:   6    -0.657785675825E+03   -0.33511E-02   -0.17771E-02   840   0.171E-01    0.115E+00
DAV:   7    -0.657780172607E+03    0.55032E-02   -0.83567E-03   864   0.112E-01    0.115E-01
DAV:   8    -0.657779477466E+03    0.69514E-03   -0.22070E-03   660   0.413E-02    0.155E-01
DAV:   9    -0.657779407700E+03    0.69766E-04   -0.15822E-03   372   0.222E-02    0.106E-01
DAV:  10    -0.657779404466E+03    0.32336E-05   -0.10207E-03   396   0.173E-02    0.118E-01
DAV:  11    -0.657779343764E+03    0.60702E-04   -0.64623E-04   384   0.139E-02
   4 F= -.67295522E+03 E0= -.67289256E+03  d E =-.749878E-01
 curvature:  -0.47 expect dE=-0.694E-01 dE for cont linesearch -0.213E-05
 trial: gam= 0.45862 g(F)=  0.149E+00 g(S)=  0.000E+00 ort = 0.121E-02 (trialstep = 0.958E+00)
 search vector abs. value=  0.217E+00
 bond charge predicted
       N       E                     dE             d eps       ncg     rms          rms(c)
DAV:   1    -0.657641100207E+03    0.13830E+00   -0.17748E+01   600   0.570E+00    0.221E+00
DAV:   2    -0.657843829491E+03   -0.20273E+00   -0.16692E+00   876   0.164E+00    0.773E+00
DAV:   3    -0.657784064050E+03    0.59765E-01   -0.22333E+00   924   0.931E-01    0.214E+00
DAV:   4    -0.657729514592E+03    0.54549E-01   -0.42363E-01   936   0.361E-01    0.226E+00
DAV:   5    -0.657710227036E+03    0.19288E-01   -0.43645E-01   924   0.225E-01    0.148E+00
DAV:   6    -0.657740111151E+03   -0.29884E-01   -0.26176E-01   900   0.528E-01    0.442E+00
DAV:   7    -0.657703636082E+03    0.36475E-01   -0.30563E-01   828   0.277E-01    0.978E-01
DAV:   8    -0.657689035675E+03    0.14600E-01   -0.71893E-02   840   0.230E-01    0.853E-01
DAV:   9    -0.657688446099E+03    0.58958E-03   -0.44856E-02   888   0.113E-01    0.663E-01
DAV:  10    -0.657686614144E+03    0.18320E-02   -0.41213E-02   828   0.115E-01    0.539E-01
DAV:  11    -0.657685385725E+03    0.12284E-02   -0.21768E-02   744   0.596E-02    0.265E-01
DAV:  12    -0.657685032682E+03    0.35304E-03   -0.11018E-02   528   0.384E-02    0.271E-01
DAV:  13    -0.657684759042E+03    0.27364E-03   -0.58031E-03   468   0.311E-02    0.113E-01
DAV:  14    -0.657684675017E+03    0.84024E-04   -0.27427E-03   480   0.242E-02    0.139E-01
DAV:  15    -0.657684615212E+03    0.59806E-04   -0.15027E-03   384   0.159E-02    0.615E-02
DAV:  16    -0.657684599321E+03    0.15891E-04   -0.59765E-04   384   0.123E-02
   5 F= -.67287168E+03 E0= -.67280807E+03  d E =0.835315E-01
 trial-energy change:    0.083532  1 .order    0.084089   -0.142977    0.311155
 step:   0.3033(harm=  0.3017)  dis= 0.00747  next Energy=  -672.977855 (dE=-0.226E-01)
 bond charge predicted
       N       E                     dE             d eps       ncg     rms          rms(c)
DAV:   1    -0.657777957024E+03   -0.93342E-01   -0.82927E+00   600   0.392E+00    0.141E+00
DAV:   2    -0.657841329304E+03   -0.63372E-01   -0.53790E-01   864   0.119E+00    0.218E+00
DAV:   3    -0.657827961993E+03    0.13367E-01   -0.59051E-01   900   0.611E-01    0.235E+00
DAV:   4    -0.657832139158E+03   -0.41772E-02   -0.43150E-01   888   0.444E-01    0.152E+00
DAV:   5    -0.657817737851E+03    0.14401E-01   -0.25714E-01   924   0.247E-01    0.152E+00
DAV:   6    -0.657806228500E+03    0.11509E-01   -0.17408E-01   924   0.175E-01    0.555E-01
DAV:   7    -0.657808060095E+03   -0.18316E-02   -0.66269E-02   852   0.121E-01    0.140E+00
DAV:   8    -0.657804906248E+03    0.31538E-02   -0.58855E-02   888   0.199E-01    0.497E-01
DAV:   9    -0.657801384280E+03    0.35220E-02   -0.44347E-03   792   0.844E-02    0.681E-01
DAV:  10    -0.657799699292E+03    0.16850E-02   -0.13124E-03   648   0.488E-02    0.272E-01
DAV:  11    -0.657799538647E+03    0.16064E-03   -0.12879E-03   420   0.313E-02    0.443E-01
DAV:  12    -0.657799100227E+03    0.43842E-03   -0.84952E-04   396   0.260E-02    0.259E-01
DAV:  13    -0.657798924460E+03    0.17577E-03   -0.11521E-03   408   0.241E-02    0.264E-01
DAV:  14    -0.657798794546E+03    0.12991E-03   -0.34474E-04   384   0.160E-02    0.174E-01
DAV:  15    -0.657798708983E+03    0.85563E-04   -0.48842E-04   396   0.164E-02
   6 F= -.67297797E+03 E0= -.67291514E+03  d E =-.227578E-01
 curvature:  -0.22 expect dE=-0.100E-01 dE for cont linesearch -0.787E-06
 trial: gam= 0.29455 g(F)=  0.456E-01 g(S)=  0.000E+00 ort =-0.882E-03 (trialstep = 0.827E+00)
 search vector abs. value=  0.639E-01
 bond charge predicted
       N       E                     dE             d eps       ncg     rms          rms(c)
DAV:   1    -0.657813516538E+03   -0.14722E-01   -0.35871E+00   600   0.261E+00    0.741E-01
DAV:   2    -0.657835253763E+03   -0.21737E-01   -0.13133E-01   912   0.601E-01    0.215E+00
DAV:   3    -0.657832953037E+03    0.23007E-02   -0.91797E-02   900   0.359E-01    0.908E-01
DAV:   4    -0.657825556418E+03    0.73966E-02   -0.16963E-02   900   0.145E-01    0.789E-01
DAV:   5    -0.657823184959E+03    0.23715E-02   -0.57798E-03   792   0.689E-02    0.567E-01
DAV:   6    -0.657823188707E+03   -0.37474E-05   -0.12569E-02   876   0.135E-01    0.751E-01
DAV:   7    -0.657821428262E+03    0.17604E-02   -0.82522E-03   804   0.823E-02    0.316E-01
DAV:   8    -0.657820621803E+03    0.80646E-03   -0.56189E-03   768   0.614E-02    0.277E-01
DAV:   9    -0.657820355026E+03    0.26678E-03   -0.45496E-03   480   0.372E-02    0.164E-01
DAV:  10    -0.657820186207E+03    0.16882E-03   -0.24056E-03   432   0.307E-02    0.149E-01
DAV:  11    -0.657820076982E+03    0.10922E-03   -0.15634E-03   408   0.195E-02    0.728E-02
DAV:  12    -0.657820055944E+03    0.21039E-04   -0.81654E-04   396   0.152E-02
   7 F= -.67300110E+03 E0= -.67293840E+03  d E =-.231273E-01
 trial-energy change:   -0.023127  1 .order   -0.022920   -0.037491   -0.008349
 step:   1.0645(harm=  1.0645)  dis= 0.02428  next Energy=  -673.002090 (dE=-0.241E-01)
 bond charge predicted
       N       E                     dE             d eps       ncg     rms          rms(c)
DAV:   1    -0.657820264798E+03   -0.18782E-03   -0.29619E-01   600   0.748E-01    0.228E-01
DAV:   2    -0.657822343536E+03   -0.20787E-02   -0.16547E-02   924   0.182E-01    0.567E-01
DAV:   3    -0.657822902565E+03   -0.55903E-03   -0.17634E-02   840   0.126E-01    0.454E-01
DAV:   4    -0.657821167589E+03    0.17350E-02   -0.54399E-03   732   0.760E-02    0.218E-01
DAV:   5    -0.657821054536E+03    0.11305E-03   -0.11191E-03   516   0.245E-02    0.177E-01
DAV:   6    -0.657820928147E+03    0.12639E-03   -0.14935E-03   492   0.260E-02    0.127E-01
DAV:   7    -0.657821040778E+03   -0.11263E-03   -0.19460E-03   516   0.307E-02    0.186E-01
DAV:   8    -0.657820849238E+03    0.19154E-03   -0.14717E-03   408   0.272E-02    0.621E-02
DAV:   9    -0.657820840423E+03    0.88152E-05   -0.97711E-04   384   0.144E-02
   8 F= -.67300242E+03 E0= -.67293974E+03  d E =-.244441E-01
 curvature:  -0.75 expect dE=-0.319E-01 dE for cont linesearch -0.502E-05
 trial: gam= 0.89745 g(F)=  0.425E-01 g(S)=  0.000E+00 ort = 0.654E-03 (trialstep = 0.587E+00)
 search vector abs. value=  0.952E-01
 bond charge predicted
       N       E                     dE             d eps       ncg     rms          rms(c)
DAV:   1    -0.657831146242E+03   -0.10297E-01   -0.26740E+00   600   0.213E+00    0.606E-01
DAV:   2    -0.657908719468E+03   -0.77573E-01   -0.21138E-01   912   0.685E-01    0.548E+00
DAV:   3    -0.657862634972E+03    0.46084E-01   -0.16561E-01   912   0.365E-01    0.800E-01
DAV:   4    -0.657845302377E+03    0.17333E-01   -0.49497E-02   924   0.141E-01    0.108E+00
DAV:   5    -0.657840636295E+03    0.46661E-02   -0.41966E-02   840   0.861E-02    0.579E-01
DAV:   6    -0.657838242921E+03    0.23934E-02   -0.61498E-03   804   0.753E-02    0.473E-01
DAV:   7    -0.657838225275E+03    0.17646E-04   -0.21238E-03   756   0.624E-02    0.482E-01
DAV:   8    -0.657837011836E+03    0.12134E-02   -0.19432E-03   780   0.598E-02    0.258E-01
DAV:   9    -0.657836602843E+03    0.40899E-03   -0.12742E-03   396   0.276E-02    0.185E-01
DAV:  10    -0.657836421804E+03    0.18104E-03   -0.73888E-04   396   0.251E-02    0.126E-01
DAV:  11    -0.657836315287E+03    0.10652E-03   -0.60659E-04   372   0.176E-02    0.748E-02
DAV:  12    -0.657836287718E+03    0.27569E-04   -0.32815E-04   384   0.148E-02
   9 F= -.67301652E+03 E0= -.67295401E+03  d E =-.141023E-01
 trial-energy change:   -0.014102  1 .order   -0.014006   -0.025332   -0.002680
 step:   0.6568(harm=  0.6568)  dis= 0.01709  next Energy=  -673.016582 (dE=-0.142E-01)
 bond charge predicted
       N       E                     dE             d eps       ncg     rms          rms(c)
DAV:   1    -0.657836545441E+03   -0.23015E-03   -0.37862E-02   600   0.253E-01    0.885E-02
DAV:   2    -0.657838128562E+03   -0.15831E-02   -0.44614E-03   888   0.998E-02    0.576E-01
DAV:   3    -0.657837021146E+03    0.11074E-02   -0.41644E-03   696   0.688E-02    0.174E-01
DAV:   4    -0.657836772750E+03    0.24840E-03   -0.27996E-04   384   0.207E-02    0.150E-01
DAV:   5    -0.657836664451E+03    0.10830E-03   -0.13892E-04   396   0.162E-02    0.564E-02
DAV:   6    -0.657836640394E+03    0.24057E-04   -0.84476E-05   384   0.116E-02
  10 F= -.67301672E+03 E0= -.67295400E+03  d E =-.143037E-01
 curvature:  -0.72 expect dE=-0.310E-01 dE for cont linesearch -0.478E-05
 trial: gam= 1.00773 g(F)=  0.427E-01 g(S)=  0.000E+00 ort = 0.792E-03 (trialstep = 0.406E+00)
 search vector abs. value=  0.141E+00
 bond charge predicted
       N       E                     dE             d eps       ncg     rms          rms(c)
DAV:   1    -0.657847896010E+03   -0.11232E-01   -0.16105E+00   600   0.166E+00    0.545E-01
DAV:   2    -0.657880968412E+03   -0.33072E-01   -0.10079E-01   912   0.516E-01    0.329E+00
DAV:   3    -0.657863191471E+03    0.17777E-01   -0.73114E-02   936   0.298E-01    0.723E-01
DAV:   4    -0.657857176331E+03    0.60151E-02   -0.62029E-03   852   0.900E-02    0.831E-01
DAV:   5    -0.657854260345E+03    0.29160E-02   -0.35420E-03   792   0.680E-02    0.509E-01
DAV:   6    -0.657852991766E+03    0.12686E-02   -0.59172E-03   828   0.821E-02    0.463E-01
DAV:   7    -0.657852333272E+03    0.65849E-03   -0.23384E-03   648   0.487E-02    0.269E-01
DAV:   8    -0.657851908295E+03    0.42498E-03   -0.26189E-03   564   0.422E-02    0.274E-01
DAV:   9    -0.657851571837E+03    0.33646E-03   -0.22946E-03   396   0.249E-02    0.105E-01
DAV:  10    -0.657851508615E+03    0.63222E-04   -0.12018E-03   408   0.235E-02    0.145E-01
DAV:  11    -0.657851427589E+03    0.81026E-04   -0.83194E-04   348   0.138E-02
  11 F= -.67302952E+03 E0= -.67296726E+03  d E =-.127962E-01
 trial-energy change:   -0.012796  1 .order   -0.012861   -0.017661   -0.008062
 step:   0.7469(harm=  0.7469)  dis= 0.02558  next Energy=  -673.032968 (dE=-0.162E-01)
 bond charge predicted
       N       E                     dE             d eps       ncg     rms          rms(c)
DAV:   1    -0.657853979699E+03   -0.24711E-02   -0.11392E+00   600   0.139E+00    0.455E-01
DAV:   2    -0.657873221150E+03   -0.19241E-01   -0.64879E-02   900   0.423E-01    0.232E+00
DAV:   3    -0.657863114366E+03    0.10107E-01   -0.45361E-02   900   0.252E-01    0.637E-01
DAV:   4    -0.657859227607E+03    0.38868E-02   -0.35345E-03   768   0.657E-02    0.571E-01
DAV:   5    -0.657858048363E+03    0.11792E-02   -0.14356E-03   684   0.463E-02    0.412E-01
DAV:   6    -0.657857922378E+03    0.12598E-03   -0.38975E-03   756   0.734E-02    0.472E-01
DAV:   7    -0.657857203162E+03    0.71922E-03   -0.16489E-03   588   0.401E-02    0.201E-01
DAV:   8    -0.657856888804E+03    0.31436E-03   -0.17134E-03   504   0.365E-02    0.243E-01
DAV:   9    -0.657856636624E+03    0.25218E-03   -0.13324E-03   384   0.214E-02    0.765E-02
DAV:  10    -0.657856591620E+03    0.45004E-04   -0.74121E-04   384   0.182E-02
  12 F= -.67303307E+03 E0= -.67297018E+03  d E =-.163488E-01
 curvature:  -1.21 expect dE=-0.563E-01 dE for cont linesearch -0.134E-07
 trial: gam= 1.08269 g(F)=  0.465E-01 g(S)=  0.000E+00 ort = 0.394E-04 (trialstep = 0.316E+00)
 search vector abs. value=  0.212E+00
 bond charge predicted
       N       E                     dE             d eps       ncg     rms          rms(c)
DAV:   1    -0.657866819818E+03   -0.10183E-01   -0.14378E+00   600   0.156E+00    0.485E-01
DAV:   2    -0.657884149974E+03   -0.17330E-01   -0.71589E-02   900   0.443E-01    0.209E+00
DAV:   3    -0.657877516886E+03    0.66331E-02   -0.50195E-02   900   0.255E-01    0.676E-01
DAV:   4    -0.657873846893E+03    0.36700E-02   -0.38951E-03   828   0.734E-02    0.665E-01
DAV:   5    -0.657871721166E+03    0.21257E-02   -0.19471E-03   720   0.570E-02    0.410E-01
DAV:   6    -0.657871241908E+03    0.47926E-03   -0.39830E-03   816   0.828E-02    0.440E-01
DAV:   7    -0.657870654118E+03    0.58779E-03   -0.12311E-03   708   0.474E-02    0.217E-01
DAV:   8    -0.657870325414E+03    0.32870E-03   -0.58961E-04   528   0.377E-02    0.206E-01
DAV:   9    -0.657870139465E+03    0.18595E-03   -0.29399E-04   384   0.263E-02    0.904E-02
DAV:  10    -0.657870072378E+03    0.67087E-04   -0.21645E-04   384   0.179E-02
  13 F= -.67304458E+03 E0= -.67298185E+03  d E =-.115088E-01
 trial-energy change:   -0.011509  1 .order   -0.011337   -0.014682   -0.007991
 step:   0.6925(harm=  0.6925)  dis= 0.02733  next Energy=  -673.049180 (dE=-0.161E-01)
 bond charge predicted
       N       E                     dE             d eps       ncg     rms          rms(c)
DAV:   1    -0.657872691943E+03   -0.25525E-02   -0.20495E+00   600   0.187E+00    0.584E-01
DAV:   2    -0.657899624257E+03   -0.26932E-01   -0.10176E-01   900   0.534E-01    0.274E+00
DAV:   3    -0.657888923519E+03    0.10701E-01   -0.70603E-02   912   0.305E-01    0.763E-01
DAV:   4    -0.657883996733E+03    0.49268E-02   -0.57196E-03   876   0.897E-02    0.859E-01
DAV:   5    -0.657880342521E+03    0.36542E-02   -0.37696E-03   816   0.748E-02    0.515E-01
DAV:   6    -0.657879028365E+03    0.13142E-02   -0.70568E-03   852   0.109E-01    0.514E-01
DAV:   7    -0.657878210474E+03    0.81789E-03   -0.21158E-03   732   0.544E-02    0.263E-01
DAV:   8    -0.657877866733E+03    0.34374E-03   -0.22484E-03   552   0.411E-02    0.304E-01
DAV:   9    -0.657877483596E+03    0.38314E-03   -0.19369E-03   396   0.281E-02    0.106E-01
DAV:  10    -0.657877405683E+03    0.77913E-04   -0.11593E-03   396   0.248E-02    0.170E-01
DAV:  11    -0.657877295522E+03    0.11016E-03   -0.76638E-04   384   0.171E-02    0.430E-02
DAV:  12    -0.657877280465E+03    0.15057E-04   -0.44824E-04   384   0.141E-02
  14 F= -.67304951E+03 E0= -.67298723E+03  d E =-.164411E-01
 curvature:  -1.58 expect dE=-0.353E-01 dE for cont linesearch -0.188E-08
 trial: gam= 0.48494 g(F)=  0.224E-01 g(S)=  0.000E+00 ort = 0.159E-04 (trialstep = 0.391E+00)
 search vector abs. value=  0.722E-01
 bond charge predicted
       N       E                     dE             d eps       ncg     rms          rms(c)
DAV:   1    -0.657883163311E+03   -0.58678E-02   -0.70564E-01   600   0.110E+00    0.307E-01
DAV:   2    -0.657885373424E+03   -0.22101E-02   -0.25454E-02   876   0.245E-01    0.392E-01
DAV:   3    -0.657888456466E+03   -0.30830E-02   -0.24140E-02   876   0.152E-01    0.600E-01
DAV:   4    -0.657884940392E+03    0.35161E-02   -0.15390E-02   804   0.121E-01    0.234E-01
DAV:   5    -0.657884839850E+03    0.10054E-03   -0.32284E-03   588   0.277E-02    0.225E-01
DAV:   6    -0.657884756609E+03    0.83241E-04   -0.41068E-03   612   0.353E-02    0.181E-01
DAV:   7    -0.657884877464E+03   -0.12085E-03   -0.42438E-03   636   0.476E-02    0.249E-01
DAV:   8    -0.657884560927E+03    0.31654E-03   -0.28055E-03   504   0.371E-02    0.912E-02
DAV:   9    -0.657884540842E+03    0.20085E-04   -0.17528E-03   384   0.179E-02    0.106E-01
DAV:  10    -0.657884510013E+03    0.30829E-04   -0.11917E-03   384   0.144E-02    0.561E-02
DAV:  11    -0.657884498839E+03    0.11174E-04   -0.63952E-04   384   0.966E-03
  15 F= -.67305636E+03 E0= -.67299457E+03  d E =-.685214E-02
 trial-energy change:   -0.006852  1 .order   -0.006846   -0.008763   -0.004929
 step:   0.8936(harm=  0.8936)  dis= 0.01866  next Energy=  -673.059525 (dE=-0.100E-01)
 bond charge predicted
       N       E                     dE             d eps       ncg     rms          rms(c)
DAV:   1    -0.657885803393E+03   -0.12934E-02   -0.11642E+00   600   0.142E+00    0.384E-01
DAV:   2    -0.657889603602E+03   -0.38002E-02   -0.37561E-02   888   0.318E-01    0.536E-01
DAV:   3    -0.657895296030E+03   -0.56924E-02   -0.35809E-02   924   0.225E-01    0.739E-01
DAV:   4    -0.657889320063E+03    0.59760E-02   -0.13781E-02   876   0.130E-01    0.371E-01
DAV:   5    -0.657888629123E+03    0.69094E-03   -0.16395E-03   684   0.405E-02    0.286E-01
DAV:   6    -0.657888757027E+03   -0.12790E-03   -0.27129E-03   756   0.583E-02    0.341E-01
DAV:   7    -0.657888331293E+03    0.42573E-03   -0.21009E-03   708   0.510E-02    0.178E-01
DAV:   8    -0.657888164976E+03    0.16632E-03   -0.92489E-04   456   0.252E-02    0.107E-01
DAV:   9    -0.657888095416E+03    0.69560E-04   -0.70126E-04   384   0.205E-02
  16 F= -.67305953E+03 E0= -.67299783E+03  d E =-.100157E-01
 curvature:  -1.44 expect dE=-0.517E-01 dE for cont linesearch -0.815E-06
 trial: gam= 1.62609 g(F)=  0.359E-01 g(S)=  0.000E+00 ort =-0.202E-03 (trialstep = 0.157E+00)
 search vector abs. value=  0.226E+00
 bond charge predicted
       N       E                     dE             d eps       ncg     rms          rms(c)
DAV:   1    -0.657892031950E+03   -0.38670E-02   -0.34341E-01   600   0.776E-01    0.227E-01
DAV:   2    -0.657893941581E+03   -0.19096E-02   -0.13695E-02   900   0.196E-01    0.400E-01
DAV:   3    -0.657895611918E+03   -0.16703E-02   -0.12803E-02   828   0.126E-01    0.784E-01
DAV:   4    -0.657893782608E+03    0.18293E-02   -0.68623E-03   756   0.958E-02    0.278E-01
DAV:   5    -0.657893177494E+03    0.60511E-03   -0.79517E-04   528   0.296E-02    0.237E-01
DAV:   6    -0.657892917397E+03    0.26010E-03   -0.51228E-04   468   0.234E-02    0.947E-02
DAV:   7    -0.657893014755E+03   -0.97357E-04   -0.36595E-04   444   0.193E-02
  17 F= -.67306450E+03 E0= -.67300092E+03  d E =-.497395E-02
 trial-energy change:   -0.004974  1 .order   -0.004868   -0.005584   -0.004152
 step:   0.6119(harm=  0.6119)  dis= 0.02401  next Energy=  -673.070416 (dE=-0.109E-01)
 bond charge predicted
       N       E                     dE             d eps       ncg     rms          rms(c)
DAV:   1    -0.657891700657E+03    0.12167E-02   -0.28791E+00   600   0.225E+00    0.650E-01
DAV:   2    -0.657906180313E+03   -0.14480E-01   -0.11888E-01   900   0.576E-01    0.802E-01
DAV:   3    -0.657921869041E+03   -0.15689E-01   -0.12147E-01   960   0.389E-01    0.287E+00
DAV:   4    -0.657907422501E+03    0.14447E-01   -0.50633E-02   888   0.264E-01    0.633E-01
DAV:   5    -0.657902376207E+03    0.50463E-02   -0.45029E-03   840   0.799E-02    0.694E-01
DAV:   6    -0.657899124801E+03    0.32514E-02   -0.28317E-03   792   0.867E-02    0.302E-01
DAV:   7    -0.657899242823E+03   -0.11802E-03   -0.34136E-03   780   0.630E-02    0.516E-01
DAV:   8    -0.657898627055E+03    0.61577E-03   -0.15088E-03   648   0.403E-02    0.250E-01
DAV:   9    -0.657898334078E+03    0.29298E-03   -0.16234E-03   516   0.298E-02    0.317E-01
DAV:  10    -0.657897978391E+03    0.35569E-03   -0.11381E-03   384   0.202E-02    0.116E-01
DAV:  11    -0.657897887106E+03    0.91285E-04   -0.74504E-04   468   0.209E-02
  18 F= -.67306959E+03 E0= -.67300696E+03  d E =-.100642E-01
 curvature:  -1.94 expect dE=-0.458E-01 dE for cont linesearch -0.580E-04
 trial: gam= 0.70322 g(F)=  0.235E-01 g(S)=  0.000E+00 ort =-0.260E-02 (trialstep = 0.248E+00)
 search vector abs. value=  0.132E+00
 bond charge predicted
       N       E                     dE             d eps       ncg     rms          rms(c)
DAV:   1    -0.657901441467E+03   -0.34631E-02   -0.44321E-01   600   0.850E-01    0.299E-01
DAV:   2    -0.657904599076E+03   -0.31576E-02   -0.21687E-02   888   0.234E-01    0.488E-01
DAV:   3    -0.657908178866E+03   -0.35798E-02   -0.26906E-02   876   0.180E-01    0.120E+00
DAV:   4    -0.657904267779E+03    0.39111E-02   -0.11232E-02   780   0.123E-01    0.329E-01
DAV:   5    -0.657903275426E+03    0.99235E-03   -0.98389E-04   588   0.364E-02    0.318E-01
DAV:   6    -0.657902734322E+03    0.54110E-03   -0.50484E-04   468   0.332E-02    0.117E-01
DAV:   7    -0.657902925798E+03   -0.19148E-03   -0.56108E-04   492   0.269E-02    0.280E-01
DAV:   8    -0.657902658212E+03    0.26759E-03   -0.29787E-04   360   0.226E-02    0.798E-02
DAV:   9    -0.657902614039E+03    0.44173E-04   -0.25283E-04   396   0.179E-02
  19 F= -.67307437E+03 E0= -.67301152E+03  d E =-.477598E-02
 ZBRENT: can't locate minimum, use default step
 trial-energy change:   -0.004776  1 .order   -0.004809   -0.005381   -0.004237
 step:   0.9916(harm=  1.1657)  dis= 0.03090  next Energy=  -673.082243 (dE=-0.127E-01)
 bond charge predicted
       N       E                     dE             d eps       ncg     rms          rms(c)
DAV:   1    -0.657899832335E+03    0.28259E-02   -0.39834E+00   600   0.255E+00    0.891E-01
DAV:   2    -0.657921869994E+03   -0.22038E-01   -0.17994E-01   864   0.686E-01    0.994E-01
DAV:   3    -0.657957427871E+03   -0.35558E-01   -0.21144E-01   948   0.512E-01    0.431E+00
DAV:   4    -0.657929814222E+03    0.27614E-01   -0.10287E-01   900   0.355E-01    0.760E-01
DAV:   5    -0.657918849451E+03    0.10965E-01   -0.31660E-02   864   0.112E-01    0.102E+00
DAV:   6    -0.657913036116E+03    0.58133E-02   -0.24410E-02   804   0.100E-01    0.455E-01
DAV:   7    -0.657911813112E+03    0.12230E-02   -0.81611E-03   828   0.868E-02    0.659E-01
DAV:   8    -0.657910709149E+03    0.11040E-02   -0.43153E-03   756   0.596E-02    0.305E-01
DAV:   9    -0.657910377839E+03    0.33131E-03   -0.40796E-03   684   0.415E-02    0.460E-01
DAV:  10    -0.657909702420E+03    0.67542E-03   -0.28209E-03   432   0.329E-02    0.181E-01
DAV:  11    -0.657909583754E+03    0.11867E-03   -0.14697E-03   432   0.282E-02    0.261E-01
DAV:  12    -0.657909413111E+03    0.17064E-03   -0.98633E-04   408   0.171E-02    0.131E-01
DAV:  13    -0.657909374593E+03    0.38517E-04   -0.62666E-04   408   0.165E-02
  20 F= -.67308131E+03 E0= -.67301887E+03  d E =-.117224E-01
 curvature:  -3.41 expect dE=-0.564E-01 dE for cont linesearch -0.105E-03
 trial: gam= 0.44609 g(F)=  0.165E-01 g(S)=  0.000E+00 ort = 0.201E-02 (trialstep = 0.397E+00)
 search vector abs. value=  0.445E-01
 bond charge predicted
       N       E                     dE             d eps       ncg     rms          rms(c)
DAV:   1    -0.657914949798E+03   -0.55367E-02   -0.44840E-01   600   0.883E-01    0.239E-01
DAV:   2    -0.657917215273E+03   -0.22655E-02   -0.17392E-02   888   0.214E-01    0.405E-01
DAV:   3    -0.657919000264E+03   -0.17850E-02   -0.15079E-02   852   0.137E-01    0.845E-01
DAV:   4    -0.657916750302E+03    0.22500E-02   -0.59229E-03   756   0.934E-02    0.266E-01
DAV:   5    -0.657916308049E+03    0.44225E-03   -0.71163E-04   552   0.296E-02    0.256E-01
DAV:   6    -0.657915978423E+03    0.32963E-03   -0.44335E-04   504   0.308E-02    0.998E-02
DAV:   7    -0.657916069555E+03   -0.91132E-04   -0.34506E-04   456   0.206E-02
  21 F= -.67308680E+03 E0= -.67302305E+03  d E =-.548136E-02
 trial-energy change:   -0.005481  1 .order   -0.005259   -0.006910   -0.003609
 step:   0.8302(harm=  0.8302)  dis= 0.01279  next Energy=  -673.088545 (dE=-0.723E-02)
 bond charge predicted
       N       E                     dE             d eps       ncg     rms          rms(c)
DAV:   1    -0.657918245859E+03   -0.22674E-02   -0.53518E-01   600   0.965E-01    0.271E-01
DAV:   2    -0.657921412708E+03   -0.31668E-02   -0.22881E-02   900   0.235E-01    0.492E-01
DAV:   3    -0.657921766551E+03   -0.35384E-03   -0.18516E-02   876   0.149E-01    0.728E-01
DAV:   4    -0.657920163445E+03    0.16031E-02   -0.76246E-03   768   0.101E-01    0.314E-01
DAV:   5    -0.657919466781E+03    0.69666E-03   -0.97647E-04   588   0.302E-02    0.192E-01
DAV:   6    -0.657919310065E+03    0.15672E-03   -0.12918E-03   504   0.252E-02    0.147E-01
DAV:   7    -0.657919329693E+03   -0.19628E-04   -0.17540E-03   504   0.258E-02    0.151E-01
DAV:   8    -0.657919241536E+03    0.88157E-04   -0.11740E-03   384   0.241E-02    0.959E-02
DAV:   9    -0.657919197289E+03    0.44248E-04   -0.83290E-04   384   0.169E-02
  22 F= -.67308861E+03 E0= -.67302664E+03  d E =-.729145E-02
 curvature:  -1.06 expect dE=-0.312E-01 dE for cont linesearch -0.679E-06
 trial: gam= 1.86201 g(F)=  0.294E-01 g(S)=  0.000E+00 ort = 0.169E-03 (trialstep = 0.117E+00)
 search vector abs. value=  0.184E+00
 bond charge predicted
       N       E                     dE             d eps       ncg     rms          rms(c)
DAV:   1    -0.657922983337E+03   -0.37418E-02   -0.14895E-01   600   0.510E-01    0.162E-01
DAV:   2    -0.657923739131E+03   -0.75579E-03   -0.10321E-02   888   0.121E-01    0.303E-01
DAV:   3    -0.657923880249E+03   -0.14112E-03   -0.10834E-02   720   0.489E-02    0.299E-01
DAV:   4    -0.657923897413E+03   -0.17164E-04   -0.71789E-03   696   0.627E-02    0.272E-01
DAV:   5    -0.657923378554E+03    0.51886E-03   -0.21250E-03   456   0.326E-02    0.100E-01
DAV:   6    -0.657923329147E+03    0.49407E-04   -0.10107E-03   420   0.148E-02    0.105E-01
DAV:   7    -0.657923298491E+03    0.30656E-04   -0.72387E-04   384   0.163E-02
  23 F= -.67309179E+03 E0= -.67302939E+03  d E =-.318927E-02
 ZBRENT: can't locate minimum, use default step
 trial-energy change:   -0.003189  1 .order   -0.003228   -0.003467   -0.002989
 step:   0.4669(harm=  0.8471)  dis= 0.01382  next Energy=  -673.101185 (dE=-0.126E-01)
 bond charge predicted
       N       E                     dE             d eps       ncg     rms          rms(c)
DAV:   1    -0.657929216409E+03   -0.58873E-02   -0.13297E+00   600   0.153E+00    0.409E-01
DAV:   2    -0.657933215982E+03   -0.39996E-02   -0.44798E-02   888   0.356E-01    0.417E-01
DAV:   3    -0.657943073605E+03   -0.98576E-02   -0.32772E-02   936   0.189E-01    0.179E+00
DAV:   4    -0.657935210721E+03    0.78629E-02   -0.22811E-02   828   0.166E-01    0.450E-01
DAV:   5    -0.657933004074E+03    0.22066E-02   -0.20459E-03   780   0.471E-02    0.359E-01
DAV:   6    -0.657932467339E+03    0.53673E-03   -0.21183E-03   588   0.350E-02    0.257E-01
DAV:   7    -0.657932275373E+03    0.19197E-03   -0.23160E-03   612   0.384E-02    0.201E-01
DAV:   8    -0.657932137294E+03    0.13808E-03   -0.12777E-03   432   0.290E-02    0.129E-01
DAV:   9    -0.657932050433E+03    0.86861E-04   -0.12698E-03   408   0.234E-02    0.112E-01
DAV:  10    -0.657931998885E+03    0.51548E-04   -0.88652E-04   384   0.141E-02
  24 F= -.67309778E+03 E0= -.67303593E+03  d E =-.917169E-02
 curvature:  -1.92 expect dE=-0.218E-01 dE for cont linesearch -0.896E-03
 ZBRENT: increasing intervall
 opt :   1.1673  next Energy=  -673.092847 (dE=-0.424E-02)
 bond charge predicted
       N       E                     dE             d eps       ncg     rms          rms(c)
DAV:   1    -0.657922501207E+03    0.95492E-02   -0.53408E+00   600   0.305E+00    0.846E-01
DAV:   2    -0.657941365272E+03   -0.18864E-01   -0.20998E-01   876   0.725E-01    0.108E+00
DAV:   3    -0.657962726339E+03   -0.21361E-01   -0.18947E-01   936   0.336E-01    0.303E+00
DAV:   4    -0.657949203068E+03    0.13523E-01   -0.13308E-01   876   0.321E-01    0.867E-01
DAV:   5    -0.657941511266E+03    0.76918E-02   -0.20379E-02   888   0.971E-02    0.919E-01
DAV:   6    -0.657937506610E+03    0.40047E-02   -0.18026E-02   768   0.823E-02    0.611E-01
DAV:   7    -0.657935991300E+03    0.15153E-02   -0.12749E-02   852   0.144E-01    0.653E-01
DAV:   8    -0.657934554101E+03    0.14372E-02   -0.94534E-03   804   0.841E-02    0.285E-01
DAV:   9    -0.657934181756E+03    0.37235E-03   -0.75690E-03   648   0.503E-02    0.368E-01
DAV:  10    -0.657933709845E+03    0.47191E-03   -0.65392E-03   468   0.358E-02    0.177E-01
DAV:  11    -0.657933583918E+03    0.12593E-03   -0.42136E-03   444   0.291E-02    0.210E-01
DAV:  12    -0.657933429432E+03    0.15449E-03   -0.30126E-03   384   0.199E-02    0.119E-01
DAV:  13    -0.657933390519E+03    0.38913E-04   -0.18765E-03   384   0.169E-02    0.121E-01
DAV:  14    -0.657933335225E+03    0.55294E-04   -0.10661E-03   384   0.125E-02    0.695E-02
DAV:  15    -0.657933323181E+03    0.12045E-04   -0.57987E-04   384   0.100E-02
  25 F= -.67309374E+03 E0= -.67303148E+03  d E =-.513195E-02
 curvature:  10.55 expect dE= 0.626E+00 dE for cont linesearch  0.257E-01
 ZBRENT: bracketing found
 ZBRENT: interpolating
 opt :   0.6802  next Energy=  -673.098767 (dE=-0.102E-01)
 bond charge predicted
       N       E                     dE             d eps       ncg     rms          rms(c)
DAV:   1    -0.657929242608E+03    0.40926E-02   -0.25802E+00   600   0.212E+00    0.567E-01
DAV:   2    -0.657936092424E+03   -0.68498E-02   -0.83759E-02   876   0.483E-01    0.505E-01
DAV:   3    -0.657943257038E+03   -0.71646E-02   -0.49823E-02   936   0.218E-01    0.858E-01
DAV:   4    -0.657935814400E+03    0.74426E-02   -0.41948E-02   852   0.189E-01    0.398E-01
DAV:   5    -0.657936259309E+03   -0.44491E-03   -0.14112E-02   828   0.566E-02    0.499E-01
DAV:   6    -0.657935731290E+03    0.52802E-03   -0.16964E-02   780   0.800E-02    0.352E-01
DAV:   7    -0.657935395039E+03    0.33625E-03   -0.15251E-02   708   0.647E-02    0.350E-01
DAV:   8    -0.657934989793E+03    0.40525E-03   -0.10306E-02   588   0.399E-02    0.189E-01
DAV:   9    -0.657934878894E+03    0.11090E-03   -0.61884E-03   456   0.287E-02    0.194E-01
DAV:  10    -0.657934747095E+03    0.13180E-03   -0.35399E-03   420   0.229E-02    0.940E-02
DAV:  11    -0.657934699833E+03    0.47262E-04   -0.18176E-03   384   0.152E-02    0.116E-01
DAV:  12    -0.657934654750E+03    0.45083E-04   -0.10728E-03   384   0.116E-02    0.411E-02
DAV:  13    -0.657934643203E+03    0.11546E-04   -0.45136E-04   384   0.886E-03
  26 F= -.67309878E+03 E0= -.67303685E+03  d E =-.101730E-01
 curvature:  -0.41 expect dE=-0.667E-02 dE for cont linesearch -0.229E-06
 trial: gam= 0.49956 g(F)=  0.164E-01 g(S)=  0.000E+00 ort = 0.323E-03 (trialstep = 0.229E+00)
 search vector abs. value=  0.628E-01
 bond charge predicted
       N       E                     dE             d eps       ncg     rms          rms(c)
DAV:   1    -0.657938463560E+03   -0.38088E-02   -0.19106E-01   600   0.566E-01    0.181E-01
DAV:   2    -0.657939149138E+03   -0.68558E-03   -0.81506E-03   876   0.133E-01    0.198E-01
DAV:   3    -0.657939866053E+03   -0.71692E-03   -0.60218E-03   744   0.603E-02    0.411E-01
DAV:   4    -0.657939467588E+03    0.39847E-03   -0.56075E-03   732   0.725E-02    0.249E-01
DAV:   5    -0.657939014271E+03    0.45332E-03   -0.10726E-03   420   0.279E-02    0.108E-01
DAV:   6    -0.657938965053E+03    0.49217E-04   -0.76079E-04   372   0.138E-02
  27 F= -.67310214E+03 E0= -.67304057E+03  d E =-.336154E-02
 ZBRENT: can't locate minimum, use default step
 trial-energy change:   -0.003362  1 .order   -0.003391   -0.003803   -0.002978
 step:   0.9177(harm=  1.0574)  dis= 0.01517  next Energy=  -673.107543 (dE=-0.876E-02)
 bond charge predicted
       N       E                     dE             d eps       ncg     rms          rms(c)
DAV:   1    -0.657942241886E+03   -0.32276E-02   -0.17085E+00   600   0.169E+00    0.528E-01
DAV:   2    -0.657949193696E+03   -0.69518E-02   -0.69266E-02   876   0.410E-01    0.601E-01
DAV:   3    -0.657968409249E+03   -0.19216E-01   -0.69899E-02   936   0.268E-01    0.272E+00
DAV:   4    -0.657954153401E+03    0.14256E-01   -0.44881E-02   876   0.228E-01    0.579E-01
DAV:   5    -0.657949157534E+03    0.49959E-02   -0.40506E-03   840   0.691E-02    0.571E-01
DAV:   6    -0.657947655942E+03    0.15016E-02   -0.25041E-03   684   0.461E-02    0.366E-01
DAV:   7    -0.657947093078E+03    0.56286E-03   -0.24322E-03   744   0.559E-02    0.333E-01
DAV:   8    -0.657946635151E+03    0.45793E-03   -0.53409E-04   516   0.327E-02    0.113E-01
DAV:   9    -0.657946563314E+03    0.71837E-04   -0.25612E-04   432   0.274E-02
  28 F= -.67310688E+03 E0= -.67304368E+03  d E =-.810166E-02
 curvature:  -1.94 expect dE=-0.418E-01 dE for cont linesearch -0.994E-05
 trial: gam= 1.27865 g(F)=  0.215E-01 g(S)=  0.000E+00 ort = 0.566E-03 (trialstep = 0.183E+00)
 search vector abs. value=  0.126E+00
 bond charge predicted
       N       E                     dE             d eps       ncg     rms          rms(c)
DAV:   1    -0.657950076373E+03   -0.34412E-02   -0.24246E-01   600   0.639E-01    0.199E-01
DAV:   2    -0.657951746367E+03   -0.16700E-02   -0.11180E-02   888   0.169E-01    0.366E-01
DAV:   3    -0.657952387712E+03   -0.64134E-03   -0.10535E-02   804   0.118E-01    0.624E-01
DAV:   4    -0.657951046422E+03    0.13413E-02   -0.32853E-03   720   0.745E-02    0.220E-01
DAV:   5    -0.657950799487E+03    0.24694E-03   -0.26190E-04   420   0.199E-02    0.174E-01
DAV:   6    -0.657950683239E+03    0.11625E-03   -0.24547E-04   432   0.252E-02    0.110E-01
DAV:   7    -0.657950664300E+03    0.18939E-04   -0.51981E-04   396   0.160E-02
  29 F= -.67311024E+03 E0= -.67304696E+03  d E =-.336183E-02
 ZBRENT: can't locate minimum, use default step
 trial-energy change:   -0.003362  1 .order   -0.003641   -0.004078   -0.003205
 step:   0.7339(harm=  0.8575)  dis= 0.01606  next Energy=  -673.116408 (dE=-0.953E-02)
 bond charge predicted
       N       E                     dE             d eps       ncg     rms          rms(c)
DAV:   1    -0.657952648539E+03   -0.19653E-02   -0.21781E+00   600   0.191E+00    0.588E-01
DAV:   2    -0.657966373549E+03   -0.13725E-01   -0.10245E-01   888   0.514E-01    0.838E-01
DAV:   3    -0.657973341641E+03   -0.69681E-02   -0.99617E-02   936   0.346E-01    0.221E+00
DAV:   4    -0.657965628119E+03    0.77135E-02   -0.40347E-02   852   0.237E-01    0.640E-01
DAV:   5    -0.657961984797E+03    0.36433E-02   -0.31639E-03   804   0.675E-02    0.658E-01
DAV:   6    -0.657959109470E+03    0.28753E-02   -0.23447E-03   768   0.692E-02    0.371E-01
DAV:   7    -0.657958450796E+03    0.65867E-03   -0.41638E-03   660   0.557E-02    0.373E-01
DAV:   8    -0.657958494794E+03   -0.43998E-04   -0.37925E-03   768   0.479E-02    0.332E-01
DAV:   9    -0.657957939848E+03    0.55495E-03   -0.36634E-03   600   0.365E-02    0.237E-01
DAV:  10    -0.657957731931E+03    0.20792E-03   -0.22700E-03   396   0.226E-02    0.135E-01
DAV:  11    -0.657957670301E+03    0.61630E-04   -0.16699E-03   408   0.201E-02    0.136E-01
DAV:  12    -0.657957593862E+03    0.76439E-04   -0.85610E-04   432   0.163E-02
  30 F= -.67311499E+03 E0= -.67305308E+03  d E =-.810800E-02
 curvature:  -2.34 expect dE=-0.624E-01 dE for cont linesearch -0.157E-04
 trial: gam= 1.25146 g(F)=  0.267E-01 g(S)=  0.000E+00 ort = 0.916E-03 (trialstep = 0.163E+00)
 search vector abs. value=  0.226E+00
 bond charge predicted
       N       E                     dE             d eps       ncg     rms          rms(c)
DAV:   1    -0.657961559114E+03   -0.38888E-02   -0.34856E-01   600   0.737E-01    0.209E-01
DAV:   2    -0.657962828517E+03   -0.12694E-02   -0.12618E-02   876   0.172E-01    0.312E-01
DAV:   3    -0.657964641167E+03   -0.18126E-02   -0.10218E-02   780   0.911E-02    0.715E-01
DAV:   4    -0.657963146778E+03    0.14944E-02   -0.71002E-03   756   0.868E-02    0.271E-01
DAV:   5    -0.657962560595E+03    0.58618E-03   -0.57317E-04   516   0.280E-02    0.207E-01
DAV:   6    -0.657962366790E+03    0.19381E-03   -0.21726E-04   444   0.204E-02    0.964E-02
DAV:   7    -0.657962410235E+03   -0.43445E-04   -0.30845E-04   456   0.196E-02
  31 F= -.67311920E+03 E0= -.67305573E+03  d E =-.421544E-02
 ZBRENT: can't locate minimum, use default step
 trial-energy change:   -0.004215  1 .order   -0.004101   -0.004544   -0.003658
 step:   0.6536(harm=  0.8377)  dis= 0.01804  next Energy=  -673.126637 (dE=-0.116E-01)
 bond charge predicted
       N       E                     dE             d eps       ncg     rms          rms(c)
DAV:   1    -0.657964387277E+03   -0.20205E-02   -0.31271E+00   600   0.220E+00    0.578E-01
DAV:   2    -0.657972715471E+03   -0.83282E-02   -0.95404E-02   876   0.507E-01    0.492E-01
DAV:   3    -0.658000807053E+03   -0.28092E-01   -0.61992E-02   948   0.277E-01    0.333E+00
DAV:   4    -0.657979208886E+03    0.21598E-01   -0.36615E-02   876   0.222E-01    0.551E-01
DAV:   5    -0.657972711599E+03    0.64973E-02   -0.44276E-03   828   0.799E-02    0.523E-01
DAV:   6    -0.657971573253E+03    0.11383E-02   -0.18412E-03   708   0.585E-02    0.300E-01
DAV:   7    -0.657971372811E+03    0.20044E-03   -0.57255E-03   636   0.388E-02    0.330E-01
DAV:   8    -0.657971069990E+03    0.30282E-03   -0.55391E-03   468   0.351E-02    0.198E-01
DAV:   9    -0.657970899792E+03    0.17020E-03   -0.41925E-03   444   0.287E-02    0.201E-01
DAV:  10    -0.657970740125E+03    0.15967E-03   -0.24536E-03   396   0.205E-02    0.979E-02
DAV:  11    -0.657970714140E+03    0.25985E-04   -0.16715E-03   384   0.159E-02    0.123E-01
DAV:  12    -0.657970649003E+03    0.65137E-04   -0.73975E-04   384   0.122E-02
  32 F= -.67312570E+03 E0= -.67306358E+03  d E =-.107083E-01
 curvature:  -3.14 expect dE=-0.593E-01 dE for cont linesearch -0.328E-03
 ZBRENT: extrapolating
 opt :   0.7893  next Energy=  -673.126026 (dE=-0.110E-01)
 bond charge predicted
       N       E                     dE             d eps       ncg     rms          rms(c)
DAV:   1    -0.657970984979E+03   -0.27084E-03   -0.24043E-01   600   0.610E-01    0.181E-01
DAV:   2    -0.657972066560E+03   -0.10816E-02   -0.10698E-02   876   0.145E-01    0.320E-01
DAV:   3    -0.657973150469E+03   -0.10839E-02   -0.10438E-02   780   0.839E-02    0.579E-01
DAV:   4    -0.657972090861E+03    0.10596E-02   -0.57634E-03   708   0.746E-02    0.241E-01
DAV:   5    -0.657971688832E+03    0.40203E-03   -0.50331E-04   480   0.238E-02    0.176E-01
DAV:   6    -0.657971541201E+03    0.14763E-03   -0.28201E-04   444   0.193E-02    0.909E-02
DAV:   7    -0.657971562208E+03   -0.21007E-04   -0.17586E-04   432   0.175E-02
  33 F= -.67312614E+03 E0= -.67306303E+03  d E =-.111531E-01
 curvature:  -3.15 expect dE=-0.856E-01 dE for cont linesearch -0.490E-05
 trial: gam= 1.08475 g(F)=  0.271E-01 g(S)=  0.000E+00 ort = 0.592E-03 (trialstep = 0.222E+00)
 search vector abs. value=  0.294E+00
 bond charge predicted
       N       E                     dE             d eps       ncg     rms          rms(c)
DAV:   1    -0.657975688348E+03   -0.41471E-02   -0.87221E-01   600   0.120E+00    0.289E-01
DAV:   2    -0.657978767228E+03   -0.30789E-02   -0.28203E-02   876   0.278E-01    0.403E-01
DAV:   3    -0.657982955491E+03   -0.41883E-02   -0.21771E-02   900   0.163E-01    0.121E+00
DAV:   4    -0.657978694463E+03    0.42610E-02   -0.90809E-03   780   0.117E-01    0.314E-01
DAV:   5    -0.657977804798E+03    0.88967E-03   -0.81971E-04   648   0.349E-02    0.255E-01
DAV:   6    -0.657977499297E+03    0.30550E-03   -0.55293E-04   528   0.332E-02    0.155E-01
DAV:   7    -0.657977514968E+03   -0.15671E-04   -0.13159E-03   480   0.235E-02    0.195E-01
DAV:   8    -0.657977400537E+03    0.11443E-03   -0.13062E-03   372   0.216E-02    0.113E-01
DAV:   9    -0.657977341803E+03    0.58734E-04   -0.11019E-03   396   0.183E-02    0.972E-02
DAV:  10    -0.657977305505E+03    0.36297E-04   -0.64529E-04   384   0.120E-02
  34 F= -.67313133E+03 E0= -.67306920E+03  d E =-.518793E-02
 trial-energy change:   -0.005188  1 .order   -0.005348   -0.006155   -0.004541
 step:   0.8446(harm=  0.8446)  dis= 0.02775  next Energy=  -673.137876 (dE=-0.117E-01)
 bond charge predicted
       N       E                     dE             d eps       ncg     rms          rms(c)
DAV:   1    -0.657972508494E+03    0.48333E-02   -0.69050E+00   600   0.336E+00    0.815E-01
DAV:   2    -0.657994276041E+03   -0.21768E-01   -0.21266E-01   852   0.763E-01    0.899E-01
DAV:   3    -0.658030515207E+03   -0.36239E-01   -0.15428E-01   936   0.422E-01    0.415E+00
DAV:   4    -0.658003668242E+03    0.26847E-01   -0.84495E-02   888   0.324E-01    0.715E-01
DAV:   5    -0.657993644399E+03    0.10024E-01   -0.29492E-02   876   0.111E-01    0.101E+00
DAV:   6    -0.657988855798E+03    0.47886E-02   -0.22559E-02   768   0.849E-02    0.465E-01
DAV:   7    -0.657987988532E+03    0.86727E-03   -0.54647E-03   840   0.790E-02    0.686E-01
DAV:   8    -0.657986774357E+03    0.12142E-02   -0.21063E-03   720   0.554E-02    0.281E-01
DAV:   9    -0.657986248981E+03    0.52538E-03   -0.14508E-03   696   0.498E-02    0.423E-01
DAV:  10    -0.657985619793E+03    0.62919E-03   -0.70599E-04   432   0.268E-02    0.110E-01
DAV:  11    -0.657985596972E+03    0.22820E-04   -0.54707E-04   408   0.232E-02
  35 F= -.67313817E+03 E0= -.67307446E+03  d E =-.120272E-01
 curvature:  -4.47 expect dE=-0.101E+00 dE for cont linesearch -0.646E-05
 trial: gam= 0.75262 g(F)=  0.227E-01 g(S)=  0.000E+00 ort = 0.652E-03 (trialstep = 0.346E+00)
 search vector abs. value=  0.190E+00
 bond charge predicted
       N       E                     dE             d eps       ncg     rms          rms(c)
DAV:   1    -0.657989466641E+03   -0.38468E-02   -0.13516E+00   600   0.141E+00    0.415E-01
DAV:   2    -0.657993333867E+03   -0.38672E-02   -0.44776E-02   876   0.339E-01    0.383E-01
DAV:   3    -0.657999688185E+03   -0.63543E-02   -0.29717E-02   876   0.192E-01    0.777E-01
DAV:   4    -0.657993371563E+03    0.63166E-02   -0.21477E-02   828   0.153E-01    0.300E-01
DAV:   5    -0.657993054721E+03    0.31684E-03   -0.23922E-03   636   0.366E-02    0.257E-01
DAV:   6    -0.657992784932E+03    0.26979E-03   -0.34597E-03   576   0.380E-02    0.194E-01
DAV:   7    -0.657992862490E+03   -0.77558E-04   -0.46317E-03   576   0.306E-02    0.229E-01
DAV:   8    -0.657992682495E+03    0.17999E-03   -0.38076E-03   516   0.377E-02    0.129E-01
DAV:   9    -0.657992593574E+03    0.88922E-04   -0.22196E-03   396   0.207E-02    0.115E-01
DAV:  10    -0.657992573356E+03    0.20218E-04   -0.15374E-03   384   0.140E-02    0.834E-02
DAV:  11    -0.657992542831E+03    0.30525E-04   -0.90293E-04   384   0.111E-02
  36 F= -.67314398E+03 E0= -.67308233E+03  d E =-.580689E-02
 trial-energy change:   -0.005807  1 .order   -0.005991   -0.008025   -0.003958
 step:   0.6829(harm=  0.6829)  dis= 0.01779  next Energy=  -673.146085 (dE=-0.792E-02)
 bond charge predicted
       N       E                     dE             d eps       ncg     rms          rms(c)
DAV:   1    -0.657992542859E+03    0.30497E-04   -0.12799E+00   600   0.137E+00    0.409E-01
DAV:   2    -0.657999696724E+03   -0.71539E-02   -0.47667E-02   876   0.360E-01    0.101E+00
DAV:   3    -0.658002241224E+03   -0.25445E-02   -0.35901E-02   900   0.218E-01    0.719E-01
DAV:   4    -0.657997716907E+03    0.45243E-02   -0.68128E-03   804   0.928E-02    0.479E-01
DAV:   5    -0.657996331325E+03    0.13856E-02   -0.16337E-03   708   0.485E-02    0.329E-01
DAV:   6    -0.657996356025E+03   -0.24699E-04   -0.27634E-03   792   0.730E-02    0.398E-01
DAV:   7    -0.657995757672E+03    0.59835E-03   -0.11913E-03   732   0.506E-02    0.192E-01
DAV:   8    -0.657995540337E+03    0.21733E-03   -0.26259E-04   444   0.260E-02    0.102E-01
DAV:   9    -0.657995496636E+03    0.43701E-04   -0.10842E-04   384   0.175E-02
  37 F= -.67314585E+03 E0= -.67308431E+03  d E =-.768168E-02
 curvature:  -2.80 expect dE=-0.895E-01 dE for cont linesearch -0.806E-05
 trial: gam= 1.47655 g(F)=  0.320E-01 g(S)=  0.000E+00 ort =-0.740E-03 (trialstep = 0.177E+00)
 search vector abs. value=  0.444E+00
 bond charge predicted
       N       E                     dE             d eps       ncg     rms          rms(c)
DAV:   1    -0.657999491869E+03   -0.39515E-02   -0.78435E-01   600   0.105E+00    0.335E-01
DAV:   2    -0.658001607824E+03   -0.21160E-02   -0.25956E-02   888   0.256E-01    0.223E-01
DAV:   3    -0.658004263733E+03   -0.26559E-02   -0.11075E-02   864   0.123E-01    0.525E-01
DAV:   4    -0.658001502211E+03    0.27615E-02   -0.90308E-03   780   0.103E-01    0.179E-01
DAV:   5    -0.658001530345E+03   -0.28134E-04   -0.83513E-04   528   0.215E-02
  38 F= -.67315084E+03 E0= -.67308971E+03  d E =-.499287E-02
 ZBRENT: can't locate minimum, use default step
 trial-energy change:   -0.004993  1 .order   -0.005046   -0.005462   -0.004630
 step:   0.7078(harm=  1.1615)  dis= 0.02853  next Energy=  -673.163775 (dE=-0.179E-01)
 bond charge predicted
       N       E                     dE             d eps       ncg     rms          rms(c)
DAV:   1    -0.657996318026E+03    0.51842E-02   -0.70258E+00   600   0.315E+00    0.101E+00
DAV:   2    -0.658025060939E+03   -0.28743E-01   -0.23974E-01   888   0.787E-01    0.194E+00
DAV:   3    -0.658045910851E+03   -0.20850E-01   -0.19890E-01   900   0.528E-01    0.142E+00
DAV:   4    -0.658026977644E+03    0.18933E-01   -0.45432E-02   912   0.252E-01    0.106E+00
DAV:   5    -0.658020875708E+03    0.61019E-02   -0.95915E-03   876   0.117E-01    0.888E-01
DAV:   6    -0.658015086435E+03    0.57893E-02   -0.16571E-02   912   0.187E-01    0.605E-01
DAV:   7    -0.658014562479E+03    0.52396E-03   -0.11696E-02   792   0.101E-01    0.513E-01
DAV:   8    -0.658013075211E+03    0.14873E-02   -0.53066E-03   864   0.841E-02    0.327E-01
DAV:   9    -0.658012568785E+03    0.50643E-03   -0.13880E-03   612   0.402E-02    0.260E-01
DAV:  10    -0.658012226917E+03    0.34187E-03   -0.12039E-03   432   0.256E-02    0.131E-01
DAV:  11    -0.658012113584E+03    0.11333E-03   -0.99503E-04   444   0.223E-02    0.114E-01
DAV:  12    -0.658012041140E+03    0.72444E-04   -0.64920E-04   396   0.166E-02
  39 F= -.67315834E+03 E0= -.67309612E+03  d E =-.124855E-01
 curvature:  -6.59 expect dE=-0.110E+00 dE for cont linesearch -0.220E-03
 ZBRENT: extrapolating
 opt :   0.7996  next Energy=  -673.158512 (dE=-0.127E-01)
 bond charge predicted
       N       E                     dE             d eps       ncg     rms          rms(c)
DAV:   1    -0.658012310141E+03   -0.19656E-03   -0.21239E-01   600   0.547E-01    0.189E-01
DAV:   2    -0.658013469391E+03   -0.11592E-02   -0.10589E-02   900   0.150E-01    0.367E-01
DAV:   3    -0.658014630838E+03   -0.11614E-02   -0.10501E-02   768   0.915E-02    0.453E-01
DAV:   4    -0.658013198608E+03    0.14322E-02   -0.54232E-03   708   0.747E-02    0.215E-01
DAV:   5    -0.658013032082E+03    0.16653E-03   -0.43108E-04   408   0.196E-02    0.172E-01
DAV:   6    -0.658012918864E+03    0.11322E-03   -0.46455E-04   444   0.239E-02    0.108E-01
DAV:   7    -0.658012971325E+03   -0.52461E-04   -0.57097E-04   480   0.258E-02
  40 F= -.67315876E+03 E0= -.67309597E+03  d E =-.129095E-01
 curvature:  -5.29 expect dE=-0.947E-01 dE for cont linesearch -0.583E-04
 trial: gam= 0.30324 g(F)=  0.179E-01 g(S)=  0.000E+00 ort = 0.221E-02 (trialstep = 0.301E+00)
 search vector abs. value=  0.601E-01
 bond charge predicted
       N       E                     dE             d eps       ncg     rms          rms(c)
DAV:   1    -0.658017080783E+03   -0.41619E-02   -0.41638E-01   600   0.869E-01    0.189E-01
DAV:   2    -0.658018660104E+03   -0.15793E-02   -0.12039E-02   876   0.185E-01    0.377E-01
DAV:   3    -0.658019119983E+03   -0.45988E-03   -0.60316E-03   780   0.896E-02    0.513E-01
DAV:   4    -0.658018483857E+03    0.63613E-03   -0.40154E-03   732   0.765E-02    0.281E-01
DAV:   5    -0.658017830303E+03    0.65355E-03   -0.93108E-04   636   0.383E-02    0.126E-01
DAV:   6    -0.658017779984E+03    0.50319E-04   -0.19407E-04   432   0.174E-02
  41 F= -.67316275E+03 E0= -.67310101E+03  d E =-.398998E-02
 trial-energy change:   -0.003990  1 .order   -0.004157   -0.005599   -0.002715
 step:   0.5852(harm=  0.5852)  dis= 0.00827  next Energy=  -673.164194 (dE=-0.543E-02)
 bond charge predicted
       N       E                     dE             d eps       ncg     rms          rms(c)
DAV:   1    -0.658019138863E+03   -0.13086E-02   -0.36692E-01   600   0.816E-01    0.211E-01
DAV:   2    -0.658023842569E+03   -0.47037E-02   -0.20003E-02   876   0.210E-01    0.689E-01
DAV:   3    -0.658020663750E+03    0.31788E-02   -0.15337E-02   828   0.135E-01    0.349E-01
DAV:   4    -0.658020328821E+03    0.33493E-03   -0.18752E-03   660   0.446E-02    0.310E-01
DAV:   5    -0.658020143341E+03    0.18548E-03   -0.87136E-04   576   0.292E-02    0.211E-01
DAV:   6    -0.658019795571E+03    0.34777E-03   -0.12589E-03   612   0.451E-02    0.157E-01
DAV:   7    -0.658019697125E+03    0.98446E-04   -0.10948E-03   396   0.189E-02    0.120E-01
DAV:   8    -0.658019644192E+03    0.52932E-04   -0.10184E-03   372   0.163E-02    0.661E-02
DAV:   9    -0.658019626013E+03    0.18179E-04   -0.62135E-04   384   0.129E-02
  42 F= -.67316383E+03 E0= -.67310152E+03  d E =-.507327E-02
 curvature:  -0.95 expect dE=-0.172E-01 dE for cont linesearch -0.174E-05
 trial: gam= 1.06840 g(F)=  0.182E-01 g(S)=  0.000E+00 ort =-0.333E-03 (trialstep = 0.250E+00)
 search vector abs. value=  0.861E-01
 bond charge predicted
       N       E                     dE             d eps       ncg     rms          rms(c)
DAV:   1    -0.658023406060E+03   -0.37619E-02   -0.40100E-01   600   0.854E-01    0.210E-01
DAV:   2    -0.658025192173E+03   -0.17861E-02   -0.13552E-02   888   0.189E-01    0.475E-01
DAV:   3    -0.658026052608E+03   -0.86044E-03   -0.10928E-02   816   0.110E-01    0.454E-01
DAV:   4    -0.658024334530E+03    0.17181E-02   -0.30730E-03   744   0.633E-02    0.168E-01
DAV:   5    -0.658024198695E+03    0.13584E-03   -0.37817E-04   528   0.219E-02    0.143E-01
DAV:   6    -0.658024117801E+03    0.80894E-04   -0.59522E-04   492   0.210E-02
  43 F= -.67316725E+03 E0= -.67310525E+03  d E =-.342039E-02
 trial-energy change:   -0.003420  1 .order   -0.003466   -0.004464   -0.002467
 step:   0.5589(harm=  0.5589)  dis= 0.01110  next Energy=  -673.168822 (dE=-0.499E-02)
 bond charge predicted
       N       E                     dE             d eps       ncg     rms          rms(c)
DAV:   1    -0.658025747616E+03   -0.15489E-02   -0.60741E-01   600   0.105E+00    0.287E-01
DAV:   2    -0.658028786391E+03   -0.30388E-02   -0.24853E-02   888   0.216E-01    0.522E-01
DAV:   3    -0.658029883014E+03   -0.10966E-02   -0.24710E-02   876   0.146E-01    0.821E-01
DAV:   4    -0.658028039878E+03    0.18431E-02   -0.11522E-02   780   0.110E-01    0.361E-01
DAV:   5    -0.658026984241E+03    0.10556E-02   -0.17954E-03   624   0.327E-02    0.215E-01
DAV:   6    -0.658026761650E+03    0.22259E-03   -0.18853E-03   492   0.230E-02    0.161E-01
DAV:   7    -0.658026745413E+03    0.16237E-04   -0.14180E-03   540   0.298E-02    0.148E-01
DAV:   8    -0.658026675493E+03    0.69920E-04   -0.64954E-04   444   0.247E-02
  44 F= -.67316850E+03 E0= -.67310709E+03  d E =-.466225E-02
 curvature:  -1.35 expect dE=-0.172E-01 dE for cont linesearch -0.144E-04
 trial: gam= 0.66316 g(F)=  0.128E-01 g(S)=  0.000E+00 ort =-0.958E-03 (trialstep = 0.312E+00)
 search vector abs. value=  0.494E-01
 bond charge predicted
       N       E                     dE             d eps       ncg     rms          rms(c)
DAV:   1    -0.658029879866E+03   -0.31345E-02   -0.29438E-01   600   0.632E-01    0.233E-01
DAV:   2    -0.658031493542E+03   -0.16137E-02   -0.11813E-02   876   0.166E-01    0.386E-01
DAV:   3    -0.658034045351E+03   -0.25518E-02   -0.10430E-02   792   0.113E-01    0.891E-01
DAV:   4    -0.658031995367E+03    0.20500E-02   -0.83195E-03   768   0.103E-01    0.332E-01
DAV:   5    -0.658030931178E+03    0.10642E-02   -0.10359E-03   528   0.325E-02    0.210E-01
DAV:   6    -0.658030718139E+03    0.21304E-03   -0.45123E-04   432   0.188E-02    0.114E-01
DAV:   7    -0.658030753787E+03   -0.35648E-04   -0.88049E-04   468   0.232E-02
  45 F= -.67317180E+03 E0= -.67310805E+03  d E =-.330580E-02
 trial-energy change:   -0.003306  1 .order   -0.003294   -0.003780   -0.002808
 step:   1.2128(harm=  1.2128)  dis= 0.01727  next Energy=  -673.175847 (dE=-0.735E-02)
 bond charge predicted
       N       E                     dE             d eps       ncg     rms          rms(c)
DAV:   1    -0.658030167126E+03    0.55101E-03   -0.24546E+00   600   0.182E+00    0.653E-01
DAV:   2    -0.658043239888E+03   -0.13073E-01   -0.10792E-01   852   0.496E-01    0.806E-01
DAV:   3    -0.658067985383E+03   -0.24745E-01   -0.10903E-01   924   0.373E-01    0.342E+00
DAV:   4    -0.658049206298E+03    0.18779E-01   -0.55647E-02   888   0.277E-01    0.659E-01
DAV:   5    -0.658041783077E+03    0.74232E-02   -0.61691E-03   852   0.888E-02    0.797E-01
DAV:   6    -0.658038338340E+03    0.34447E-02   -0.27578E-03   756   0.691E-02    0.404E-01
DAV:   7    -0.658037575987E+03    0.76235E-03   -0.36109E-03   768   0.638E-02    0.503E-01
DAV:   8    -0.658036799175E+03    0.77681E-03   -0.16785E-03   660   0.424E-02    0.201E-01
DAV:   9    -0.658036597276E+03    0.20190E-03   -0.21788E-03   516   0.330E-02    0.316E-01
DAV:  10    -0.658036251997E+03    0.34528E-03   -0.14026E-03   384   0.249E-02    0.121E-01
DAV:  11    -0.658036225105E+03    0.26892E-04   -0.90569E-04   396   0.203E-02
  46 F= -.67317504E+03 E0= -.67311170E+03  d E =-.654928E-02
 curvature:  -2.47 expect dE=-0.490E-01 dE for cont linesearch -0.617E-04
 trial: gam= 1.53164 g(F)=  0.199E-01 g(S)=  0.000E+00 ort =-0.111E-02 (trialstep = 0.184E+00)
 search vector abs. value=  0.132E+00
 bond charge predicted
       N       E                     dE             d eps       ncg     rms          rms(c)
DAV:   1    -0.658038419411E+03   -0.21674E-02   -0.28378E-01   600   0.657E-01    0.264E-01
DAV:   2    -0.658042459396E+03   -0.40400E-02   -0.20231E-02   876   0.200E-01    0.653E-01
DAV:   3    -0.658042473016E+03   -0.13621E-04   -0.24413E-02   828   0.160E-01    0.856E-01
DAV:   4    -0.658040610569E+03    0.18624E-02   -0.83847E-03   768   0.995E-02    0.359E-01
DAV:   5    -0.658039602728E+03    0.10078E-02   -0.74144E-04   504   0.337E-02    0.285E-01
DAV:   6    -0.658039166696E+03    0.43603E-03   -0.34455E-04   444   0.240E-02    0.107E-01
DAV:   7    -0.658039390680E+03   -0.22398E-03   -0.35464E-04   480   0.243E-02    0.282E-01
DAV:   8    -0.658039091944E+03    0.29874E-03   -0.42696E-04   372   0.192E-02    0.717E-02
DAV:   9    -0.658039094344E+03   -0.24004E-05   -0.32263E-04   384   0.147E-02
  47 F= -.67317751E+03 E0= -.67311424E+03  d E =-.246983E-02
 trial-energy change:   -0.002470  1 .order   -0.002674   -0.003335   -0.002013
 step:   0.4633(harm=  0.4633)  dis= 0.01055  next Energy=  -673.179251 (dE=-0.421E-02)
 bond charge predicted
       N       E                     dE             d eps       ncg     rms          rms(c)
DAV:   1    -0.658039438587E+03   -0.34664E-03   -0.65754E-01   600   0.100E+00    0.369E-01
DAV:   2    -0.658048357866E+03   -0.89193E-02   -0.45827E-02   876   0.306E-01    0.856E-01
DAV:   3    -0.658044929030E+03    0.34288E-02   -0.45582E-02   900   0.225E-01    0.912E-01
DAV:   4    -0.658043830977E+03    0.10981E-02   -0.12445E-02   792   0.121E-01    0.507E-01
DAV:   5    -0.658042238798E+03    0.15922E-02   -0.11390E-03   636   0.434E-02    0.407E-01
DAV:   6    -0.658041191919E+03    0.10469E-02   -0.11006E-03   564   0.419E-02    0.158E-01
DAV:   7    -0.658041446912E+03   -0.25499E-03   -0.11329E-03   600   0.301E-02    0.350E-01
DAV:   8    -0.658041008211E+03    0.43870E-03   -0.82499E-04   456   0.264E-02    0.881E-02
DAV:   9    -0.658040978147E+03    0.30065E-04   -0.59184E-04   396   0.193E-02
  48 F= -.67317879E+03 E0= -.67311519E+03  d E =-.374927E-02
 curvature:  -1.69 expect dE=-0.244E-01 dE for cont linesearch -0.923E-07
 trial: gam= 0.60977 g(F)=  0.145E-01 g(S)=  0.000E+00 ort =-0.851E-04 (trialstep = 0.240E+00)
 search vector abs. value=  0.636E-01
 bond charge predicted
       N       E                     dE             d eps       ncg     rms          rms(c)
DAV:   1    -0.658043174209E+03   -0.21660E-02   -0.24923E-01   600   0.627E-01    0.189E-01
DAV:   2    -0.658046236396E+03   -0.30622E-02   -0.14341E-02   876   0.167E-01    0.513E-01
DAV:   3    -0.658044489093E+03    0.17473E-02   -0.12376E-02   816   0.125E-01    0.404E-01
DAV:   4    -0.658043979835E+03    0.50926E-03   -0.11447E-03   624   0.437E-02    0.208E-01
DAV:   5    -0.658043887519E+03    0.92316E-04   -0.28465E-04   540   0.215E-02
  49 F= -.67318158E+03 E0= -.67312001E+03  d E =-.278240E-02
 trial-energy change:   -0.002782  1 .order   -0.002749   -0.003459   -0.002039
 step:   0.5835(harm=  0.5835)  dis= 0.00943  next Energy=  -673.183006 (dE=-0.421E-02)
 bond charge predicted
       N       E                     dE             d eps       ncg     rms          rms(c)
DAV:   1    -0.658044284946E+03   -0.30511E-03   -0.51127E-01   600   0.902E-01    0.284E-01
DAV:   2    -0.658050115814E+03   -0.58309E-02   -0.27889E-02   876   0.231E-01    0.647E-01
DAV:   3    -0.658046470656E+03    0.36452E-02   -0.26305E-02   888   0.182E-01    0.528E-01
DAV:   4    -0.658045998484E+03    0.47217E-03   -0.56794E-03   768   0.842E-02    0.322E-01
DAV:   5    -0.658045335847E+03    0.66264E-03   -0.12621E-03   624   0.320E-02    0.191E-01
DAV:   6    -0.658045325232E+03    0.10615E-04   -0.20433E-03   600   0.342E-02    0.207E-01
DAV:   7    -0.658045295355E+03    0.29877E-04   -0.27155E-03   540   0.238E-02    0.186E-01
DAV:   8    -0.658045128569E+03    0.16679E-03   -0.20203E-03   432   0.244E-02    0.106E-01
DAV:   9    -0.658045111147E+03    0.17421E-04   -0.13774E-03   384   0.158E-02    0.868E-02
DAV:  10    -0.658045072600E+03    0.38547E-04   -0.79447E-04   384   0.129E-02
  50 F= -.67318258E+03 E0= -.67312044E+03  d E =-.379053E-02
 curvature:  -1.28 expect dE=-0.138E-01 dE for cont linesearch -0.127E-04
 trial: gam= 0.79564 g(F)=  0.107E-01 g(S)=  0.000E+00 ort =-0.792E-03 (trialstep = 0.308E+00)
 search vector abs. value=  0.497E-01
 bond charge predicted
       N       E                     dE             d eps       ncg     rms          rms(c)
DAV:   1    -0.658046976791E+03   -0.18656E-02   -0.29324E-01   600   0.647E-01    0.196E-01
DAV:   2    -0.658048213009E+03   -0.12362E-02   -0.10324E-02   876   0.146E-01    0.308E-01
DAV:   3    -0.658050033585E+03   -0.18206E-02   -0.10350E-02   804   0.105E-01    0.756E-01
DAV:   4    -0.658048118647E+03    0.19149E-02   -0.46790E-03   732   0.801E-02    0.223E-01
DAV:   5    -0.658047749533E+03    0.36911E-03   -0.31728E-04   492   0.229E-02    0.171E-01
DAV:   6    -0.658047633187E+03    0.11635E-03   -0.28253E-04   480   0.215E-02    0.106E-01
DAV:   7    -0.658047647826E+03   -0.14639E-04   -0.40543E-04   468   0.174E-02
  51 F= -.67318530E+03 E0= -.67312183E+03  d E =-.271163E-02
 trial-energy change:   -0.002712  1 .order   -0.002637   -0.003109   -0.002164
 step:   1.0151(harm=  1.0151)  dis= 0.01544  next Energy=  -673.187701 (dE=-0.512E-02)
 bond charge predicted
       N       E                     dE             d eps       ncg     rms          rms(c)
DAV:   1    -0.658046782110E+03    0.85108E-03   -0.15381E+00   600   0.148E+00    0.462E-01
DAV:   2    -0.658054664688E+03   -0.78826E-02   -0.59579E-02   840   0.354E-01    0.695E-01
DAV:   3    -0.658060497180E+03   -0.58325E-02   -0.60115E-02   936   0.259E-01    0.180E+00
DAV:   4    -0.658053911594E+03    0.65856E-02   -0.22136E-02   852   0.171E-01    0.522E-01
DAV:   5    -0.658051189258E+03    0.27223E-02   -0.17831E-03   780   0.499E-02    0.425E-01
DAV:   6    -0.658050158660E+03    0.10306E-02   -0.15675E-03   672   0.460E-02    0.270E-01
DAV:   7    -0.658050196055E+03   -0.37395E-04   -0.29610E-03   732   0.473E-02    0.315E-01
DAV:   8    -0.658049882998E+03    0.31306E-03   -0.21855E-03   552   0.381E-02    0.182E-01
DAV:   9    -0.658049696021E+03    0.18698E-03   -0.18734E-03   480   0.273E-02    0.139E-01
DAV:  10    -0.658049639722E+03    0.56298E-04   -0.12452E-03   396   0.188E-02    0.943E-02
DAV:  11    -0.658049593726E+03    0.45996E-04   -0.92100E-04   384   0.143E-02
  52 F= -.67318757E+03 E0= -.67312497E+03  d E =-.498514E-02
 curvature:  -2.50 expect dE=-0.298E-01 dE for cont linesearch -0.401E-05
 trial: gam= 1.00188 g(F)=  0.119E-01 g(S)=  0.000E+00 ort =-0.282E-03 (trialstep = 0.365E+00)
 search vector abs. value=  0.612E-01
 bond charge predicted
       N       E                     dE             d eps       ncg     rms          rms(c)
DAV:   1    -0.658051257292E+03   -0.16176E-02   -0.46374E-01   600   0.849E-01    0.280E-01
DAV:   2    -0.658053353331E+03   -0.20960E-02   -0.22255E-02   876   0.203E-01    0.410E-01
DAV:   3    -0.658057057714E+03   -0.37044E-02   -0.23968E-02   864   0.125E-01    0.107E+00
DAV:   4    -0.658053967441E+03    0.30903E-02   -0.14686E-02   780   0.117E-01    0.358E-01
DAV:   5    -0.658052871105E+03    0.10963E-02   -0.14157E-03   600   0.350E-02    0.265E-01
DAV:   6    -0.658052539490E+03    0.33162E-03   -0.99078E-04   444   0.240E-02    0.143E-01
DAV:   7    -0.658052616329E+03   -0.76839E-04   -0.53759E-04   552   0.289E-02
  53 F= -.67319046E+03 E0= -.67312586E+03  d E =-.289013E-02
 trial-energy change:   -0.002890  1 .order   -0.002682   -0.004239   -0.001125
 step:   0.4970(harm=  0.4970)  dis= 0.00847  next Energy=  -673.190454 (dE=-0.289E-02)
 bond charge predicted
       N       E                     dE             d eps       ncg     rms          rms(c)
DAV:   1    -0.658052475938E+03    0.63553E-04   -0.60204E-02   600   0.308E-01    0.124E-01
DAV:   2    -0.658053671684E+03   -0.11957E-02   -0.66470E-03   900   0.104E-01    0.385E-01
DAV:   3    -0.658053064182E+03    0.60750E-03   -0.68764E-03   768   0.794E-02    0.305E-01
DAV:   4    -0.658052663375E+03    0.40081E-03   -0.17643E-03   540   0.413E-02    0.119E-01
DAV:   5    -0.658052596704E+03    0.66671E-04   -0.94013E-04   372   0.126E-02
  54 F= -.67319039E+03 E0= -.67312820E+03  d E =-.282451E-02
 curvature:  -1.31 expect dE=-0.105E-01 dE for cont linesearch -0.138E-06
 trial: gam= 0.67149 g(F)=  0.804E-02 g(S)=  0.000E+00 ort = 0.803E-04 (trialstep = 0.391E+00)
 search vector abs. value=  0.357E-01
 bond charge predicted
       N       E                     dE             d eps       ncg     rms          rms(c)
DAV:   1    -0.658054582477E+03   -0.19191E-02   -0.30509E-01   600   0.710E-01    0.259E-01
DAV:   2    -0.658056013661E+03   -0.14312E-02   -0.13478E-02   888   0.181E-01    0.366E-01
DAV:   3    -0.658059281138E+03   -0.32675E-02   -0.16561E-02   852   0.134E-01    0.620E-01
DAV:   4    -0.658055772493E+03    0.35086E-02   -0.92848E-03   780   0.998E-02    0.191E-01
DAV:   5    -0.658055582532E+03    0.18996E-03   -0.97330E-04   528   0.238E-02    0.172E-01
DAV:   6    -0.658055459823E+03    0.12271E-03   -0.12497E-03   480   0.224E-02    0.112E-01
DAV:   7    -0.658055563912E+03   -0.10409E-03   -0.17147E-03   516   0.260E-02    0.182E-01
DAV:   8    -0.658055408639E+03    0.15527E-03   -0.13731E-03   468   0.266E-02    0.687E-02
DAV:   9    -0.658055395020E+03    0.13619E-04   -0.91174E-04   384   0.143E-02
  55 F= -.67319242E+03 E0= -.67313039E+03  d E =-.202765E-02
 trial-energy change:   -0.002028  1 .order   -0.002110   -0.003170   -0.001050
 step:   0.5855(harm=  0.5855)  dis= 0.00774  next Energy=  -673.192764 (dE=-0.237E-02)
 bond charge predicted
       N       E                     dE             d eps       ncg     rms          rms(c)
DAV:   1    -0.658055792536E+03   -0.38390E-03   -0.75664E-02   600   0.352E-01    0.142E-01
DAV:   2    -0.658056215805E+03   -0.42327E-03   -0.50230E-03   888   0.914E-02    0.222E-01
DAV:   3    -0.658056775117E+03   -0.55931E-03   -0.59745E-03   708   0.536E-02    0.330E-01
DAV:   4    -0.658056369078E+03    0.40604E-03   -0.40210E-03   624   0.578E-02    0.239E-01
DAV:   5    -0.658056109260E+03    0.25982E-03   -0.74658E-04   456   0.258E-02    0.123E-01
DAV:   6    -0.658056031755E+03    0.77505E-04   -0.17093E-04   408   0.123E-02
  56 F= -.67319268E+03 E0= -.67313079E+03  d E =-.228416E-02
 curvature:  -1.29 expect dE=-0.690E-02 dE for cont linesearch -0.919E-06
 trial: gam= 0.61404 g(F)=  0.534E-02 g(S)=  0.000E+00 ort = 0.159E-03 (trialstep = 0.430E+00)
 search vector abs. value=  0.190E-01
 bond charge predicted
       N       E                     dE             d eps       ncg     rms          rms(c)
DAV:   1    -0.658057719191E+03   -0.16099E-02   -0.20783E-01   600   0.539E-01    0.179E-01
DAV:   2    -0.658058324573E+03   -0.60538E-03   -0.73247E-03   888   0.131E-01    0.151E-01
DAV:   3    -0.658059142687E+03   -0.81811E-03   -0.29894E-03   744   0.573E-02    0.367E-01
DAV:   4    -0.658058501907E+03    0.64078E-03   -0.32465E-03   708   0.605E-02    0.204E-01
DAV:   5    -0.658058499345E+03    0.25619E-05   -0.87061E-04   540   0.369E-02
  57 F= -.67319427E+03 E0= -.67313477E+03  d E =-.159022E-02
 trial-energy change:   -0.001590  1 .order   -0.001460   -0.002340   -0.000580
 step:   0.5721(harm=  0.5721)  dis= 0.00498  next Energy=  -673.194233 (dE=-0.156E-02)
 bond charge predicted
       N       E                     dE             d eps       ncg     rms          rms(c)
DAV:   1    -0.658058722678E+03   -0.22077E-03   -0.22494E-02   600   0.178E-01    0.176E-01
DAV:   2    -0.658071756052E+03   -0.13033E-01   -0.22087E-02   888   0.169E-01    0.200E+00
DAV:   3    -0.658061416086E+03    0.10340E-01   -0.20384E-02   828   0.158E-01    0.402E-01
DAV:   4    -0.658058860464E+03    0.25556E-02   -0.17534E-03   600   0.413E-02    0.153E-01
[...]
DAV:   8    -0.658121810930E+03    0.91545E-05   -0.15753E-03   348   0.161E-02    0.134E-01
DAV:   9    -0.658121745111E+03    0.65818E-04   -0.11391E-03   348   0.117E-02    0.406E-02
DAV:  10    -0.658121740929E+03    0.41826E-05   -0.49912E-04   348   0.940E-03
 252 F= -.67324324E+03 E0= -.67318037E+03  d E =-.781830E-03
 curvature:  -0.21 expect dE=-0.844E-03 dE for cont linesearch -0.107E-05
 trial: gam= 0.77866 g(F)=  0.407E-02 g(S)=  0.000E+00 ort =-0.588E-03 (trialstep = 0.223E+00)
 search vector abs. value=  0.437E-01
 bond charge predicted
       N       E                     dE             d eps       ncg     rms          rms(c)
DAV:   1    -0.658122051491E+03   -0.30638E-03   -0.12787E-01   600   0.421E-01    0.121E-01
DAV:   2    -0.658122764409E+03   -0.71292E-03   -0.41158E-03   888   0.939E-02    0.273E-01
DAV:   3    -0.658123026412E+03   -0.26200E-03   -0.41050E-03   720   0.687E-02    0.394E-01
DAV:   4    -0.658122361966E+03    0.66445E-03   -0.16050E-03   492   0.458E-02    0.119E-01
DAV:   5    -0.658122245503E+03    0.11646E-03   -0.27192E-04   384   0.139E-02    0.694E-02
DAV:   6    -0.658122235417E+03    0.10086E-04   -0.41130E-04   348   0.104E-02
 253 F= -.67324378E+03 E0= -.67318101E+03  d E =-.535912E-03
 trial-energy change:   -0.000536  1 .order   -0.000576   -0.000805   -0.000347
 step:   0.3919(harm=  0.3919)  dis= 0.00325  next Energy=  -673.243949 (dE=-0.707E-03)
 bond charge predicted
       N       E                     dE             d eps       ncg     rms          rms(c)
DAV:   1    -0.658122196305E+03    0.49197E-04   -0.72699E-02   600   0.318E-01    0.110E-01
DAV:   2    -0.658123041709E+03   -0.84540E-03   -0.65055E-03   816   0.792E-02    0.349E-01
DAV:   3    -0.658122875523E+03    0.16619E-03   -0.77224E-03   708   0.672E-02    0.326E-01
DAV:   4    -0.658122472664E+03    0.40286E-03   -0.24444E-03   492   0.422E-02    0.151E-01
DAV:   5    -0.658122374768E+03    0.97897E-04   -0.89037E-04   360   0.123E-02
 254 F= -.67324395E+03 E0= -.67318190E+03  d E =-.707225E-03
 curvature:  -2.37 expect dE=-0.511E-02 dE for cont linesearch -0.338E-05
 trial: gam= 0.43196 g(F)=  0.215E-02 g(S)=  0.000E+00 ort =-0.249E-03 (trialstep = 0.257E+00)
 search vector abs. value=  0.101E-01
 bond charge predicted
       N       E                     dE             d eps       ncg     rms          rms(c)
DAV:   1    -0.658122669830E+03   -0.19717E-03   -0.44037E-02   600   0.260E-01    0.113E-01
DAV:   2    -0.658123135193E+03   -0.46536E-03   -0.66660E-03   804   0.579E-02    0.307E-01
DAV:   3    -0.658123156515E+03   -0.21323E-04   -0.85083E-03   576   0.355E-02    0.236E-01
DAV:   4    -0.658122992398E+03    0.16412E-03   -0.41288E-03   480   0.406E-02    0.217E-01
DAV:   5    -0.658122773092E+03    0.21931E-03   -0.15682E-03   384   0.212E-02    0.906E-02
DAV:   6    -0.658122739658E+03    0.33433E-04   -0.52876E-04   372   0.108E-02
 255 F= -.67324426E+03 E0= -.67318171E+03  d E =-.315445E-03
 trial-energy change:   -0.000315  1 .order   -0.000365   -0.000526   -0.000205
 step:   0.4206(harm=  0.4206)  dis= 0.00179  next Energy=  -673.244380 (dE=-0.430E-03)
 bond charge predicted
       N       E                     dE             d eps       ncg     rms          rms(c)
DAV:   1    -0.658122788287E+03   -0.15196E-04   -0.17812E-02   612   0.165E-01    0.924E-02
DAV:   2    -0.658123152148E+03   -0.36386E-03   -0.41249E-03   624   0.355E-02    0.273E-01
DAV:   3    -0.658122998782E+03    0.15337E-03   -0.52686E-03   444   0.242E-02    0.134E-01
DAV:   4    -0.658122939584E+03    0.59198E-04   -0.28887E-03   396   0.215E-02    0.150E-01
DAV:   5    -0.658122807307E+03    0.13228E-03   -0.14242E-03   372   0.164E-02    0.441E-02
DAV:   6    -0.658122798232E+03    0.90755E-05   -0.60778E-04   348   0.959E-03
 256 F= -.67324429E+03 E0= -.67318122E+03  d E =-.342768E-03
 curvature:  -1.04 expect dE=-0.134E-02 dE for cont linesearch -0.598E-06
 trial: gam= 0.61334 g(F)=  0.129E-02 g(S)=  0.000E+00 ort =-0.763E-04 (trialstep = 0.290E+00)
 search vector abs. value=  0.500E-02
 bond charge predicted
       N       E                     dE             d eps       ncg     rms          rms(c)
DAV:   1    -0.658122997266E+03   -0.18996E-03   -0.28703E-02   600   0.205E-01    0.693E-02
DAV:   2    -0.658123225030E+03   -0.22776E-03   -0.25789E-03   660   0.482E-02    0.202E-01
DAV:   3    -0.658123233902E+03   -0.88720E-05   -0.28114E-03   468   0.309E-02    0.168E-01
DAV:   4    -0.658123130628E+03    0.10327E-03   -0.12819E-03   420   0.260E-02    0.119E-01
DAV:   5    -0.658123051995E+03    0.78634E-04   -0.39299E-04   348   0.123E-02
 257 F= -.67324454E+03 E0= -.67318170E+03  d E =-.245406E-03
 trial-energy change:   -0.000245  1 .order   -0.000271   -0.000361   -0.000180
 step:   0.5771(harm=  0.5771)  dis= 0.00163  next Energy=  -673.244652 (dE=-0.360E-03)
 bond charge predicted
       N       E                     dE             d eps       ncg     rms          rms(c)
DAV:   1    -0.658123024290E+03    0.10634E-03   -0.27680E-02   600   0.203E-01    0.603E-02
DAV:   2    -0.658123361471E+03   -0.33718E-03   -0.13477E-03   696   0.548E-02    0.214E-01
DAV:   3    -0.658123087114E+03    0.27436E-03   -0.92692E-04   552   0.365E-02    0.813E-02
DAV:   4    -0.658123067544E+03    0.19570E-04   -0.85707E-05   348   0.131E-02
 258 F= -.67324455E+03 E0= -.67318239E+03  d E =-.253002E-03
 curvature:  -1.16 expect dE=-0.155E-02 dE for cont linesearch -0.244E-04
 ZBRENT: interpolating
 opt :   0.4785  next Energy=  -673.244561 (dE=-0.269E-03)
 bond charge predicted
       N       E                     dE             d eps       ncg     rms          rms(c)
DAV:   1    -0.658123070885E+03    0.16229E-04   -0.34955E-03   576   0.708E-02    0.536E-02
DAV:   2    -0.658123864533E+03   -0.79365E-03   -0.17620E-03   564   0.466E-02    0.396E-01
DAV:   3    -0.658123220638E+03    0.64390E-03   -0.19573E-03   492   0.481E-02    0.125E-01
DAV:   4    -0.658123075874E+03    0.14476E-03   -0.15576E-04   348   0.128E-02    0.374E-02
DAV:   5    -0.658123070418E+03    0.54558E-05   -0.11315E-04   324   0.709E-03
 259 F= -.67324455E+03 E0= -.67318206E+03  d E =-.258563E-03
 curvature:  -0.76 expect dE=-0.739E-03 dE for cont linesearch -0.205E-05
 trial: gam= 0.85295 g(F)=  0.974E-03 g(S)=  0.000E+00 ort =-0.116E-03 (trialstep = 0.327E+00)
 search vector abs. value=  0.441E-02
 bond charge predicted
       N       E                     dE             d eps       ncg     rms          rms(c)
DAV:   1    -0.658123269184E+03   -0.19331E-03   -0.27838E-02   600   0.201E-01    0.670E-02
DAV:   2    -0.658123438375E+03   -0.16919E-03   -0.68221E-04   564   0.419E-02    0.164E-01
DAV:   3    -0.658123498285E+03   -0.59910E-04   -0.45082E-04   432   0.257E-02
 260 F= -.67324494E+03 E0= -.67317992E+03  d E =-.390510E-03
 trial-energy change:   -0.000391  1 .order   -0.000214   -0.000286   -0.000141
 step:   0.6463(harm=  0.6463)  dis= 0.00168  next Energy=  -673.244833 (dE=-0.283E-03)
 bond charge predicted
       N       E                     dE             d eps       ncg     rms          rms(c)
DAV:   1    -0.658123392430E+03    0.45945E-04   -0.26785E-02   612   0.199E-01    0.102E-01
DAV:   2    -0.658128269481E+03   -0.48771E-02   -0.69147E-03   792   0.949E-02    0.115E+00
DAV:   3    -0.658124389682E+03    0.38798E-02   -0.71647E-03   744   0.938E-02    0.216E-01
DAV:   4    -0.658123730693E+03    0.65899E-03   -0.59128E-04   492   0.309E-02    0.240E-01
DAV:   5    -0.658123444179E+03    0.28651E-03   -0.20527E-04   396   0.199E-02    0.511E-02
DAV:   6    -0.658123447138E+03   -0.29595E-05   -0.12691E-04   336   0.125E-02
 261 F= -.67324485E+03 E0= -.67318171E+03  d E =-.303232E-03
 curvature:  -1.63 expect dE=-0.140E-02 dE for cont linesearch -0.962E-06
 trial: gam= 1.08789 g(F)=  0.858E-03 g(S)=  0.000E+00 ort =-0.510E-04 (trialstep = 0.289E+00)
 search vector abs. value=  0.597E-02
 bond charge predicted
       N       E                     dE             d eps       ncg     rms          rms(c)
DAV:   1    -0.658123412589E+03    0.31590E-04   -0.28338E-02   600   0.207E-01    0.637E-02
DAV:   2    -0.658123797755E+03   -0.38517E-03   -0.15418E-03   732   0.542E-02    0.225E-01
DAV:   3    -0.658123499077E+03    0.29868E-03   -0.12487E-03   480   0.403E-02    0.111E-01
DAV:   4    -0.658123454335E+03    0.44742E-04   -0.11771E-04   348   0.142E-02
 262 F= -.67324486E+03 E0= -.67318256E+03  d E =-.612544E-05
 trial-energy change:   -0.000006  1 .order   -0.000135   -0.000232   -0.000038
 step:   0.3450(harm=  0.3450)  dis= 0.00112  next Energy=  -673.244992 (dE=-0.139E-03)
 bond charge predicted
       N       E                     dE             d eps       ncg     rms          rms(c)
DAV:   1    -0.658123466016E+03    0.33061E-04   -0.11086E-03   576   0.410E-02    0.687E-02
DAV:   2    -0.658123647031E+03   -0.18102E-03   -0.32413E-04   360   0.166E-02    0.187E-01
DAV:   3    -0.658123577607E+03    0.69424E-04   -0.64035E-04   408   0.231E-02
 263 F= -.67324498E+03 E0= -.67318321E+03  d E =-.129209E-03
 curvature:  -1.28 expect dE=-0.871E-03 dE for cont linesearch -0.637E-05
 ZBRENT: increasing intervall
 opt :   0.4568  next Energy=  -673.245007 (dE=-0.153E-03)
 bond charge predicted
       N       E                     dE             d eps       ncg     rms          rms(c)
DAV:   1    -0.658123462397E+03    0.18463E-03   -0.46686E-03   612   0.831E-02    0.581E-02
DAV:   2    -0.658123652711E+03   -0.19031E-03   -0.11893E-03   468   0.229E-02    0.191E-01
DAV:   3    -0.658123568121E+03    0.84590E-04   -0.16333E-03   456   0.269E-02    0.120E-01
DAV:   4    -0.658123476000E+03    0.92120E-04   -0.65847E-04   384   0.180E-02
 264 F= -.67324488E+03 E0= -.67318253E+03  d E =-.272361E-04
 curvature:  -4.82 expect dE=-0.382E-02 dE for cont linesearch -0.317E-05
 trial: gam= 0.48812 g(F)=  0.793E-03 g(S)=  0.000E+00 ort =-0.626E-04 (trialstep = 0.323E+00)
 search vector abs. value=  0.215E-02
 bond charge predicted
       N       E                     dE             d eps       ncg     rms          rms(c)
DAV:   1    -0.658123526107E+03    0.42014E-04   -0.15138E-02   600   0.142E-01    0.767E-02
DAV:   2    -0.658124210191E+03   -0.68408E-03   -0.44019E-03   660   0.511E-02    0.375E-01
DAV:   3    -0.658123963979E+03    0.24621E-03   -0.53604E-03   612   0.559E-02    0.224E-01
DAV:   4    -0.658123620667E+03    0.34331E-03   -0.11485E-03   432   0.282E-02    0.105E-01
DAV:   5    -0.658123553723E+03    0.66944E-04   -0.41626E-04   348   0.103E-02
 265 F= -.67324505E+03 E0= -.67318245E+03  d E =-.165013E-03
 trial-energy change:   -0.000165  1 .order   -0.000179   -0.000246   -0.000113
 step:   0.5971(harm=  0.5971)  dis= 0.00133  next Energy=  -673.245109 (dE=-0.228E-03)
 bond charge predicted
       N       E                     dE             d eps       ncg     rms          rms(c)
DAV:   1    -0.658123468660E+03    0.15201E-03   -0.10331E-02   600   0.120E-01    0.484E-02
DAV:   2    -0.658123560453E+03   -0.91794E-04   -0.51729E-04   528   0.292E-02
 266 F= -.67324513E+03 E0= -.67318332E+03  d E =-.246193E-03
 curvature:  -0.84 expect dE=-0.812E-03 dE for cont linesearch -0.291E-05
 trial: gam= 1.18818 g(F)=  0.963E-03 g(S)=  0.000E+00 ort =-0.863E-04 (trialstep = 0.214E+00)
 search vector abs. value=  0.380E-02
 bond charge predicted
       N       E                     dE             d eps       ncg     rms          rms(c)
DAV:   1    -0.658123553797E+03   -0.85138E-04   -0.11574E-02   612   0.118E-01    0.972E-02
DAV:   2    -0.658126955474E+03   -0.34017E-02   -0.88828E-03   792   0.100E-01    0.603E-01
DAV:   3    -0.658123746593E+03    0.32089E-02   -0.78285E-03   744   0.932E-02    0.111E-01
DAV:   4    -0.658123652666E+03    0.93928E-04   -0.74400E-04   408   0.201E-02
 267 F= -.67324532E+03 E0= -.67318337E+03  d E =-.194347E-03
 ZBRENT: can't locate minimum, use default step
 trial-energy change:   -0.000194  1 .order   -0.000169   -0.000184   -0.000155
 step:   0.8563(harm=  1.3293)  dis= 0.00211  next Energy=  -673.245699 (dE=-0.572E-03)
 bond charge predicted
       N       E                     dE             d eps       ncg     rms          rms(c)
DAV:   1    -0.658123174968E+03    0.57163E-03   -0.10007E-01   600   0.350E-01    0.146E-01
DAV:   2    -0.658124188614E+03   -0.10136E-02   -0.51973E-03   924   0.909E-02    0.446E-01
DAV:   3    -0.658124331700E+03   -0.14309E-03   -0.66073E-03   720   0.766E-02    0.353E-01
DAV:   4    -0.658123437640E+03    0.89406E-03   -0.14148E-03   504   0.434E-02    0.140E-01
DAV:   5    -0.658123395267E+03    0.42373E-04   -0.22553E-04   420   0.165E-02
 268 F= -.67324537E+03 E0= -.67318281E+03  d E =-.243105E-03
 curvature:  -2.41 expect dE=-0.314E-02 dE for cont linesearch -0.425E-06
 trial: gam= 0.77995 g(F)=  0.130E-02 g(S)=  0.000E+00 ort = 0.259E-04 (trialstep = 0.343E+00)
 search vector abs. value=  0.365E-02
 bond charge predicted
       N       E                     dE             d eps       ncg     rms          rms(c)
DAV:   1    -0.658123242559E+03    0.19508E-03   -0.32426E-02   600   0.203E-01    0.780E-02
DAV:   2    -0.658123488001E+03   -0.24544E-03   -0.14851E-03   576   0.433E-02    0.201E-01
DAV:   3    -0.658123362826E+03    0.12517E-03   -0.77093E-04   360   0.168E-02    0.776E-02
DAV:   4    -0.658123358381E+03    0.44449E-05   -0.69738E-04   348   0.151E-02
 269 F= -.67324550E+03 E0= -.67318373E+03  d E =-.126209E-03
 trial-energy change:   -0.000126  1 .order   -0.000238   -0.000453   -0.000022
 step:   0.3603(harm=  0.3603)  dis= 0.00126  next Energy=  -673.245609 (dE=-0.239E-03)
 bond charge predicted
       N       E                     dE             d eps       ncg     rms          rms(c)
DAV:   1    -0.658123345590E+03    0.17236E-04   -0.69767E-04   456   0.211E-02    0.112E-01
DAV:   2    -0.658128754782E+03   -0.54092E-02   -0.15896E-02   780   0.132E-01    0.708E-01
DAV:   3    -0.658123599212E+03    0.51556E-02   -0.11433E-02   768   0.113E-01    0.146E-01
DAV:   4    -0.658123453086E+03    0.14613E-03   -0.75286E-04   420   0.203E-02    0.175E-01
DAV:   5    -0.658123314542E+03    0.13854E-03   -0.47309E-04   348   0.153E-02    0.466E-02
DAV:   6    -0.658123300290E+03    0.14253E-04   -0.27459E-04   348   0.130E-02
 270 F= -.67324545E+03 E0= -.67318300E+03  d E =-.766139E-04
 curvature:  -0.50 expect dE=-0.248E-03 dE for cont linesearch -0.687E-06
 trial: gam= 0.32871 g(F)=  0.499E-03 g(S)=  0.000E+00 ort =-0.710E-04 (trialstep = 0.346E+00)
 search vector abs. value=  0.847E-03
 bond charge predicted
       N       E                     dE             d eps       ncg     rms          rms(c)
DAV:   1    -0.658123329047E+03   -0.14504E-04   -0.74034E-03   600   0.111E-01    0.261E-02
DAV:   2    -0.658123362428E+03   -0.33381E-04   -0.24662E-04   528   0.247E-02
 271 F= -.67324554E+03 E0= -.67318215E+03  d E =-.905745E-04
 trial-energy change:   -0.000091  1 .order   -0.000113   -0.000165   -0.000062
 step:   0.5549(harm=  0.5549)  dis= 0.00080  next Energy=  -673.245579 (dE=-0.132E-03)
 bond charge predicted
       N       E                     dE             d eps       ncg     rms          rms(c)
DAV:   1    -0.658123334844E+03   -0.57977E-05   -0.27946E-03   588   0.691E-02    0.349E-02
DAV:   2    -0.658123560733E+03   -0.22589E-03   -0.47081E-04   456   0.264E-02    0.209E-01
DAV:   3    -0.658123373328E+03    0.18740E-03   -0.56558E-04   432   0.277E-02    0.706E-02
DAV:   4    -0.658123352497E+03    0.20832E-04   -0.45228E-05   324   0.853E-03
 272 F= -.67324554E+03 E0= -.67318290E+03  d E =-.978916E-04
 curvature:  -0.49 expect dE=-0.310E-03 dE for cont linesearch -0.291E-07
 trial: gam= 1.04819 g(F)=  0.627E-03 g(S)=  0.000E+00 ort = 0.706E-05 (trialstep = 0.209E+00)
 search vector abs. value=  0.157E-02
 bond charge predicted
       N       E                     dE             d eps       ncg     rms          rms(c)
DAV:   1    -0.658123410141E+03   -0.36812E-04   -0.50238E-03   576   0.831E-02    0.309E-02
DAV:   2    -0.658123440132E+03   -0.29992E-04   -0.30129E-04   456   0.183E-02
 273 F= -.67324565E+03 E0= -.67318367E+03  d E =-.101706E-03
 trial-energy change:   -0.000102  1 .order   -0.000101   -0.000133   -0.000070
 step:   0.4432(harm=  0.4432)  dis= 0.00125  next Energy=  -673.245685 (dE=-0.141E-03)
 bond charge predicted
       N       E                     dE             d eps       ncg     rms          rms(c)
DAV:   1    -0.658123497131E+03   -0.86990E-04   -0.67373E-03   612   0.953E-02    0.947E-02
DAV:   2    -0.658126194441E+03   -0.26973E-02   -0.63508E-03   756   0.851E-02    0.553E-01
DAV:   3    -0.658123745341E+03    0.24491E-02   -0.65567E-03   720   0.874E-02    0.141E-01
DAV:   4    -0.658123574634E+03    0.17071E-03   -0.43740E-04   408   0.192E-02    0.112E-01
DAV:   5    -0.658123508824E+03    0.65809E-04   -0.53131E-04   396   0.168E-02
 274 F= -.67324573E+03 E0= -.67318348E+03  d E =-.186106E-03
 curvature:  -0.55 expect dE=-0.213E-03 dE for cont linesearch -0.247E-04
 ZBRENT: increasing intervall
 opt :   0.9118  next Energy=  -673.245823 (dE=-0.278E-03)
 bond charge predicted
       N       E                     dE             d eps       ncg     rms          rms(c)
DAV:   1    -0.658123394687E+03    0.17995E-03   -0.25226E-02   612   0.186E-01    0.703E-02
DAV:   2    -0.658123941121E+03   -0.54643E-03   -0.20664E-03   684   0.500E-02    0.280E-01
DAV:   3    -0.658123530146E+03    0.41097E-03   -0.21166E-03   564   0.468E-02    0.135E-01
DAV:   4    -0.658123473161E+03    0.56985E-04   -0.23463E-04   348   0.175E-02
 275 F= -.67324573E+03 E0= -.67318398E+03  d E =-.181656E-03
 curvature:  -2.05 expect dE=-0.153E-02 dE for cont linesearch -0.152E-03
 ZBRENT: bracketing found
 ZBRENT: interpolating
 opt :   0.6483  next Energy=  -673.245758 (dE=-0.213E-03)
 bond charge predicted
       N       E                     dE             d eps       ncg     rms          rms(c)
DAV:   1    -0.658123482030E+03    0.48116E-04   -0.81490E-03   600   0.105E-01    0.653E-02
DAV:   2    -0.658125993943E+03   -0.25119E-02   -0.45101E-03   756   0.742E-02    0.769E-01
DAV:   3    -0.658123806051E+03    0.21879E-02   -0.39876E-03   672   0.699E-02    0.148E-01
DAV:   4    -0.658123495941E+03    0.31011E-03   -0.27561E-04   408   0.185E-02    0.517E-02
DAV:   5    -0.658123484346E+03    0.11595E-04   -0.19973E-04   348   0.106E-02
 276 F= -.67324572E+03 E0= -.67318346E+03  d E =-.175322E-03
 curvature:  -0.37 expect dE=-0.179E-03 dE for cont linesearch -0.363E-05
 ZBRENT: interpolating
 opt :   0.5828  next Energy=  -673.245724 (dE=-0.179E-03)
 bond charge predicted
       N       E                     dE             d eps       ncg     rms          rms(c)
DAV:   1    -0.658123466329E+03    0.29612E-04   -0.57703E-04   528   0.274E-02    0.256E-02
DAV:   2    -0.658123643057E+03   -0.17673E-03   -0.58914E-04   408   0.217E-02    0.181E-01
DAV:   3    -0.658123487675E+03    0.15538E-03   -0.61492E-04   420   0.240E-02    0.597E-02
DAV:   4    -0.658123466597E+03    0.21078E-04   -0.10354E-04   324   0.673E-03
 277 F= -.67324570E+03 E0= -.67318308E+03  d E =-.153209E-03
 curvature:  -0.41 expect dE=-0.167E-03 dE for cont linesearch -0.199E-06
 trial: gam= 0.29670 g(F)=  0.405E-03 g(S)=  0.000E+00 ort = 0.276E-04 (trialstep = 0.284E+00)
 search vector abs. value=  0.560E-03
 bond charge predicted
       N       E                     dE             d eps       ncg     rms          rms(c)
DAV:   1    -0.658123514258E+03   -0.26583E-04   -0.38102E-03   576   0.691E-02    0.237E-02
DAV:   2    -0.658123545986E+03   -0.31728E-04   -0.21981E-04   480   0.187E-02
 278 F= -.67324579E+03 E0= -.67318245E+03  d E =-.917954E-04
 trial-energy change:   -0.000092  1 .order   -0.000078   -0.000117   -0.000039
 step:   0.4259(harm=  0.4259)  dis= 0.00045  next Energy=  -673.245786 (dE=-0.880E-04)
 reached required accuracy - stopping structural energy minimisation
