  93  93   0   0
  0.3967126E+02  0.9570947E-09  0.1276126E-08  0.3488026E-08  0.5000000E-15
  1.000000000000000E-004
  CAR 
 basalPlane                              
      2.54153223    -20.65425450  301      0.28488661      1.00000000
    -20.654  0.0000E+00  0.0000E+00
    -20.577  0.0000E+00  0.0000E+00
    -20.500  0.0000E+00  0.0000E+00
    -20.422  0.0000E+00  0.0000E+00
    -20.345  0.0000E+00  0.0000E+00
    -20.268  0.0000E+00  0.0000E+00
    -20.190  0.1436E-18  0.1110E-19
    -20.113  0.5132E-15  0.3969E-16
    -20.036  0.9219E-12  0.7132E-13
    -19.958  0.5145E-09  0.3985E-10
    -19.881  0.9004E-07  0.7002E-08
    -19.804  0.5008E-05  0.3942E-06
    -19.726  0.9005E-04  0.7357E-05
    -19.649  0.5341E-03  0.4865E-04
    -19.572  0.1064E-02  0.1309E-03
    -19.494  0.7178E-03  0.1864E-03
    -19.417  0.1642E-03  0.1991E-03
    -19.340  0.4225E-04  0.2024E-03
    -19.263  0.2852E-03  0.2244E-03
    -19.185  0.9043E-03  0.2943E-03
    -19.108  0.9700E-03  0.3693E-03
    -19.031  0.3520E-03  0.3966E-03
    -18.953  0.4270E-04  0.3999E-03
    -18.876  0.1698E-05  0.4000E-03
    -18.799  0.2171E-07  0.4000E-03
    -18.721  0.8784E-10  0.4000E-03
    -18.644  0.1111E-12  0.4000E-03
    -18.567  0.4365E-16  0.4000E-03
    -18.489  0.0000E+00  0.4000E-03
    -18.412  0.0000E+00  0.4000E-03
    -18.335  0.0000E+00  0.4000E-03
    -18.257  0.0000E+00  0.4000E-03
    -18.180  0.0000E+00  0.4000E-03
    -18.103  0.0000E+00  0.4000E-03
    -18.025  0.0000E+00  0.4000E-03
    -17.948  0.0000E+00  0.4000E-03
    -17.871  0.0000E+00  0.4000E-03
    -17.793  0.0000E+00  0.4000E-03
    -17.716  0.0000E+00  0.4000E-03
    -17.639  0.0000E+00  0.4000E-03
    -17.561  0.0000E+00  0.4000E-03
    -17.484  0.0000E+00  0.4000E-03
    -17.407  0.0000E+00  0.4000E-03
    -17.330  0.0000E+00  0.4000E-03
    -17.252  0.0000E+00  0.4000E-03
    -17.175  0.0000E+00  0.4000E-03
    -17.098  0.0000E+00  0.4000E-03
    -17.020  0.0000E+00  0.4000E-03
    -16.943  0.0000E+00  0.4000E-03
    -16.866  0.0000E+00  0.4000E-03
    -16.788  0.0000E+00  0.4000E-03
    -16.711  0.0000E+00  0.4000E-03
    -16.634  0.0000E+00  0.4000E-03
    -16.556  0.0000E+00  0.4000E-03
    -16.479  0.0000E+00  0.4000E-03
    -16.402  0.0000E+00  0.4000E-03
    -16.324  0.0000E+00  0.4000E-03
    -16.247  0.0000E+00  0.4000E-03
    -16.170  0.2297E-17  0.4000E-03
    -16.092  0.8812E-14  0.4000E-03
    -16.015  0.1040E-10  0.4000E-03
    -15.938  0.3839E-08  0.4000E-03
    -15.860  0.4507E-06  0.4000E-03
    -15.783  0.1728E-04  0.4014E-03
    -15.706  0.2260E-03  0.4188E-03
    -15.629  0.1071E-02  0.5016E-03
    -15.551  0.1960E-02  0.6532E-03
    -15.474  0.1438E-02  0.7644E-03
    -15.397  0.4147E-03  0.7964E-03
    -15.319  0.4427E-04  0.7999E-03
    -15.242  0.1642E-05  0.8000E-03
    -15.165  0.3679E-06  0.8000E-03
    -15.087  0.1960E-04  0.8015E-03
    -15.010  0.3652E-03  0.8298E-03
    -14.933  0.2370E-02  0.1013E-02
    -14.855  0.5928E-02  0.1471E-02
    -14.778  0.6767E-02  0.1995E-02
    -14.701  0.4047E-02  0.2307E-02
    -14.623  0.1745E-02  0.2442E-02
    -14.546  0.2691E-02  0.2650E-02
    -14.469  0.4533E-02  0.3001E-02
    -14.391  0.5362E-02  0.3416E-02
    -14.314  0.6395E-02  0.3910E-02
    -14.237  0.4701E-02  0.4274E-02
    -14.159  0.1529E-02  0.4392E-02
    -14.082  0.8936E-03  0.4461E-02
    -14.005  0.2990E-02  0.4692E-02
    -13.927  0.6342E-02  0.5182E-02
    -13.850  0.1067E-01  0.6008E-02
    -13.773  0.1373E-01  0.7069E-02
    -13.696  0.1060E-01  0.7889E-02
    -13.618  0.7576E-02  0.8474E-02
    -13.541  0.8795E-02  0.9155E-02
    -13.464  0.9396E-02  0.9881E-02
    -13.386  0.7223E-02  0.1044E-01
    -13.309  0.3638E-02  0.1072E-01
    -13.232  0.9265E-03  0.1079E-01
    -13.154  0.9500E-04  0.1080E-01
    -13.077  0.3469E-05  0.1080E-01
    -13.000  0.4230E-07  0.1080E-01
    -12.922  0.1662E-09  0.1080E-01
    -12.845  0.2058E-12  0.1080E-01
    -12.768  0.7926E-16  0.1080E-01
    -12.690  0.0000E+00  0.1080E-01
    -12.613  0.0000E+00  0.1080E-01
    -12.536  0.0000E+00  0.1080E-01
    -12.458  0.0000E+00  0.1080E-01
    -12.381  0.0000E+00  0.1080E-01
    -12.304  0.0000E+00  0.1080E-01
    -12.226  0.0000E+00  0.1080E-01
    -12.149  0.0000E+00  0.1080E-01
    -12.072  0.0000E+00  0.1080E-01
    -11.994  0.0000E+00  0.1080E-01
    -11.917  0.0000E+00  0.1080E-01
    -11.840  0.0000E+00  0.1080E-01
    -11.763  0.0000E+00  0.1080E-01
    -11.685  0.0000E+00  0.1080E-01
    -11.608  0.0000E+00  0.1080E-01
    -11.531  0.0000E+00  0.1080E-01
    -11.453  0.0000E+00  0.1080E-01
    -11.376  0.0000E+00  0.1080E-01
    -11.299  0.0000E+00  0.1080E-01
    -11.221  0.1407E-16  0.1080E-01
    -11.144  0.4220E-13  0.1080E-01
    -11.067  0.3924E-10  0.1080E-01
    -10.989  0.1148E-07  0.1080E-01
    -10.912  0.1077E-05  0.1080E-01
    -10.835  0.3339E-04  0.1080E-01
    -10.757  0.3569E-03  0.1083E-01
    -10.680  0.1383E-02  0.1094E-01
    -10.603  0.2068E-02  0.1110E-01
    -10.525  0.1653E-02  0.1122E-01
    -10.448  0.2278E-02  0.1140E-01
    -10.371  0.3066E-02  0.1164E-01
    -10.293  0.1720E-02  0.1177E-01
    -10.216  0.4024E-03  0.1180E-01
    -10.139  0.4153E-03  0.1183E-01
    -10.062  0.9996E-03  0.1191E-01
     -9.984  0.8654E-03  0.1198E-01
     -9.907  0.2532E-03  0.1200E-01
     -9.830  0.2468E-04  0.1200E-01
     -9.752  0.7856E-06  0.1200E-01
     -9.675  0.8011E-08  0.1200E-01
     -9.598  0.2578E-10  0.1200E-01
     -9.520  0.2588E-13  0.1200E-01
     -9.443  0.8041E-17  0.1200E-01
     -9.366  0.0000E+00  0.1200E-01
     -9.288  0.0000E+00  0.1200E-01
     -9.211  0.0000E+00  0.1200E-01
     -9.134  0.0000E+00  0.1200E-01
     -9.056  0.0000E+00  0.1200E-01
     -8.979  0.0000E+00  0.1200E-01
     -8.902  0.0000E+00  0.1200E-01
     -8.824  0.0000E+00  0.1200E-01
     -8.747  0.0000E+00  0.1200E-01
     -8.670  0.0000E+00  0.1200E-01
     -8.592  0.0000E+00  0.1200E-01
     -8.515  0.0000E+00  0.1200E-01
     -8.438  0.0000E+00  0.1200E-01
     -8.360  0.0000E+00  0.1200E-01
     -8.283  0.1436E-18  0.1200E-01
     -8.206  0.5512E-15  0.1200E-01
     -8.129  0.9799E-12  0.1200E-01
     -8.051  0.5413E-09  0.1200E-01
     -7.974  0.9377E-07  0.1200E-01
     -7.897  0.5163E-05  0.1200E-01
     -7.819  0.9192E-04  0.1201E-01
     -7.742  0.5399E-03  0.1205E-01
     -7.665  0.1065E-02  0.1213E-01
     -7.587  0.7118E-03  0.1219E-01
     -7.510  0.1622E-03  0.1220E-01
     -7.433  0.7299E-04  0.1220E-01
     -7.355  0.6813E-03  0.1226E-01
     -7.278  0.2845E-02  0.1248E-01
     -7.201  0.4812E-02  0.1285E-01
     -7.123  0.3799E-02  0.1314E-01
     -7.046  0.2231E-02  0.1332E-01
     -6.969  0.2123E-02  0.1348E-01
     -6.891  0.3453E-02  0.1375E-01
     -6.814  0.6817E-02  0.1427E-01
     -6.737  0.1106E-01  0.1513E-01
     -6.659  0.1031E-01  0.1593E-01
     -6.582  0.7431E-02  0.1650E-01
     -6.505  0.1074E-01  0.1733E-01
     -6.428  0.1507E-01  0.1850E-01
     -6.350  0.1397E-01  0.1958E-01
     -6.273  0.9941E-02  0.2035E-01
     -6.196  0.4650E-02  0.2070E-01
     -6.118  0.1113E-02  0.2079E-01
     -6.041  0.1173E-03  0.2080E-01
     -5.964  0.5012E-05  0.2080E-01
     -5.886  0.1012E-04  0.2080E-01
     -5.809  0.2027E-03  0.2082E-01
     -5.732  0.1476E-02  0.2093E-01
     -5.654  0.4236E-02  0.2126E-01
     -5.577  0.5465E-02  0.2168E-01
     -5.500  0.5144E-02  0.2208E-01
     -5.422  0.1022E-01  0.2287E-01
     -5.345  0.2031E-01  0.2444E-01
     -5.268  0.2012E-01  0.2599E-01
     -5.190  0.8937E-02  0.2669E-01
     -5.113  0.2870E-02  0.2691E-01
     -5.036  0.3636E-02  0.2719E-01
     -4.958  0.3663E-02  0.2747E-01
     -4.881  0.1726E-02  0.2761E-01
     -4.804  0.2481E-02  0.2780E-01
     -4.726  0.7345E-02  0.2837E-01
     -4.649  0.1025E-01  0.2916E-01
     -4.572  0.8137E-02  0.2979E-01
     -4.495  0.7531E-02  0.3037E-01
     -4.417  0.8820E-02  0.3105E-01
     -4.340  0.9170E-02  0.3176E-01
     -4.263  0.6435E-02  0.3226E-01
     -4.185  0.3730E-02  0.3255E-01
     -4.108  0.4942E-02  0.3293E-01
     -4.031  0.6402E-02  0.3342E-01
     -3.953  0.6233E-02  0.3391E-01
     -3.876  0.5552E-02  0.3433E-01
     -3.799  0.4188E-02  0.3466E-01
     -3.721  0.2247E-02  0.3483E-01
     -3.644  0.2170E-02  0.3500E-01
     -3.567  0.2628E-02  0.3520E-01
     -3.489  0.3508E-02  0.3547E-01
     -3.412  0.5667E-02  0.3591E-01
     -3.335  0.9082E-02  0.3661E-01
     -3.257  0.1376E-01  0.3768E-01
     -3.180  0.1428E-01  0.3878E-01
     -3.103  0.1082E-01  0.3962E-01
     -3.025  0.8258E-02  0.4026E-01
     -2.948  0.7301E-02  0.4082E-01
     -2.871  0.8903E-02  0.4151E-01
     -2.793  0.1092E-01  0.4235E-01
     -2.716  0.8577E-02  0.4302E-01
     -2.639  0.4107E-02  0.4334E-01
     -2.562  0.2930E-02  0.4356E-01
     -2.484  0.6457E-02  0.4406E-01
     -2.407  0.9399E-02  0.4479E-01
     -2.330  0.7895E-02  0.4540E-01
     -2.252  0.5262E-02  0.4581E-01
     -2.175  0.5140E-02  0.4620E-01
     -2.098  0.6142E-02  0.4668E-01
     -2.020  0.5592E-02  0.4711E-01
     -1.943  0.5048E-02  0.4750E-01
     -1.866  0.3081E-02  0.4774E-01
     -1.788  0.1357E-02  0.4784E-01
     -1.711  0.2632E-02  0.4805E-01
     -1.634  0.4175E-02  0.4837E-01
     -1.556  0.2975E-02  0.4860E-01
     -1.479  0.2193E-02  0.4877E-01
     -1.402  0.1994E-02  0.4892E-01
     -1.324  0.8513E-03  0.4899E-01
     -1.247  0.1340E-03  0.4900E-01
     -1.170  0.7386E-05  0.4900E-01
     -1.092  0.1371E-06  0.4900E-01
     -1.015  0.8295E-09  0.4900E-01
     -0.938  0.1598E-11  0.4900E-01
     -0.861  0.9658E-15  0.4900E-01
     -0.783  0.0000E+00  0.4900E-01
     -0.706  0.0000E+00  0.4900E-01
     -0.629  0.0000E+00  0.4900E-01
     -0.551  0.0000E+00  0.4900E-01
     -0.474  0.0000E+00  0.4900E-01
     -0.397  0.0000E+00  0.4900E-01
     -0.319  0.0000E+00  0.4900E-01
     -0.242  0.0000E+00  0.4900E-01
     -0.165  0.2229E-15  0.4900E-01
     -0.087  0.5300E-12  0.4900E-01
     -0.010  0.3961E-09  0.4900E-01
      0.067  0.9419E-07  0.4900E-01
      0.145  0.7259E-05  0.4900E-01
      0.222  0.1858E-03  0.4901E-01
      0.299  0.1632E-02  0.4914E-01
      0.377  0.5121E-02  0.4954E-01
      0.454  0.6282E-02  0.5002E-01
      0.531  0.4992E-02  0.5041E-01
      0.609  0.7106E-02  0.5096E-01
      0.686  0.1291E-01  0.5196E-01
      0.763  0.1654E-01  0.5324E-01
      0.841  0.1452E-01  0.5436E-01
      0.918  0.1273E-01  0.5534E-01
      0.995  0.8143E-02  0.5597E-01
      1.072  0.2797E-02  0.5619E-01
      1.150  0.2166E-02  0.5636E-01
      1.227  0.6402E-02  0.5685E-01
      1.304  0.1089E-01  0.5769E-01
      1.382  0.1150E-01  0.5858E-01
      1.459  0.9716E-02  0.5933E-01
      1.536  0.6193E-02  0.5981E-01
      1.614  0.2120E-02  0.5998E-01
      1.691  0.3001E-03  0.6000E-01
      1.768  0.1533E-04  0.6000E-01
      1.846  0.2636E-06  0.6000E-01
      1.923  0.1466E-08  0.6000E-01
      2.000  0.2579E-11  0.6000E-01
      2.078  0.1416E-14  0.6000E-01
      2.155  0.0000E+00  0.6000E-01
      2.232  0.0000E+00  0.6000E-01
      2.310  0.0000E+00  0.6000E-01
      2.387  0.0000E+00  0.6000E-01
      2.464  0.0000E+00  0.6000E-01
      2.542  0.0000E+00  0.6000E-01
