       N       E                     dE             d eps       ncg     rms          rms(c)
DAV:   1     0.436605668579E+04    0.43661E+04   -0.18236E+05   612   0.112E+03
DAV:   2    -0.253448603796E+02   -0.43914E+04   -0.42428E+04   960   0.267E+02
DAV:   3    -0.677356310854E+03   -0.65201E+03   -0.64441E+03   720   0.113E+02
DAV:   4    -0.708840138690E+03   -0.31484E+02   -0.31313E+02   804   0.269E+01
DAV:   5    -0.710092452849E+03   -0.12523E+01   -0.12457E+01   912   0.577E+00    0.123E+02
DAV:   6    -0.691027057524E+03    0.19065E+02   -0.59119E+02   816   0.404E+01    0.794E+01
DAV:   7    -0.709189885514E+03   -0.18163E+02   -0.33880E+02   852   0.557E+01    0.633E+01
DAV:   8    -0.750087776939E+03   -0.40898E+02   -0.22341E+02   816   0.214E+01    0.769E+01
DAV:   9    -0.756466863609E+03   -0.63791E+01   -0.11546E+03   828   0.170E+01    0.731E+01
DAV:  10    -0.693626368270E+03    0.62840E+02   -0.24934E+02   816   0.137E+01    0.363E+01
DAV:  11    -0.662525926647E+03    0.31100E+02   -0.36233E+01   852   0.243E+01    0.249E+01
DAV:  12    -0.658454014170E+03    0.40719E+01   -0.51464E+01   888   0.122E+01    0.274E+01
DAV:  13    -0.658955389725E+03   -0.50138E+00   -0.37653E+00   780   0.232E+00    0.268E+01
DAV:  14    -0.659219920686E+03   -0.26453E+00   -0.22777E-01   972   0.135E+00    0.257E+01
DAV:  15    -0.659231272765E+03   -0.11352E-01   -0.76157E-02   804   0.399E-01    0.253E+01
DAV:  16    -0.659380733098E+03   -0.14946E+00   -0.16013E-01   924   0.145E+00    0.223E+01
DAV:  17    -0.668635035026E+03   -0.92543E+01   -0.85690E+01   948   0.819E+00    0.287E+01
DAV:  18    -0.665720372328E+03    0.29147E+01   -0.55462E+00   876   0.431E+00    0.288E+01
DAV:  19    -0.661047948985E+03    0.46724E+01   -0.13947E+00   984   0.483E+00    0.309E+01
DAV:  20    -0.661741329858E+03   -0.69338E+00   -0.72191E+00   888   0.611E+00    0.309E+01
DAV:  21    -0.659339687756E+03    0.24016E+01   -0.47797E+00   792   0.173E+00    0.247E+01
DAV:  22    -0.658788720438E+03    0.55097E+00   -0.18972E-01   864   0.804E-01    0.222E+01
DAV:  23    -0.658327352760E+03    0.46137E+00   -0.24253E-01   876   0.120E+00    0.186E+01
DAV:  24    -0.658053733511E+03    0.27362E+00   -0.81279E-01   888   0.126E+00    0.140E+01
DAV:  25    -0.658060308994E+03   -0.65755E-02   -0.73094E-01   864   0.114E+00    0.108E+01
DAV:  26    -0.657744174087E+03    0.31613E+00   -0.21371E-01   864   0.484E-01    0.902E+00
DAV:  27    -0.657472152641E+03    0.27202E+00   -0.19085E-01   852   0.434E-01    0.695E+00
DAV:  28    -0.657218316620E+03    0.25384E+00   -0.10545E-01   888   0.715E-01    0.448E+00
DAV:  29    -0.657090122366E+03    0.12819E+00   -0.39294E-02   864   0.456E-01    0.324E+00
DAV:  30    -0.657080000006E+03    0.10122E-01   -0.53775E-03   744   0.138E-01    0.342E+00
DAV:  31    -0.657031466214E+03    0.48534E-01   -0.99137E-03   840   0.334E-01    0.344E+00
DAV:  32    -0.656823077576E+03    0.20839E+00   -0.10329E-01   828   0.831E-01    0.170E+00
DAV:  33    -0.656709036190E+03    0.11404E+00   -0.25946E-02   828   0.254E-01    0.182E+00
DAV:  34    -0.656656913870E+03    0.52122E-01   -0.37814E-03   792   0.143E-01    0.168E+00
DAV:  35    -0.656591253452E+03    0.65660E-01   -0.30320E-03   852   0.148E-01    0.154E+00
DAV:  36    -0.656502158018E+03    0.89095E-01   -0.75907E-02   828   0.155E-01    0.202E+00
DAV:  37    -0.656497316098E+03    0.48419E-02   -0.10727E-02   756   0.963E-02    0.143E+00
DAV:  38    -0.656465295386E+03    0.32021E-01   -0.16075E-01   720   0.605E-02    0.404E+00
DAV:  39    -0.656446179890E+03    0.19115E-01   -0.77175E-04   636   0.113E-01    0.312E+00
DAV:  40    -0.656429413493E+03    0.16766E-01   -0.12485E-03   732   0.971E-02    0.328E+00
DAV:  41    -0.656373450941E+03    0.55963E-01   -0.33732E-03   876   0.243E-01    0.357E+00
DAV:  42    -0.656299214987E+03    0.74236E-01   -0.77732E-03   900   0.325E-01    0.291E+00
DAV:  43    -0.656214757009E+03    0.84458E-01   -0.10919E-02   924   0.328E-01    0.330E+00
DAV:  44    -0.656163914800E+03    0.50842E-01   -0.89960E-03   876   0.238E-01    0.282E+00
DAV:  45    -0.656123299992E+03    0.40615E-01   -0.40041E-03   852   0.196E-01    0.226E+00
DAV:  46    -0.656063366176E+03    0.59934E-01   -0.52395E-03   900   0.264E-01    0.176E+00
DAV:  47    -0.655982672128E+03    0.80694E-01   -0.10378E-02   936   0.374E-01    0.229E+00
DAV:  48    -0.655918996796E+03    0.63675E-01   -0.11430E-02   900   0.341E-01    0.213E+00
DAV:  49    -0.655893776733E+03    0.25220E-01   -0.92208E-03   864   0.167E-01    0.207E+00
DAV:  50    -0.655874256645E+03    0.19520E-01   -0.15743E-03   816   0.119E-01    0.192E+00
DAV:  51    -0.656145734698E+03   -0.27148E+00   -0.27665E-01   936   0.235E+00    0.377E+00
DAV:  52    -0.656104334747E+03    0.41400E-01   -0.13466E-01   660   0.402E-01    0.371E+00
DAV:  53    -0.656103557473E+03    0.77727E-03   -0.74843E-03   828   0.102E-01    0.372E+00
DAV:  54    -0.656103045976E+03    0.51150E-03   -0.21044E-04   636   0.176E-02    0.371E+00
DAV:  55    -0.656106867508E+03   -0.38215E-02   -0.29085E-05   480   0.172E-02    0.372E+00
DAV:  56    -0.656054941537E+03    0.51926E-01   -0.44827E-03   912   0.235E-01    0.358E+00
DAV:  57    -0.656176820069E+03   -0.12188E+00   -0.69264E-03   888   0.363E-01    0.377E+00
DAV:  58    -0.656403632024E+03   -0.22681E+00   -0.22294E-02   888   0.593E-01    0.411E+00
DAV:  59    -0.656505210605E+03   -0.10158E+00   -0.23883E-02   840   0.304E-01    0.430E+00
DAV:  60    -0.656530314528E+03   -0.25104E-01   -0.68455E-03   720   0.117E-01    0.435E+00
DAV:  61    -0.656592774216E+03   -0.62460E-01   -0.16426E-03   960   0.189E-01    0.444E+00
DAV:  62    -0.656577877586E+03    0.14897E-01   -0.99018E-04   756   0.552E-02    0.442E+00
DAV:  63    -0.656583427862E+03   -0.55503E-02   -0.22218E-04   588   0.229E-02    0.443E+00
DAV:  64    -0.656594357943E+03   -0.10930E-01   -0.43632E-05   468   0.301E-02    0.444E+00
DAV:  65    -0.656567604016E+03    0.26754E-01   -0.15636E-04   540   0.736E-02    0.442E+00
DAV:  66    -0.656429859326E+03    0.13774E+00   -0.66267E-03   876   0.386E-01    0.419E+00
DAV:  67    -0.656431394691E+03   -0.15354E-02   -0.35426E-03   696   0.604E-02    0.419E+00
DAV:  68    -0.656441647586E+03   -0.10253E-01   -0.96726E-05   516   0.384E-02    0.420E+00
DAV:  69    -0.656413478702E+03    0.28169E-01   -0.43666E-04   780   0.859E-02    0.420E+00
DAV:  70    -0.656333663304E+03    0.79815E-01   -0.40631E-03  1020   0.246E-01    0.412E+00
DAV:  71    -0.656280443329E+03    0.53220E-01   -0.45685E-03   900   0.179E-01    0.404E+00
DAV:  72    -0.656275896609E+03    0.45467E-02   -0.23109E-03   708   0.575E-02    0.403E+00
DAV:  73    -0.656294796133E+03   -0.18900E-01   -0.25788E-04   708   0.631E-02    0.406E+00
DAV:  74    -0.656283405959E+03    0.11390E-01   -0.70078E-05   480   0.414E-02    0.405E+00
DAV:  75    -0.656255899096E+03    0.27507E-01   -0.42450E-04   756   0.895E-02    0.402E+00
DAV:  76    -0.656208947360E+03    0.46952E-01   -0.25706E-03   960   0.177E-01    0.393E+00
DAV:  77    -0.656205150746E+03    0.37966E-02   -0.15062E-03   720   0.443E-02    0.392E+00
DAV:  78    -0.656213028589E+03   -0.78778E-02   -0.87382E-05   492   0.293E-02    0.393E+00
DAV:  79    -0.656230956514E+03   -0.17928E-01   -0.28765E-04   660   0.640E-02    0.396E+00
DAV:  80    -0.656302605598E+03   -0.71649E-01   -0.42723E-03   960   0.259E-01    0.408E+00
DAV:  81    -0.656390817839E+03   -0.88212E-01   -0.11887E-02   936   0.326E-01    0.417E+00
DAV:  82    -0.656396876752E+03   -0.60589E-02   -0.80697E-03   684   0.930E-02    0.419E+00
DAV:  83    -0.656412780629E+03   -0.15904E-01   -0.21603E-04   660   0.513E-02    0.422E+00
DAV:  84    -0.656396523433E+03    0.16257E-01   -0.52149E-04   732   0.520E-02    0.418E+00
DAV:  85    -0.656346563975E+03    0.49959E-01   -0.42338E-03   852   0.141E-01    0.410E+00
DAV:  86    -0.656340845076E+03    0.57189E-02   -0.15868E-03   732   0.666E-02    0.410E+00
DAV:  87    -0.656307144921E+03    0.33700E-01   -0.63681E-04   792   0.924E-02    0.405E+00
DAV:  88    -0.656264526361E+03    0.42619E-01   -0.13884E-03   852   0.108E-01    0.401E+00
DAV:  89    -0.656236837600E+03    0.27689E-01   -0.13137E-03   864   0.803E-02    0.397E+00
DAV:  90    -0.656089425943E+03    0.14741E+00   -0.93403E-03   960   0.417E-01    0.380E+00
DAV:  91    -0.656110958875E+03   -0.21533E-01   -0.49895E-02   804   0.495E-01    0.351E+00
DAV:  92    -0.656087017469E+03    0.23941E-01   -0.93544E-03   780   0.156E-01    0.342E+00
DAV:  93    -0.655958420442E+03    0.12860E+00   -0.74541E-03   972   0.383E-01    0.316E+00
DAV:  94    -0.655886451659E+03    0.71969E-01   -0.11690E-02   876   0.267E-01    0.290E+00
DAV:  95    -0.655891113958E+03   -0.46623E-02   -0.83109E-03   768   0.146E-01    0.299E+00
DAV:  96    -0.657272879841E+03   -0.13818E+01   -0.15554E+01   996   0.629E+00    0.175E+01
DAV:  97    -0.656311470744E+03    0.96141E+00   -0.15477E+01   852   0.272E+00    0.210E+00
DAV:  98    -0.656182227723E+03    0.12924E+00   -0.63205E+00   876   0.346E+00    0.346E+00
DAV:  99    -0.656257559991E+03   -0.75332E-01   -0.39443E-01   756   0.685E-01    0.379E+00
DAV: 100    -0.656055319718E+03    0.20224E+00   -0.23418E-02   792   0.594E-01    0.361E+00
DAV: 101    -0.655890733601E+03    0.16459E+00   -0.36255E-02   864   0.503E-01    0.322E+00
DAV: 102    -0.655824992844E+03    0.65741E-01   -0.34211E-02   816   0.291E-01    0.253E+00
DAV: 103    -0.655837664064E+03   -0.12671E-01   -0.24679E-02   816   0.206E-01    0.315E+00
DAV: 104    -0.655772975743E+03    0.64688E-01   -0.18637E-01   984   0.446E-01    0.730E-01
DAV: 105    -0.655879833021E+03   -0.10686E+00   -0.65081E-01   924   0.601E-01    0.341E+00
DAV: 106    -0.655809411960E+03    0.70421E-01   -0.47390E-02   852   0.340E-01    0.292E+00
DAV: 107    -0.655799972621E+03    0.94393E-02   -0.35239E-03   780   0.952E-02    0.271E+00
DAV: 108    -0.655801658787E+03   -0.16862E-02   -0.28189E-03   708   0.543E-02    0.276E+00
DAV: 109    -0.655805929262E+03   -0.42705E-02   -0.76046E-02   828   0.101E-01    0.277E+00
DAV: 110    -0.655803388076E+03    0.25412E-02   -0.46121E-04   624   0.322E-02    0.272E+00
DAV: 111    -0.655811445394E+03   -0.80573E-02   -0.79744E-02   888   0.165E-01    0.296E+00
DAV: 112    -0.655840074628E+03   -0.28629E-01   -0.28955E-01   840   0.214E-01    0.320E+00
DAV: 113    -0.655838288318E+03    0.17863E-02   -0.79107E-04   708   0.437E-02    0.318E+00
DAV: 114    -0.655840183072E+03   -0.18948E-02   -0.36290E-05   444   0.138E-02    0.319E+00
DAV: 115    -0.655833498982E+03    0.66841E-02   -0.23809E-04   528   0.231E-02    0.314E+00
DAV: 116    -0.655803759521E+03    0.29739E-01   -0.14877E-03   672   0.471E-02    0.268E+00
DAV: 117    -0.655800143309E+03    0.36162E-02   -0.18760E-03   768   0.538E-02    0.264E+00
DAV: 118    -0.655800896588E+03   -0.75328E-03   -0.62244E-04   672   0.357E-02    0.264E+00
DAV: 119    -0.655801231568E+03   -0.33498E-03   -0.27592E-04   492   0.247E-02    0.263E+00
DAV: 120    -0.655802730370E+03   -0.14988E-02   -0.28522E-04   432   0.233E-02    0.263E+00
DAV: 121    -0.655808254712E+03   -0.55243E-02   -0.98328E-03   804   0.115E-01    0.264E+00
DAV: 122    -0.655825115614E+03   -0.16861E-01   -0.74944E-03   816   0.101E-01    0.280E+00
DAV: 123    -0.655830845239E+03   -0.57296E-02   -0.79246E-04   648   0.374E-02    0.291E+00
DAV: 124    -0.655818668883E+03    0.12176E-01   -0.16468E-03   636   0.686E-02    0.284E+00
DAV: 125    -0.655812878143E+03    0.57907E-02   -0.16029E-03   804   0.453E-02    0.282E+00
DAV: 126    -0.655868426415E+03   -0.55548E-01   -0.77373E-02   876   0.304E-01    0.302E+00
DAV: 127    -0.655885568559E+03   -0.17142E-01   -0.36909E-03   816   0.115E-01    0.302E+00
DAV: 128    -0.655894525555E+03   -0.89570E-02   -0.10491E-03   828   0.670E-02    0.300E+00
DAV: 129    -0.655900758994E+03   -0.62334E-02   -0.22514E-04   660   0.611E-02    0.295E+00
DAV: 130    -0.655912060811E+03   -0.11302E-01   -0.10838E-03   936   0.137E-01    0.278E+00
DAV: 131    -0.655903821839E+03    0.82390E-02   -0.15665E-03   840   0.882E-02    0.237E+00
DAV: 132    -0.655895852053E+03    0.79698E-02   -0.82120E-04   768   0.794E-02    0.180E+00
DAV: 133    -0.655863630733E+03    0.32221E-01   -0.10146E-03   804   0.756E-02    0.942E-01
DAV: 134    -0.655831465851E+03    0.32165E-01   -0.27140E-03   924   0.218E-01    0.110E+00
DAV: 135    -0.655795306737E+03    0.36159E-01   -0.26412E-02   864   0.189E-01    0.691E-01
DAV: 136    -0.655771030342E+03    0.24276E-01   -0.81035E-02   912   0.278E-01    0.824E-01
DAV: 137    -0.655777607801E+03   -0.65775E-02   -0.58525E-02   780   0.165E-01    0.447E-01
DAV: 138    -0.655778282831E+03   -0.67503E-03   -0.56144E-04   720   0.444E-02    0.459E-01
DAV: 139    -0.655775340671E+03    0.29422E-02   -0.17700E-04   420   0.255E-02    0.393E-01
DAV: 140    -0.655771467711E+03    0.38730E-02   -0.21367E-03   660   0.667E-02    0.307E-01
DAV: 141    -0.655773484292E+03   -0.20166E-02   -0.81734E-04   708   0.408E-02    0.327E-01
DAV: 142    -0.655771658259E+03    0.18260E-02   -0.60339E-02   804   0.123E-01    0.810E-01
DAV: 143    -0.655771272268E+03    0.38599E-03   -0.10150E-03   660   0.334E-02    0.587E-01
DAV: 144    -0.655769872135E+03    0.14001E-02   -0.55614E-03   516   0.533E-02    0.125E-01
DAV: 145    -0.655770054489E+03   -0.18235E-03   -0.12528E-03   648   0.424E-02    0.257E-01
DAV: 146    -0.655769952988E+03    0.10150E-03   -0.42385E-04   444   0.223E-02    0.100E-01
DAV: 147    -0.655769959253E+03   -0.62645E-05   -0.73053E-05   348   0.136E-02
   1 F= -.67110765E+03 E0= -.67104674E+03  d E =-.671108E+03
       N       E                     dE             d eps       ncg     rms          rms(c)
DAV:   1    -0.655839657231E+03   -0.69704E-01   -0.29745E+01   600   0.787E+00    0.492E+00
DAV:   2    -0.656359988437E+03   -0.52033E+00   -0.42519E+00   828   0.342E+00    0.669E+00
DAV:   3    -0.656348858947E+03    0.11129E-01   -0.66589E+00   876   0.506E+00    0.637E+00
DAV:   4    -0.656001054168E+03    0.34780E+00   -0.19200E+00   828   0.222E+00    0.356E+00
DAV:   5    -0.656026581174E+03   -0.25527E-01   -0.18230E+00   852   0.115E+00    0.342E+00
DAV:   6    -0.655957088611E+03    0.69493E-01   -0.61364E-02   732   0.490E-01    0.253E+00
DAV:   7    -0.656047181545E+03   -0.90093E-01   -0.26239E-01   816   0.708E-01    0.363E+00
DAV:   8    -0.655968580726E+03    0.78601E-01   -0.29341E-02   852   0.475E-01    0.231E+00
DAV:   9    -0.655949390662E+03    0.19190E-01   -0.36671E-01   936   0.437E-01    0.169E+00
DAV:  10    -0.655944569954E+03    0.48207E-02   -0.12590E-01   804   0.213E-01    0.885E-01
DAV:  11    -0.655938886740E+03    0.56832E-02   -0.34401E-02   792   0.960E-02    0.491E-01
DAV:  12    -0.655936678329E+03    0.22084E-02   -0.54069E-03   612   0.472E-02    0.336E-01
DAV:  13    -0.655933573583E+03    0.31047E-02   -0.11012E-02   828   0.699E-02    0.252E-01
DAV:  14    -0.655933634486E+03   -0.60902E-04   -0.95628E-04   576   0.347E-02
   2 F= -.67129747E+03 E0= -.67123635E+03  d E =-.189820E+00
       N       E                     dE             d eps       ncg     rms          rms(c)
DAV:   1    -0.655938143731E+03   -0.45701E-02   -0.34424E-01   624   0.854E-01    0.383E-01
DAV:   2    -0.655953753998E+03   -0.15610E-01   -0.46848E-02   816   0.388E-01    0.227E+00
DAV:   3    -0.655940977741E+03    0.12776E-01   -0.62546E-02   864   0.301E-01    0.648E-01
DAV:   4    -0.655939930728E+03    0.10470E-02   -0.14044E-02   792   0.929E-02    0.454E-01
DAV:   5    -0.655939671661E+03    0.25907E-03   -0.22249E-03   732   0.553E-02    0.226E-01
DAV:   6    -0.655940345546E+03   -0.67388E-03   -0.73572E-03   744   0.836E-02    0.468E-01
DAV:   7    -0.655939639721E+03    0.70582E-03   -0.16002E-03   684   0.479E-02    0.425E-01
DAV:   8    -0.655939299722E+03    0.34000E-03   -0.64958E-04   408   0.324E-02    0.211E-01
DAV:   9    -0.655939267602E+03    0.32120E-04   -0.12036E-04   384   0.168E-02
   3 F= -.67130005E+03 E0= -.67123758E+03  d E =-.192405E+00
       N       E                     dE             d eps       ncg     rms          rms(c)
DAV:   1    -0.655703979313E+03    0.23532E+00   -0.32580E+01   600   0.779E+00    0.355E+00
DAV:   2    -0.656300525978E+03   -0.59655E+00   -0.48104E+00   864   0.335E+00    0.683E+00
DAV:   3    -0.655899519955E+03    0.40101E+00   -0.27959E+00   876   0.407E+00    0.457E+00
DAV:   4    -0.655877975550E+03    0.21544E-01   -0.20019E+00   828   0.143E+00    0.360E+00
DAV:   5    -0.655799136629E+03    0.78839E-01   -0.51330E-01   888   0.754E-01    0.175E+00
DAV:   6    -0.655816144848E+03   -0.17008E-01   -0.49988E-01   792   0.445E-01    0.267E+00
DAV:   7    -0.655847601615E+03   -0.31457E-01   -0.10660E+00   804   0.545E-01    0.340E+00
DAV:   8    -0.655816934853E+03    0.30667E-01   -0.14561E-02   888   0.279E-01    0.273E+00
DAV:   9    -0.655786316543E+03    0.30618E-01   -0.88671E-02   924   0.330E-01    0.303E-01
DAV:  10    -0.655785840480E+03    0.47606E-03   -0.15614E-02   768   0.102E-01    0.725E-01
DAV:  11    -0.655782688422E+03    0.31521E-02   -0.24829E-02   720   0.806E-02    0.412E-01
DAV:  12    -0.655780922093E+03    0.17663E-02   -0.70134E-03   672   0.530E-02    0.319E-01
DAV:  13    -0.655779035597E+03    0.18865E-02   -0.36451E-03   744   0.437E-02    0.181E-01
DAV:  14    -0.655778953927E+03    0.81670E-04   -0.45870E-04   504   0.272E-02
   4 F= -.67116184E+03 E0= -.67109961E+03  d E =0.138212E+00
       N       E                     dE             d eps       ncg     rms          rms(c)
DAV:   1    -0.655940501823E+03   -0.16147E+00   -0.15285E+01   600   0.527E+00    0.231E+00
DAV:   2    -0.656385008346E+03   -0.44451E+00   -0.48464E+00   888   0.254E+00    0.594E+00
DAV:   3    -0.656003721650E+03    0.38129E+00   -0.11205E+00   804   0.213E+00    0.275E+00
DAV:   4    -0.656010064716E+03   -0.63431E-02   -0.78931E-01   852   0.729E-01    0.285E+00
DAV:   5    -0.655979511324E+03    0.30553E-01   -0.20590E-01   816   0.261E-01    0.133E+00
DAV:   6    -0.656000639581E+03   -0.21128E-01   -0.47093E-01   840   0.342E-01    0.185E+00
DAV:   7    -0.655987400356E+03    0.13239E-01   -0.75225E-01   780   0.304E-01    0.222E+00
DAV:   8    -0.655982650188E+03    0.47502E-02   -0.85385E-03   816   0.169E-01    0.181E+00
DAV:   9    -0.655978569925E+03    0.40803E-02   -0.37337E-03   804   0.101E-01    0.158E+00
DAV:  10    -0.655972363356E+03    0.62066E-02   -0.60476E-03   828   0.877E-02    0.642E-01
DAV:  11    -0.655971225869E+03    0.11375E-02   -0.15445E-03   744   0.532E-02    0.425E-01
DAV:  12    -0.655970752808E+03    0.47306E-03   -0.40493E-04   552   0.300E-02    0.275E-01
DAV:  13    -0.655970486477E+03    0.26633E-03   -0.24128E-04   396   0.225E-02    0.124E-01
DAV:  14    -0.655970412434E+03    0.74043E-04   -0.18611E-04   408   0.172E-02
   5 F= -.67133797E+03 E0= -.67127575E+03  d E =-.379153E-01
       N       E                     dE             d eps       ncg     rms          rms(c)
DAV:   1    -0.655991486707E+03   -0.21000E-01   -0.84943E+00   600   0.404E+00    0.114E+00
DAV:   2    -0.656082629453E+03   -0.91143E-01   -0.49373E-01   828   0.947E-01    0.393E+00
DAV:   3    -0.656027843760E+03    0.54786E-01   -0.83918E-01   888   0.124E+00    0.260E+00
DAV:   4    -0.656019857359E+03    0.79864E-02   -0.54606E-01   852   0.541E-01    0.247E+00
DAV:   5    -0.656004135150E+03    0.15722E-01   -0.17677E-02   840   0.180E-01    0.902E-01
DAV:   6    -0.656002976880E+03    0.11583E-02   -0.22487E-02   876   0.202E-01    0.621E-01
DAV:   7    -0.656003479778E+03   -0.50290E-03   -0.21676E-02   816   0.132E-01    0.800E-01
DAV:   8    -0.656001300633E+03    0.21791E-02   -0.49887E-03   744   0.687E-02    0.563E-01
DAV:   9    -0.656000710399E+03    0.59023E-03   -0.22619E-03   696   0.488E-02    0.312E-01
DAV:  10    -0.656000500435E+03    0.20996E-03   -0.87736E-04   540   0.348E-02    0.533E-02
DAV:  11    -0.656000531518E+03   -0.31083E-04   -0.89937E-05   456   0.187E-02
   6 F= -.67137182E+03 E0= -.67130997E+03  d E =-.338512E-01
       N       E                     dE             d eps       ncg     rms          rms(c)
DAV:   1    -0.656000613005E+03   -0.11257E-03   -0.28890E-03   624   0.740E-02    0.442E-02
DAV:   2    -0.656001387519E+03   -0.77451E-03   -0.59703E-03   504   0.596E-02    0.572E-01
DAV:   3    -0.656000658199E+03    0.72932E-03   -0.77197E-03   504   0.647E-02    0.121E-01
DAV:   4    -0.656000634093E+03    0.24106E-04   -0.67462E-04   372   0.200E-02
   7 F= -.67137186E+03 E0= -.67130999E+03  d E =-.338871E-01
       N       E                     dE             d eps       ncg     rms          rms(c)
DAV:   1    -0.656017475704E+03   -0.16818E-01   -0.69605E+00   600   0.350E+00    0.103E+00
DAV:   2    -0.656066987990E+03   -0.49512E-01   -0.36618E-01   816   0.787E-01    0.336E+00
DAV:   3    -0.656061071640E+03    0.59163E-02   -0.90398E-01   876   0.920E-01    0.280E+00
DAV:   4    -0.656041349263E+03    0.19722E-01   -0.51485E-01   840   0.545E-01    0.212E+00
DAV:   5    -0.656031076534E+03    0.10273E-01   -0.14051E-02   840   0.138E-01    0.879E-01
DAV:   6    -0.656028239592E+03    0.28369E-02   -0.23065E-02   900   0.180E-01    0.285E-01
DAV:   7    -0.656028236118E+03    0.34736E-05   -0.22966E-03   828   0.647E-02    0.206E-01
DAV:   8    -0.656028174692E+03    0.61426E-04   -0.81091E-04   768   0.449E-02
   8 F= -.67139935E+03 E0= -.67133744E+03  d E =-.274921E-01
       N       E                     dE             d eps       ncg     rms          rms(c)
DAV:   1    -0.656028373565E+03   -0.13745E-03   -0.20406E-01   600   0.602E-01    0.231E-01
DAV:   2    -0.656039137651E+03   -0.10764E-01   -0.61692E-02   900   0.265E-01    0.204E+00
DAV:   3    -0.656030008517E+03    0.91291E-02   -0.76921E-02   852   0.276E-01    0.537E-01
DAV:   4    -0.656029657595E+03    0.35092E-03   -0.12113E-02   792   0.974E-02    0.497E-01
DAV:   5    -0.656028910544E+03    0.74705E-03   -0.62833E-04   600   0.486E-02    0.335E-01
DAV:   6    -0.656028703580E+03    0.20696E-03   -0.70574E-04   540   0.358E-02    0.157E-01
DAV:   7    -0.656028651438E+03    0.52141E-04   -0.27048E-04   408   0.226E-02
   9 F= -.67139983E+03 E0= -.67133843E+03  d E =-.279710E-01
       N       E                     dE             d eps       ncg     rms          rms(c)
DAV:   1    -0.656044615929E+03   -0.15912E-01   -0.28192E+00   600   0.211E+00    0.745E-01
DAV:   2    -0.656055186935E+03   -0.10571E-01   -0.10898E-01   804   0.450E-01    0.130E+00
DAV:   3    -0.656085089676E+03   -0.29903E-01   -0.50883E-01   864   0.578E-01    0.293E+00
DAV:   4    -0.656057528259E+03    0.27561E-01   -0.38964E-01   840   0.502E-01    0.142E+00
DAV:   5    -0.656052792704E+03    0.47356E-02   -0.16584E-02   828   0.129E-01    0.478E-01
DAV:   6    -0.656051275867E+03    0.15168E-02   -0.56377E-03   888   0.127E-01    0.165E-01
DAV:   7    -0.656051301288E+03   -0.25420E-04   -0.10755E-03   804   0.490E-02    0.953E-02
DAV:   8    -0.656051210838E+03    0.90449E-04   -0.58325E-04   576   0.349E-02
  10 F= -.67142125E+03 E0= -.67135927E+03  d E =-.214181E-01
       N       E                     dE             d eps       ncg     rms          rms(c)
DAV:   1    -0.656052980991E+03   -0.16797E-02   -0.21313E+00   600   0.184E+00    0.646E-01
DAV:   2    -0.656061692451E+03   -0.87115E-02   -0.91621E-02   804   0.397E-01    0.129E+00
DAV:   3    -0.656081622139E+03   -0.19930E-01   -0.38752E-01   864   0.498E-01    0.260E+00
DAV:   4    -0.656063331652E+03    0.18290E-01   -0.31877E-01   852   0.411E-01    0.132E+00
DAV:   5    -0.656059144628E+03    0.41870E-02   -0.66975E-03   864   0.104E-01    0.437E-01
DAV:   6    -0.656058083033E+03    0.10616E-02   -0.72758E-03   804   0.111E-01    0.150E-01
DAV:   7    -0.656058058254E+03    0.24779E-04   -0.88178E-04   612   0.381E-02
  11 F= -.67142720E+03 E0= -.67136555E+03  d E =-.273735E-01
       N       E                     dE             d eps       ncg     rms          rms(c)
DAV:   1    -0.656072236812E+03   -0.14154E-01   -0.27498E+00   600   0.221E+00    0.702E-01
DAV:   2    -0.656084129646E+03   -0.11893E-01   -0.11056E-01   792   0.455E-01    0.166E+00
DAV:   3    -0.656102233572E+03   -0.18104E-01   -0.46454E-01   876   0.542E-01    0.262E+00
DAV:   4    -0.656083570637E+03    0.18663E-01   -0.33106E-01   840   0.450E-01    0.138E+00
DAV:   5    -0.656078989909E+03    0.45807E-02   -0.18615E-02   840   0.130E-01    0.332E-01
DAV:   6    -0.656078005403E+03    0.98451E-03   -0.44735E-03   876   0.110E-01    0.209E-01
DAV:   7    -0.656078290358E+03   -0.28495E-03   -0.17661E-03   780   0.534E-02    0.172E-01
DAV:   8    -0.656077774793E+03    0.51557E-03   -0.14508E-03   600   0.431E-02    0.899E-02
DAV:   9    -0.656077760559E+03    0.14234E-04   -0.83632E-05   348   0.185E-02
  12 F= -.67144588E+03 E0= -.67138423E+03  d E =-.186828E-01
       N       E                     dE             d eps       ncg     rms          rms(c)
DAV:   1    -0.656079709733E+03   -0.19349E-02   -0.18243E+00   600   0.180E+00    0.571E-01
DAV:   2    -0.656085662013E+03   -0.59523E-02   -0.63479E-02   780   0.353E-01    0.981E-01
DAV:   3    -0.656104338230E+03   -0.18676E-01   -0.30439E-01   876   0.439E-01    0.251E+00
DAV:   4    -0.656087632739E+03    0.16705E-01   -0.27520E-01   828   0.397E-01    0.117E+00
DAV:   5    -0.656084537270E+03    0.30955E-02   -0.14395E-02   804   0.114E-01    0.303E-01
DAV:   6    -0.656083492505E+03    0.10448E-02   -0.29507E-03   840   0.935E-02    0.134E-01
DAV:   7    -0.656083602900E+03   -0.11039E-03   -0.97108E-04   744   0.406E-02    0.129E-01
DAV:   8    -0.656083423449E+03    0.17945E-03   -0.68490E-04   516   0.324E-02    0.750E-02
DAV:   9    -0.656083409231E+03    0.14218E-04   -0.69114E-05   336   0.156E-02
  13 F= -.67145077E+03 E0= -.67138911E+03  d E =-.235657E-01
       N       E                     dE             d eps       ncg     rms          rms(c)
DAV:   1    -0.656093334399E+03   -0.99110E-02   -0.10074E+00   600   0.135E+00    0.325E-01
DAV:   2    -0.656097328362E+03   -0.39940E-02   -0.33741E-02   804   0.247E-01    0.107E+00
DAV:   3    -0.656098856465E+03   -0.15281E-02   -0.97228E-02   864   0.256E-01    0.125E+00
DAV:   4    -0.656095494390E+03    0.33621E-02   -0.58380E-02   768   0.166E-01    0.483E-01
DAV:   5    -0.656094996479E+03    0.49791E-03   -0.58385E-03   756   0.666E-02    0.146E-01
DAV:   6    -0.656094703383E+03    0.29310E-03   -0.87225E-04   768   0.527E-02    0.186E-01
DAV:   7    -0.656094676030E+03    0.27353E-04   -0.26190E-04   552   0.261E-02
  14 F= -.67146189E+03 E0= -.67140025E+03  d E =-.111221E-01
       N       E                     dE             d eps       ncg     rms          rms(c)
DAV:   1    -0.656098274212E+03   -0.35708E-02   -0.50477E+00   600   0.302E+00    0.735E-01
DAV:   2    -0.656121460472E+03   -0.23186E-01   -0.17012E-01   840   0.588E-01    0.251E+00
DAV:   3    -0.656123312098E+03   -0.18516E-02   -0.50891E-01   876   0.610E-01    0.234E+00
DAV:   4    -0.656108832643E+03    0.14479E-01   -0.24070E-01   828   0.350E-01    0.111E+00
DAV:   5    -0.656105532393E+03    0.33002E-02   -0.30392E-02   876   0.129E-01    0.404E-01
DAV:   6    -0.656105633946E+03   -0.10155E-03   -0.42230E-03   840   0.104E-01    0.631E-01
DAV:   7    -0.656105660377E+03   -0.26431E-04   -0.12962E-03   780   0.604E-02    0.417E-01
DAV:   8    -0.656104578156E+03    0.10822E-02   -0.38287E-03   684   0.589E-02    0.189E-01
DAV:   9    -0.656104528867E+03    0.49289E-04   -0.39188E-04   468   0.313E-02
  15 F= -.67147147E+03 E0= -.67140954E+03  d E =-.207045E-01
       N       E                     dE             d eps       ncg     rms          rms(c)
DAV:   1    -0.656111362225E+03   -0.67841E-02   -0.54495E-01   600   0.922E-01    0.282E-01
DAV:   2    -0.656113548382E+03   -0.21862E-02   -0.20251E-02   792   0.184E-01    0.743E-01
DAV:   3    -0.656116598068E+03   -0.30497E-02   -0.75647E-02   840   0.229E-01    0.129E+00
DAV:   4    -0.656112936174E+03    0.36619E-02   -0.45921E-02   732   0.157E-01    0.401E-01
DAV:   5    -0.656112585664E+03    0.35051E-03   -0.13696E-03   768   0.576E-02    0.134E-01
DAV:   6    -0.656112399802E+03    0.18586E-03   -0.16944E-03   648   0.494E-02    0.143E-01
DAV:   7    -0.656112344459E+03    0.55344E-04   -0.30952E-04   480   0.255E-02
  16 F= -.67147913E+03 E0= -.67141684E+03  d E =-.766376E-02
       N       E                     dE             d eps       ncg     rms          rms(c)
DAV:   1    -0.656113873968E+03   -0.14742E-02   -0.45833E+00   600   0.268E+00    0.809E-01
DAV:   2    -0.656131289063E+03   -0.17415E-01   -0.14928E-01   816   0.541E-01    0.198E+00
DAV:   3    -0.656154502587E+03   -0.23214E-01   -0.65013E-01   876   0.652E-01    0.291E+00
DAV:   4    -0.656125276259E+03    0.29226E-01   -0.29471E-01   852   0.432E-01    0.932E-01
DAV:   5    -0.656124310597E+03    0.96566E-03   -0.31947E-02   876   0.165E-01    0.830E-01
DAV:   6    -0.656123530469E+03    0.78013E-03   -0.56163E-03   864   0.122E-01    0.762E-01
DAV:   7    -0.656122290204E+03    0.12403E-02   -0.37222E-03   768   0.651E-02    0.601E-01
DAV:   8    -0.656121457574E+03    0.83263E-03   -0.31506E-03   768   0.716E-02    0.143E-01
DAV:   9    -0.656121452152E+03    0.54223E-05   -0.49612E-04   648   0.360E-02
  17 F= -.67148784E+03 E0= -.67142554E+03  d E =-.163728E-01
       N       E                     dE             d eps       ncg     rms          rms(c)
DAV:   1    -0.656129576341E+03   -0.81188E-02   -0.10455E+00   600   0.134E+00    0.502E-01
DAV:   2    -0.656139516676E+03   -0.99403E-02   -0.60084E-02   876   0.357E-01    0.180E+00
DAV:   3    -0.656141706374E+03   -0.21897E-02   -0.26205E-01   876   0.405E-01    0.187E+00
DAV:   4    -0.656133204992E+03    0.85014E-02   -0.10312E-01   792   0.214E-01    0.527E-01
DAV:   5    -0.656132423140E+03    0.78185E-03   -0.93759E-03   792   0.772E-02    0.418E-01
DAV:   6    -0.656132533921E+03   -0.11078E-03   -0.20923E-03   732   0.652E-02    0.525E-01
DAV:   7    -0.656132298137E+03    0.23578E-03   -0.12611E-03   516   0.361E-02    0.445E-01
DAV:   8    -0.656131850258E+03    0.44788E-03   -0.46170E-04   408   0.329E-02    0.185E-01
DAV:   9    -0.656131835268E+03    0.14990E-04   -0.16488E-04   384   0.171E-02
  18 F= -.67149827E+03 E0= -.67143589E+03  d E =-.104298E-01
       N       E                     dE             d eps       ncg     rms          rms(c)
DAV:   1    -0.656127636508E+03    0.42138E-02   -0.73701E+00   600   0.356E+00    0.136E+00
DAV:   2    -0.656187636333E+03   -0.60000E-01   -0.34078E-01   852   0.925E-01    0.352E+00
DAV:   3    -0.656214905782E+03   -0.27269E-01   -0.16106E+00   876   0.112E+00    0.354E+00
DAV:   4    -0.656148692158E+03    0.66214E-01   -0.28360E-01   840   0.638E-01    0.101E+00
DAV:   5    -0.656153203862E+03   -0.45117E-02   -0.14295E-01   864   0.290E-01    0.178E+00
DAV:   6    -0.656147731596E+03    0.54723E-02   -0.44752E-02   852   0.119E-01    0.128E+00
DAV:   7    -0.656144152417E+03    0.35792E-02   -0.16760E-02   852   0.110E-01    0.551E-01
DAV:   8    -0.656143385440E+03    0.76698E-03   -0.81729E-03   852   0.123E-01    0.289E-01
DAV:   9    -0.656143273860E+03    0.11158E-03   -0.17793E-03   768   0.508E-02    0.624E-02
DAV:  10    -0.656143312056E+03   -0.38196E-04   -0.50954E-04   492   0.289E-02
  19 F= -.67150993E+03 E0= -.67144787E+03  d E =-.220866E-01
       N       E                     dE             d eps       ncg     rms          rms(c)
DAV:   1    -0.656149029312E+03   -0.57555E-02   -0.39191E-01   600   0.818E-01    0.285E-01
DAV:   2    -0.656149762296E+03   -0.73298E-03   -0.11981E-02   852   0.151E-01    0.223E-01
DAV:   3    -0.656154933402E+03   -0.51711E-02   -0.23626E-02   828   0.182E-01    0.153E+00
DAV:   4    -0.656149832790E+03    0.51006E-02   -0.17770E-02   696   0.147E-01    0.113E-01
DAV:   5    -0.656149782282E+03    0.50508E-04   -0.21928E-03   612   0.452E-02    0.345E-01
DAV:   6    -0.656149636766E+03    0.14552E-03   -0.31265E-04   468   0.251E-02    0.222E-01
DAV:   7    -0.656149622829E+03    0.13938E-04   -0.19593E-04   432   0.288E-02
  20 F= -.67151552E+03 E0= -.67145289E+03  d E =-.559268E-02
       N       E                     dE             d eps       ncg     rms          rms(c)
DAV:   1    -0.656153169017E+03   -0.35323E-02   -0.17098E+00   600   0.171E+00    0.600E-01
DAV:   2    -0.656164338969E+03   -0.11170E-01   -0.12103E-01   888   0.405E-01    0.181E+00
DAV:   3    -0.656171745178E+03   -0.74062E-02   -0.30652E-01   876   0.458E-01    0.245E+00
DAV:   4    -0.656156656270E+03    0.15089E-01   -0.37117E-02   864   0.238E-01    0.210E-01
DAV:   5    -0.656155668287E+03    0.98798E-03   -0.49316E-03   816   0.807E-02    0.354E-01
DAV:   6    -0.656155493376E+03    0.17491E-03   -0.19753E-03   756   0.539E-02    0.151E-01
DAV:   7    -0.656155552339E+03   -0.58962E-04   -0.10920E-03   696   0.461E-02    0.132E-01
DAV:   8    -0.656155294904E+03    0.25743E-03   -0.54911E-04   432   0.296E-02    0.521E-02
DAV:   9    -0.656155303214E+03   -0.83102E-05   -0.47939E-05   336   0.152E-02
  21 F= -.67151972E+03 E0= -.67145755E+03  d E =-.979193E-02
       N       E                     dE             d eps       ncg     rms          rms(c)
DAV:   1    -0.656159676766E+03   -0.43819E-02   -0.24277E-01   600   0.613E-01    0.178E-01
DAV:   2    -0.656160129050E+03   -0.45228E-03   -0.57683E-03   816   0.104E-01    0.972E-02
DAV:   3    -0.656160211891E+03   -0.82840E-04   -0.77591E-04   552   0.385E-02
  22 F= -.67152388E+03 E0= -.67146135E+03  d E =-.416206E-02
       N       E                     dE             d eps       ncg     rms          rms(c)
DAV:   1    -0.656165096280E+03   -0.49672E-02   -0.21830E+00   600   0.184E+00    0.549E-01
DAV:   2    -0.656189067238E+03   -0.23971E-01   -0.11812E-01   864   0.502E-01    0.272E+00
DAV:   3    -0.656173778871E+03    0.15288E-01   -0.22799E-01   876   0.458E-01    0.134E+00
DAV:   4    -0.656169320192E+03    0.44587E-02   -0.59976E-02   816   0.165E-01    0.598E-01
DAV:   5    -0.656168115858E+03    0.12043E-02   -0.49663E-03   792   0.693E-02    0.226E-01
DAV:   6    -0.656169206064E+03   -0.10902E-02   -0.42488E-03   840   0.874E-02    0.724E-01
DAV:   7    -0.656168756075E+03    0.44999E-03   -0.66226E-04   684   0.467E-02    0.528E-01
DAV:   8    -0.656168090417E+03    0.66566E-03   -0.15026E-03   540   0.416E-02    0.353E-01
DAV:   9    -0.656167861388E+03    0.22903E-03   -0.70835E-04   492   0.344E-02    0.100E-01
DAV:  10    -0.656167889773E+03   -0.28385E-04   -0.60880E-05   396   0.150E-02
  23 F= -.67152934E+03 E0= -.67146706E+03  d E =-.962172E-02
       N       E                     dE             d eps       ncg     rms          rms(c)
DAV:   1    -0.656175141230E+03   -0.72798E-02   -0.47062E-01   624   0.880E-01    0.341E-01
DAV:   2    -0.656176671677E+03   -0.15304E-02   -0.17161E-02   840   0.181E-01    0.561E-01
DAV:   3    -0.656185731896E+03   -0.90602E-02   -0.12142E-01   828   0.292E-01    0.191E+00
DAV:   4    -0.656176946269E+03    0.87856E-02   -0.99838E-02   732   0.231E-01    0.455E-01
DAV:   5    -0.656176053079E+03    0.89319E-03   -0.30912E-03   600   0.609E-02    0.114E-01
DAV:   6    -0.656175908348E+03    0.14473E-03   -0.40855E-04   468   0.315E-02    0.592E-02
DAV:   7    -0.656176038389E+03   -0.13004E-03   -0.25516E-04   456   0.280E-02    0.743E-02
DAV:   8    -0.656175906413E+03    0.13198E-03   -0.27646E-04   336   0.251E-02    0.639E-02
DAV:   9    -0.656175910075E+03   -0.36619E-05   -0.36155E-05   324   0.111E-02
  24 F= -.67153617E+03 E0= -.67147410E+03  d E =-.683119E-02
       N       E                     dE             d eps       ncg     rms          rms(c)
DAV:   1    -0.656181133129E+03   -0.52267E-02   -0.36695E+00   600   0.246E+00    0.939E-01
DAV:   2    -0.656192027126E+03   -0.10894E-01   -0.15415E-01   864   0.504E-01    0.125E+00
DAV:   3    -0.656256292358E+03   -0.64265E-01   -0.49089E-01   876   0.732E-01    0.388E+00
DAV:   4    -0.656190154891E+03    0.66137E-01   -0.70491E-02   840   0.596E-01    0.392E-01
DAV:   5    -0.656188723688E+03    0.14312E-02   -0.55663E-03   852   0.130E-01    0.777E-01
DAV:   6    -0.656187125703E+03    0.15980E-02   -0.22341E-03   768   0.743E-02    0.235E-01
DAV:   7    -0.656187319050E+03   -0.19335E-03   -0.56535E-03   864   0.110E-01    0.352E-01
DAV:   8    -0.656187116797E+03    0.20225E-03   -0.22555E-03   720   0.502E-02    0.914E-02
DAV:   9    -0.656187026248E+03    0.90549E-04   -0.34359E-04   576   0.339E-02
  25 F= -.67154401E+03 E0= -.67148196E+03  d E =-.146674E-01
       N       E                     dE             d eps       ncg     rms          rms(c)
DAV:   1    -0.656192800982E+03   -0.56842E-02   -0.10283E+00   612   0.130E+00    0.456E-01
DAV:   2    -0.656195285928E+03   -0.24849E-02   -0.31753E-02   864   0.240E-01    0.313E-01
DAV:   3    -0.656203718338E+03   -0.84324E-02   -0.87149E-02   840   0.252E-01    0.181E+00
DAV:   4    -0.656196050485E+03    0.76679E-02   -0.90192E-02   792   0.225E-01    0.523E-01
DAV:   5    -0.656195173953E+03    0.87653E-03   -0.15557E-03   780   0.725E-02    0.147E-01
DAV:   6    -0.656194940804E+03    0.23315E-03   -0.10876E-03   708   0.509E-02    0.956E-02
DAV:   7    -0.656194877929E+03    0.62874E-04   -0.41869E-04   648   0.358E-02
  26 F= -.67155043E+03 E0= -.67148798E+03  d E =-.642161E-02
       N       E                     dE             d eps       ncg     rms          rms(c)
DAV:   1    -0.656194179307E+03    0.76150E-03   -0.42205E+00   600   0.263E+00    0.909E-01
DAV:   2    -0.656204365436E+03   -0.10186E-01   -0.13003E-01   840   0.490E-01    0.759E-01
DAV:   3    -0.656247116115E+03   -0.42751E-01   -0.47559E-01   840   0.574E-01    0.324E+00
DAV:   4    -0.656206130318E+03    0.40986E-01   -0.30820E-01   828   0.496E-01    0.916E-01
DAV:   5    -0.656203329165E+03    0.28012E-02   -0.58400E-03   888   0.114E-01    0.289E-01
DAV:   6    -0.656203128113E+03    0.20105E-03   -0.63030E-03   840   0.112E-01    0.302E-01
DAV:   7    -0.656202898021E+03    0.23009E-03   -0.26559E-03   744   0.683E-02    0.282E-01
DAV:   8    -0.656202475964E+03    0.42206E-03   -0.47070E-04   672   0.448E-02    0.765E-02
DAV:   9    -0.656202437423E+03    0.38541E-04   -0.17454E-04   396   0.247E-02
  27 F= -.67155512E+03 E0= -.67149297E+03  d E =-.111116E-01
       N       E                     dE             d eps       ncg     rms          rms(c)
DAV:   1    -0.656207323027E+03   -0.48471E-02   -0.60083E-01   624   0.956E-01    0.321E-01
DAV:   2    -0.656211495419E+03   -0.41724E-02   -0.32824E-02   840   0.219E-01    0.119E+00
DAV:   3    -0.656212506935E+03   -0.10115E-02   -0.96961E-02   876   0.250E-01    0.126E+00
DAV:   4    -0.656209267871E+03    0.32391E-02   -0.40746E-02   756   0.156E-01    0.477E-01
DAV:   5    -0.656208552387E+03    0.71548E-03   -0.85813E-04   708   0.583E-02    0.138E-01
DAV:   6    -0.656208368784E+03    0.18360E-03   -0.10914E-03   600   0.424E-02    0.699E-02
DAV:   7    -0.656208392349E+03   -0.23565E-04   -0.27950E-04   588   0.263E-02
  28 F= -.67156017E+03 E0= -.67149782E+03  d E =-.504804E-02
       N       E                     dE             d eps       ncg     rms          rms(c)
DAV:   1    -0.656209636238E+03   -0.12675E-02   -0.53983E+00   600   0.286E+00    0.930E-01
DAV:   2    -0.656227454041E+03   -0.17818E-01   -0.18843E-01   840   0.559E-01    0.186E+00
DAV:   3    -0.656268633407E+03   -0.41179E-01   -0.82241E-01   876   0.740E-01    0.328E+00
DAV:   4    -0.656223811292E+03    0.44822E-01   -0.35190E-01   840   0.522E-01    0.104E+00
DAV:   5    -0.656220088833E+03    0.37225E-02   -0.83795E-03   900   0.144E-01    0.399E-01
DAV:   6    -0.656219663634E+03    0.42520E-03   -0.66021E-03   864   0.124E-01    0.428E-01
DAV:   7    -0.656219740368E+03   -0.76734E-04   -0.82029E-03   744   0.891E-02    0.233E-01
DAV:   8    -0.656218862325E+03    0.87804E-03   -0.11594E-03   756   0.712E-02    0.252E-01
DAV:   9    -0.656218787853E+03    0.74472E-04   -0.21662E-04   504   0.229E-02
  29 F= -.67156788E+03 E0= -.67150617E+03  d E =-.127622E-01
       N       E                     dE             d eps       ncg     rms          rms(c)
DAV:   1    -0.656225785828E+03   -0.69235E-02   -0.73344E-01   600   0.112E+00    0.275E-01
DAV:   2    -0.656226953197E+03   -0.11674E-02   -0.15700E-02   864   0.183E-01    0.210E-01
DAV:   3    -0.656232225804E+03   -0.52726E-02   -0.28630E-02   756   0.180E-01    0.156E+00
DAV:   4    -0.656227031337E+03    0.51945E-02   -0.21957E-02   684   0.146E-01    0.127E-01
DAV:   5    -0.656227001951E+03    0.29386E-04   -0.27154E-03   624   0.514E-02    0.325E-01
DAV:   6    -0.656226815814E+03    0.18614E-03   -0.11647E-03   672   0.416E-02    0.180E-01
DAV:   7    -0.656226717479E+03    0.98335E-04   -0.19273E-04   468   0.267E-02
  30 F= -.67157488E+03 E0= -.67151275E+03  d E =-.699605E-02
       N       E                     dE             d eps       ncg     rms          rms(c)
DAV:   1    -0.656232778433E+03   -0.59626E-02   -0.65972E+00   600   0.335E+00    0.809E-01
DAV:   2    -0.656244436981E+03   -0.11659E-01   -0.13962E-01   828   0.524E-01    0.107E+00
DAV:   3    -0.656283386947E+03   -0.38950E-01   -0.53798E-01   852   0.587E-01    0.318E+00
DAV:   4    -0.656245015053E+03    0.38372E-01   -0.34047E-01   864   0.522E-01    0.104E+00
DAV:   5    -0.656244532950E+03    0.48210E-03   -0.29299E-02   888   0.166E-01    0.870E-01
DAV:   6    -0.656242687336E+03    0.18456E-02   -0.15303E-02   828   0.134E-01    0.763E-01
DAV:   7    -0.656241434763E+03    0.12526E-02   -0.28383E-03   720   0.639E-02    0.640E-01
DAV:   8    -0.656240506974E+03    0.92779E-03   -0.48468E-03   708   0.762E-02    0.654E-02
DAV:   9    -0.656240586026E+03   -0.79053E-04   -0.36939E-04   648   0.345E-02
  31 F= -.67158603E+03 E0= -.67152356E+03  d E =-.181416E-01
       N       E                     dE             d eps       ncg     rms          rms(c)
DAV:   1    -0.656241221082E+03   -0.71411E-03   -0.42466E-01   600   0.850E-01    0.209E-01
DAV:   2    -0.656241910796E+03   -0.68971E-03   -0.92159E-03   852   0.138E-01    0.145E-01
DAV:   3    -0.656244478013E+03   -0.25672E-02   -0.18380E-02   792   0.130E-01    0.110E+00
DAV:   4    -0.656241995090E+03    0.24829E-02   -0.87231E-03   588   0.980E-02    0.106E-01
DAV:   5    -0.656241967080E+03    0.28010E-04   -0.41464E-04   588   0.435E-02
  32 F= -.67158674E+03 E0= -.67152535E+03  d E =-.188504E-01
       N       E                     dE             d eps       ncg     rms          rms(c)
DAV:   1    -0.656247710722E+03   -0.57156E-02   -0.18650E+00   600   0.172E+00    0.536E-01
DAV:   2    -0.656257009846E+03   -0.92991E-02   -0.96413E-02   864   0.384E-01    0.155E+00
DAV:   3    -0.656263981356E+03   -0.69715E-02   -0.22920E-01   888   0.400E-01    0.227E+00
DAV:   4    -0.656251862955E+03    0.12118E-01   -0.31352E-02   852   0.209E-01    0.236E-01
DAV:   5    -0.656250978747E+03    0.88421E-03   -0.28358E-03   816   0.735E-02    0.293E-01
DAV:   6    -0.656250819736E+03    0.15901E-03   -0.15011E-03   744   0.461E-02    0.926E-02
DAV:   7    -0.656251048256E+03   -0.22852E-03   -0.10096E-03   720   0.433E-02    0.115E-01
DAV:   8    -0.656250756845E+03    0.29141E-03   -0.34453E-04   420   0.255E-02    0.387E-02
DAV:   9    -0.656250768019E+03   -0.11174E-04   -0.69844E-05   372   0.159E-02
  33 F= -.67159344E+03 E0= -.67153105E+03  d E =-.670277E-02
       N       E                     dE             d eps       ncg     rms          rms(c)
DAV:   1    -0.656252010824E+03   -0.12540E-02   -0.20032E+00   600   0.178E+00    0.553E-01
DAV:   2    -0.656256520942E+03   -0.45101E-02   -0.54495E-02   828   0.325E-01    0.567E-01
DAV:   3    -0.656279424061E+03   -0.22903E-01   -0.27592E-01   852   0.391E-01    0.273E+00
DAV:   4    -0.656257182761E+03    0.22241E-01   -0.19886E-01   828   0.342E-01    0.458E-01
DAV:   5    -0.656256096946E+03    0.10858E-02   -0.10617E-02   816   0.824E-02    0.471E-01
DAV:   6    -0.656256041009E+03    0.55937E-04   -0.14012E-03   756   0.609E-02    0.529E-01
DAV:   7    -0.656255938430E+03    0.10258E-03   -0.23389E-03   588   0.438E-02    0.355E-01
DAV:   8    -0.656255504836E+03    0.43359E-03   -0.30608E-04   504   0.346E-02    0.188E-01
DAV:   9    -0.656255452111E+03    0.52725E-04   -0.26690E-04   384   0.214E-02
  34 F= -.67159598E+03 E0= -.67153344E+03  d E =-.924507E-02
       N       E                     dE             d eps       ncg     rms          rms(c)
DAV:   1    -0.656261613451E+03   -0.61086E-02   -0.94496E-01   600   0.119E+00    0.433E-01
DAV:   2    -0.656265134724E+03   -0.35213E-02   -0.32280E-02   864   0.247E-01    0.861E-01
DAV:   3    -0.656276760356E+03   -0.11626E-01   -0.20451E-01   864   0.321E-01    0.218E+00
DAV:   4    -0.656264746310E+03    0.12014E-01   -0.13575E-01   816   0.257E-01    0.489E-01
DAV:   5    -0.656263984331E+03    0.76198E-03   -0.10152E-02   804   0.746E-02    0.424E-01
DAV:   6    -0.656263738075E+03    0.24626E-03   -0.79319E-04   660   0.414E-02    0.395E-01
DAV:   7    -0.656263553131E+03    0.18494E-03   -0.27793E-04   420   0.200E-02    0.281E-01
DAV:   8    -0.656263416432E+03    0.13670E-03   -0.37737E-04   396   0.220E-02    0.111E-01
DAV:   9    -0.656263432469E+03   -0.16037E-04   -0.49194E-05   384   0.125E-02
  35 F= -.67160210E+03 E0= -.67153959E+03  d E =-.611611E-02
       N       E                     dE             d eps       ncg     rms          rms(c)
DAV:   1    -0.656261582237E+03    0.18342E-02   -0.85037E+00   600   0.356E+00    0.127E+00
DAV:   2    -0.656281739840E+03   -0.20158E-01   -0.24401E-01   840   0.669E-01    0.107E+00
DAV:   3    -0.656357248127E+03   -0.75508E-01   -0.87630E-01   852   0.775E-01    0.366E+00
DAV:   4    -0.656281591781E+03    0.75656E-01   -0.22129E-01   852   0.649E-01    0.830E-01
DAV:   5    -0.656282401003E+03   -0.80922E-03   -0.96198E-02   864   0.189E-01    0.129E+00
DAV:   6    -0.656279979641E+03    0.24214E-02   -0.10409E-02   816   0.105E-01    0.878E-01
DAV:   7    -0.656279977196E+03    0.24451E-05   -0.23957E-03   768   0.659E-02    0.715E-01
DAV:   8    -0.656277855575E+03    0.21216E-02   -0.16963E-02   804   0.112E-01    0.114E-01
DAV:   9    -0.656277885327E+03   -0.29751E-04   -0.74914E-04   780   0.462E-02
  36 F= -.67161104E+03 E0= -.67154863E+03  d E =-.150571E-01
       N       E                     dE             d eps       ncg     rms          rms(c)
DAV:   1    -0.656284200992E+03   -0.63454E-02   -0.69642E-01   600   0.109E+00    0.346E-01
DAV:   2    -0.656294517038E+03   -0.10316E-01   -0.97824E-02   888   0.287E-01    0.189E+00
DAV:   3    -0.656288503139E+03    0.60139E-02   -0.16102E-01   888   0.302E-01    0.112E+00
DAV:   4    -0.656285656657E+03    0.28465E-02   -0.16253E-02   744   0.100E-01    0.192E-01
DAV:   5    -0.656285284406E+03    0.37225E-03   -0.32632E-03   720   0.517E-02    0.127E-01
DAV:   6    -0.656285285080E+03   -0.67346E-06   -0.13311E-03   684   0.402E-02    0.899E-02
DAV:   7    -0.656285137396E+03    0.14768E-03   -0.55679E-04   480   0.314E-02    0.515E-02
DAV:   8    -0.656285135593E+03    0.18032E-05   -0.62745E-05   360   0.177E-02
  37 F= -.67161639E+03 E0= -.67155386E+03  d E =-.535527E-02
       N       E                     dE             d eps       ncg     rms          rms(c)
DAV:   1    -0.656289344753E+03   -0.42074E-02   -0.62585E+00   600   0.326E+00    0.942E-01
DAV:   2    -0.656305319826E+03   -0.15975E-01   -0.20133E-01   816   0.567E-01    0.160E+00
DAV:   3    -0.656355489728E+03   -0.50170E-01   -0.51757E-01   876   0.698E-01    0.367E+00
DAV:   4    -0.656300467620E+03    0.55022E-01   -0.86201E-02   864   0.511E-01    0.389E-01
DAV:   5    -0.656298556897E+03    0.19107E-02   -0.10918E-02   852   0.112E-01    0.587E-01
DAV:   6    -0.656298497277E+03    0.59619E-04   -0.11950E-02   768   0.789E-02    0.516E-01
DAV:   7    -0.656298794464E+03   -0.29719E-03   -0.26999E-03   792   0.759E-02    0.527E-01
DAV:   8    -0.656298181479E+03    0.61299E-03   -0.23797E-03   648   0.452E-02    0.432E-01
DAV:   9    -0.656297751518E+03    0.42996E-03   -0.12538E-03   564   0.427E-02    0.827E-02
DAV:  10    -0.656297767493E+03   -0.15975E-04   -0.14994E-04   468   0.211E-02
  38 F= -.67162337E+03 E0= -.67156065E+03  d E =-.123372E-01
       N       E                     dE             d eps       ncg     rms          rms(c)
DAV:   1    -0.656303722990E+03   -0.59715E-02   -0.92503E-01   600   0.122E+00    0.315E-01
DAV:   2    -0.656305506299E+03   -0.17833E-02   -0.22936E-02   792   0.198E-01    0.390E-01
DAV:   3    -0.656312586258E+03   -0.70800E-02   -0.32439E-02   864   0.216E-01    0.177E+00
DAV:   4    -0.656305840680E+03    0.67456E-02   -0.29996E-02   744   0.190E-01    0.443E-01
DAV:   5    -0.656305664144E+03    0.17654E-03   -0.28031E-03   792   0.739E-02    0.209E-01
DAV:   6    -0.656305069166E+03    0.59498E-03   -0.11626E-03   720   0.500E-02    0.182E-01
DAV:   7    -0.656304976887E+03    0.92279E-04   -0.51250E-04   384   0.263E-02
  39 F= -.67162825E+03 E0= -.67156564E+03  d E =-.487161E-02
       N       E                     dE             d eps       ncg     rms          rms(c)
DAV:   1    -0.656306727471E+03   -0.16583E-02   -0.69058E+00   600   0.332E+00    0.864E-01
DAV:   2    -0.656323426699E+03   -0.16699E-01   -0.20452E-01   792   0.553E-01    0.159E+00
DAV:   3    -0.656360319742E+03   -0.36893E-01   -0.42643E-01   876   0.620E-01    0.339E+00
DAV:   4    -0.656319272198E+03    0.41048E-01   -0.87404E-02   852   0.487E-01    0.684E-01
DAV:   5    -0.656319641289E+03   -0.36909E-03   -0.10820E-02   864   0.165E-01    0.451E-01
DAV:   6    -0.656316249844E+03    0.33914E-02   -0.55580E-03   792   0.119E-01    0.243E-01
DAV:   7    -0.656316091208E+03    0.15864E-03   -0.20665E-03   768   0.594E-02    0.163E-01
DAV:   8    -0.656316099991E+03   -0.87831E-05   -0.49925E-04   672   0.336E-02
  40 F= -.67163298E+03 E0= -.67157014E+03  d E =-.960801E-02
       N       E                     dE             d eps       ncg     rms          rms(c)
DAV:   1    -0.656321314174E+03   -0.52230E-02   -0.94872E-01   600   0.119E+00    0.337E-01
DAV:   2    -0.656323110605E+03   -0.17964E-02   -0.23024E-02   852   0.208E-01    0.236E-01
DAV:   3    -0.656325279114E+03   -0.21685E-02   -0.50480E-03   864   0.118E-01    0.959E-01
DAV:   4    -0.656323911385E+03    0.13677E-02   -0.30818E-02   744   0.137E-01    0.618E-01
DAV:   5    -0.656323158663E+03    0.75272E-03   -0.12102E-02   744   0.739E-02    0.179E-01
DAV:   6    -0.656322749554E+03    0.40911E-03   -0.90250E-04   744   0.479E-02    0.839E-02
DAV:   7    -0.656322768993E+03   -0.19438E-04   -0.55281E-04   696   0.347E-02
  41 F= -.67163725E+03 E0= -.67157435E+03  d E =-.426367E-02
       N       E                     dE             d eps       ncg     rms          rms(c)
DAV:   1    -0.656324576256E+03   -0.18267E-02   -0.62753E+00   600   0.306E+00    0.864E-01
DAV:   2    -0.656337552488E+03   -0.12976E-01   -0.16697E-01   840   0.517E-01    0.108E+00
DAV:   3    -0.656385272266E+03   -0.47720E-01   -0.25053E-01   828   0.589E-01    0.353E+00
DAV:   4    -0.656337031681E+03    0.48241E-01   -0.11854E-01   840   0.556E-01    0.723E-01
DAV:   5    -0.656337318504E+03   -0.28682E-03   -0.40863E-02   912   0.180E-01    0.119E+00
DAV:   6    -0.656334003403E+03    0.33151E-02   -0.72845E-03   840   0.102E-01    0.149E-01
DAV:   7    -0.656334097191E+03   -0.93788E-04   -0.19754E-03   804   0.788E-02    0.260E-01
DAV:   8    -0.656333793637E+03    0.30355E-03   -0.31126E-04   552   0.297E-02    0.893E-02
DAV:   9    -0.656333761674E+03    0.31963E-04   -0.18884E-04   468   0.259E-02
  42 F= -.67164203E+03 E0= -.67157918E+03  d E =-.905210E-02
       N       E                     dE             d eps       ncg     rms          rms(c)
DAV:   1    -0.656338778434E+03   -0.49848E-02   -0.36357E-01   600   0.808E-01    0.276E-01
DAV:   2    -0.656339625107E+03   -0.84667E-03   -0.11173E-02   852   0.150E-01    0.182E-01
DAV:   3    -0.656341670884E+03   -0.20458E-02   -0.65230E-03   828   0.115E-01    0.965E-01
DAV:   4    -0.656339989319E+03    0.16816E-02   -0.12077E-02   624   0.122E-01    0.427E-01
DAV:   5    -0.656339717305E+03    0.27201E-03   -0.11816E-03   648   0.508E-02    0.101E-01
DAV:   6    -0.656339517758E+03    0.19955E-03   -0.42053E-04   528   0.330E-02    0.698E-02
DAV:   7    -0.656339513810E+03    0.39472E-05   -0.23768E-04   468   0.249E-02
  43 F= -.67164654E+03 E0= -.67158379E+03  d E =-.450467E-02
       N       E                     dE             d eps       ncg     rms          rms(c)
DAV:   1    -0.656342441388E+03   -0.29236E-02   -0.23013E+00   600   0.204E+00    0.696E-01
DAV:   2    -0.656347488904E+03   -0.50475E-02   -0.67512E-02   852   0.376E-01    0.333E-01
DAV:   3    -0.656347848666E+03   -0.35976E-03   -0.12513E-02   852   0.131E-01    0.657E-01
DAV:   4    -0.656347187484E+03    0.66118E-03   -0.13918E-02   804   0.939E-02    0.371E-01
DAV:   5    -0.656347948627E+03   -0.76114E-03   -0.24393E-03   828   0.773E-02    0.491E-01
DAV:   6    -0.656347288772E+03    0.65986E-03   -0.18307E-03   744   0.698E-02    0.235E-01
DAV:   7    -0.656346875655E+03    0.41312E-03   -0.86247E-04   768   0.455E-02    0.212E-01
DAV:   8    -0.656346784346E+03    0.91308E-04   -0.40287E-04   576   0.298E-02
  44 F= -.67165065E+03 E0= -.67158793E+03  d E =-.861339E-02
       N       E                     dE             d eps       ncg     rms          rms(c)
DAV:   1    -0.656350153920E+03   -0.32783E-02   -0.59041E-01   600   0.990E-01    0.287E-01
DAV:   2    -0.656351511244E+03   -0.13573E-02   -0.15830E-02   828   0.180E-01    0.316E-01
DAV:   3    -0.656358622318E+03   -0.71111E-02   -0.80416E-02   876   0.203E-01    0.172E+00
DAV:   4    -0.656351745061E+03    0.68773E-02   -0.56880E-02   744   0.158E-01    0.222E-01
DAV:   5    -0.656351662202E+03    0.82859E-04   -0.12153E-03   756   0.631E-02    0.283E-01
DAV:   6    -0.656351260130E+03    0.40207E-03   -0.86508E-04   672   0.421E-02    0.204E-01
DAV:   7    -0.656351183619E+03    0.76511E-04   -0.24411E-04   444   0.220E-02
  45 F= -.67165365E+03 E0= -.67159083E+03  d E =-.299694E-02
       N       E                     dE             d eps       ncg     rms          rms(c)
DAV:   1    -0.656352147334E+03   -0.88720E-03   -0.26999E-01   600   0.671E-01    0.198E-01
DAV:   2    -0.656353351784E+03   -0.12045E-02   -0.11068E-02   828   0.126E-01    0.551E-01
DAV:   3    -0.656354514156E+03   -0.11624E-02   -0.18530E-02   744   0.138E-01    0.912E-01
DAV:   4    -0.656352871577E+03    0.16426E-02   -0.77122E-03   624   0.924E-02    0.152E-01
DAV:   5    -0.656352705323E+03    0.16625E-03   -0.17358E-03   516   0.429E-02    0.122E-01
DAV:   6    -0.656352640657E+03    0.64666E-04   -0.40193E-04   612   0.286E-02
  46 F= -.67165415E+03 E0= -.67159184E+03  d E =-.350147E-02
       N       E                     dE             d eps       ncg     rms          rms(c)
DAV:   1    -0.656357131886E+03   -0.44266E-02   -0.65578E-01   600   0.102E+00    0.295E-01
DAV:   2    -0.656360502007E+03   -0.33701E-02   -0.35510E-02   840   0.206E-01    0.102E+00
DAV:   3    -0.656361363065E+03   -0.86106E-03   -0.62975E-02   828   0.199E-01    0.117E+00
DAV:   4    -0.656358418163E+03    0.29449E-02   -0.13846E-02   804   0.117E-01    0.275E-01
DAV:   5    -0.656358270595E+03    0.14757E-03   -0.35993E-03   804   0.599E-02    0.128E-01
DAV:   6    -0.656358119684E+03    0.15091E-03   -0.11650E-03   660   0.410E-02    0.863E-02
DAV:   7    -0.656357989319E+03    0.13037E-03   -0.63157E-04   696   0.342E-02    0.378E-02
DAV:   8    -0.656357973440E+03    0.15879E-04   -0.83834E-05   384   0.157E-02
  47 F= -.67165813E+03 E0= -.67159552E+03  d E =-.398423E-02
       N       E                     dE             d eps       ncg     rms          rms(c)
DAV:   1    -0.656360398378E+03   -0.24091E-02   -0.14429E+00   600   0.151E+00    0.427E-01
DAV:   2    -0.656362962086E+03   -0.25637E-02   -0.34569E-02   792   0.246E-01    0.350E-01
DAV:   3    -0.656371971918E+03   -0.90098E-02   -0.24695E-02   864   0.231E-01    0.195E+00
DAV:   4    -0.656363708828E+03    0.82631E-02   -0.55990E-02   792   0.220E-01    0.547E-01
DAV:   5    -0.656363086975E+03    0.62185E-03   -0.15714E-02   756   0.921E-02    0.203E-01
DAV:   6    -0.656362370773E+03    0.71620E-03   -0.12426E-03   708   0.519E-02    0.156E-01
DAV:   7    -0.656362336626E+03    0.34148E-04   -0.63290E-04   660   0.339E-02
  48 F= -.67166050E+03 E0= -.67159776E+03  d E =-.634932E-02
       N       E                     dE             d eps       ncg     rms          rms(c)
DAV:   1    -0.656366035388E+03   -0.36646E-02   -0.56531E-01   600   0.997E-01    0.317E-01
DAV:   2    -0.656367608469E+03   -0.15731E-02   -0.17007E-02   840   0.189E-01    0.466E-01
DAV:   3    -0.656376409448E+03   -0.88010E-02   -0.10852E-01   852   0.237E-01    0.192E+00
DAV:   4    -0.656367696646E+03    0.87128E-02   -0.77217E-02   768   0.173E-01    0.232E-01
DAV:   5    -0.656367362423E+03    0.33422E-03   -0.53846E-03   648   0.564E-02    0.383E-01
DAV:   6    -0.656367362009E+03    0.41364E-06   -0.16878E-03   648   0.389E-02    0.284E-01
DAV:   7    -0.656367079678E+03    0.28233E-03   -0.31799E-04   468   0.267E-02    0.198E-01
DAV:   8    -0.656366992833E+03    0.86845E-04   -0.49507E-04   420   0.274E-02
  49 F= -.67166370E+03 E0= -.67160106E+03  d E =-.320080E-02
       N       E                     dE             d eps       ncg     rms          rms(c)
DAV:   1    -0.656368575794E+03   -0.14961E-02   -0.75414E-01   600   0.115E+00    0.370E-01
DAV:   2    -0.656370848669E+03   -0.22729E-02   -0.26254E-02   852   0.212E-01    0.602E-01
DAV:   3    -0.656381971664E+03   -0.11123E-01   -0.59316E-02   876   0.270E-01    0.218E+00
DAV:   4    -0.656370682149E+03    0.11290E-01   -0.28716E-02   744   0.209E-01    0.249E-01
DAV:   5    -0.656370509301E+03    0.17285E-03   -0.55434E-03   732   0.678E-02    0.522E-01
DAV:   6    -0.656369992771E+03    0.51653E-03   -0.76170E-04   564   0.330E-02    0.226E-01
DAV:   7    -0.656369920530E+03    0.72241E-04   -0.66202E-04   432   0.315E-02
  50 F= -.67166495E+03 E0= -.67160286E+03  d E =-.444769E-02
       N       E                     dE             d eps       ncg     rms          rms(c)
DAV:   1    -0.656372740016E+03   -0.27472E-02   -0.75525E-01   600   0.108E+00    0.389E-01
DAV:   2    -0.656378123272E+03   -0.53833E-02   -0.60499E-02   852   0.261E-01    0.125E+00
DAV:   3    -0.656380910666E+03   -0.27874E-02   -0.13503E-01   852   0.251E-01    0.163E+00
DAV:   4    -0.656375747470E+03    0.51632E-02   -0.13456E-02   804   0.163E-01    0.409E-01
DAV:   5    -0.656374397026E+03    0.13504E-02   -0.11072E-03   744   0.744E-02    0.138E-01
DAV:   6    -0.656374349804E+03    0.47221E-04   -0.98921E-04   576   0.420E-02
  51 F= -.67166719E+03 E0= -.67160425E+03  d E =-.223922E-02
       N       E                     dE             d eps       ncg     rms          rms(c)
DAV:   1    -0.656374437199E+03   -0.40174E-04   -0.83605E-03   636   0.116E-01    0.745E-02
DAV:   2    -0.656376135444E+03   -0.16982E-02   -0.51012E-03   720   0.105E-01    0.862E-01
DAV:   3    -0.656374624850E+03    0.15106E-02   -0.81555E-03   564   0.961E-02    0.212E-01
DAV:   4    -0.656374492942E+03    0.13191E-03   -0.14561E-03   456   0.334E-02    0.619E-02
DAV:   5    -0.656374435807E+03    0.57135E-04   -0.14480E-04   348   0.183E-02
  52 F= -.67166705E+03 E0= -.67160453E+03  d E =-.209947E-02
       N       E                     dE             d eps       ncg     rms          rms(c)
DAV:   1    -0.656378173815E+03   -0.36809E-02   -0.74486E-01   600   0.110E+00    0.361E-01
DAV:   2    -0.656381347819E+03   -0.31740E-02   -0.36894E-02   864   0.221E-01    0.872E-01
DAV:   3    -0.656387078320E+03   -0.57305E-02   -0.81383E-02   852   0.234E-01    0.176E+00
DAV:   4    -0.656380352353E+03    0.67260E-02   -0.14693E-02   744   0.168E-01    0.300E-01
DAV:   5    -0.656379863200E+03    0.48915E-03   -0.10974E-03   744   0.710E-02    0.201E-01
DAV:   6    -0.656379431559E+03    0.43164E-03   -0.48613E-04   696   0.411E-02    0.613E-02
DAV:   7    -0.656379433823E+03   -0.22645E-05   -0.26722E-04   576   0.275E-02
  53 F= -.67166965E+03 E0= -.67160708E+03  d E =-.260621E-02
       N       E                     dE             d eps       ncg     rms          rms(c)
DAV:   1    -0.656380420467E+03   -0.98891E-03   -0.13395E-01   600   0.465E-01    0.155E-01
DAV:   2    -0.656380732512E+03   -0.31204E-03   -0.37197E-03   840   0.881E-02    0.134E-01
DAV:   3    -0.656382551722E+03   -0.18192E-02   -0.13563E-02   636   0.993E-02    0.910E-01
DAV:   4    -0.656380798588E+03    0.17531E-02   -0.14951E-02   564   0.818E-02    0.123E-01
DAV:   5    -0.656380751360E+03    0.47228E-04   -0.12715E-03   432   0.345E-02    0.148E-01
DAV:   6    -0.656380671519E+03    0.79841E-04   -0.23542E-04   408   0.217E-02
  54 F= -.67166988E+03 E0= -.67160698E+03  d E =-.283049E-02
       N       E                     dE             d eps       ncg     rms          rms(c)
DAV:   1    -0.656383833142E+03   -0.30818E-02   -0.59087E-01   600   0.100E+00    0.271E-01
DAV:   2    -0.656386084174E+03   -0.22510E-02   -0.16090E-02   852   0.193E-01    0.784E-01
DAV:   3    -0.656387749240E+03   -0.16651E-02   -0.58775E-02   816   0.180E-01    0.114E+00
DAV:   4    -0.656384916231E+03    0.28330E-02   -0.32826E-02   756   0.102E-01    0.204E-01
DAV:   5    -0.656384864047E+03    0.52185E-04   -0.30745E-03   672   0.504E-02    0.192E-01
DAV:   6    -0.656384797623E+03    0.66424E-04   -0.93040E-04   660   0.392E-02
  55 F= -.67167212E+03 E0= -.67160871E+03  d E =-.224507E-02
       N       E                     dE             d eps       ncg     rms          rms(c)
DAV:   1    -0.656386108475E+03   -0.12444E-02   -0.36862E-01   600   0.794E-01    0.241E-01
DAV:   2    -0.656394118896E+03   -0.80104E-02   -0.24138E-02   888   0.237E-01    0.177E+00
DAV:   3    -0.656387599344E+03    0.65196E-02   -0.35893E-02   840   0.208E-01    0.526E-01
DAV:   4    -0.656386891635E+03    0.70771E-03   -0.82865E-03   684   0.660E-02    0.313E-01
DAV:   5    -0.656386584286E+03    0.30735E-03   -0.87038E-04   600   0.347E-02    0.689E-02
DAV:   6    -0.656386720094E+03   -0.13581E-03   -0.10327E-03   552   0.362E-02    0.168E-01
DAV:   7    -0.656386623746E+03    0.96347E-04   -0.31750E-04   420   0.256E-02
  56 F= -.67167246E+03 E0= -.67160938E+03  d E =-.258691E-02
       N       E                     dE             d eps       ncg     rms          rms(c)
DAV:   1    -0.656388278837E+03   -0.15587E-02   -0.65024E-01   600   0.984E-01    0.345E-01
DAV:   2    -0.656401773828E+03   -0.13495E-01   -0.42038E-02   900   0.311E-01    0.220E+00
DAV:   3    -0.656391954261E+03    0.98196E-02   -0.93740E-02   852   0.292E-01    0.937E-01
DAV:   4    -0.656389859211E+03    0.20950E-02   -0.17742E-02   732   0.936E-02    0.254E-01
DAV:   5    -0.656389615944E+03    0.24327E-03   -0.86327E-04   696   0.549E-02    0.204E-01
DAV:   6    -0.656389612878E+03    0.30651E-05   -0.29860E-03   636   0.474E-02    0.415E-01
DAV:   7    -0.656389571982E+03    0.40897E-04   -0.27238E-04   504   0.263E-02
  57 F= -.67167423E+03 E0= -.67161097E+03  d E =-.176234E-02
       N       E                     dE             d eps       ncg     rms          rms(c)
DAV:   1    -0.656389381568E+03    0.23131E-03   -0.62533E-03   612   0.970E-02    0.201E-01
DAV:   2    -0.656408629287E+03   -0.19248E-01   -0.38128E-02   816   0.274E-01    0.264E+00
DAV:   3    -0.656390730752E+03    0.17899E-01   -0.48901E-02   768   0.279E-01    0.427E-01
DAV:   4    -0.656389713967E+03    0.10168E-02   -0.73437E-03   576   0.626E-02    0.339E-01
DAV:   5    -0.656389383152E+03    0.33081E-03   -0.52899E-04   396   0.244E-02    0.124E-01
DAV:   6    -0.656389356424E+03    0.26728E-04   -0.44353E-05   312   0.117E-02
  58 F= -.67167390E+03 E0= -.67161141E+03  d E =-.143468E-02
       N       E                     dE             d eps       ncg     rms          rms(c)
DAV:   1    -0.656390970245E+03   -0.15871E-02   -0.23102E-01   600   0.605E-01    0.196E-01
DAV:   2    -0.656392692194E+03   -0.17219E-02   -0.14180E-02   876   0.136E-01    0.764E-01
DAV:   3    -0.656392623596E+03    0.68598E-04   -0.22267E-02   696   0.125E-01    0.738E-01
DAV:   4    -0.656391612554E+03    0.10110E-02   -0.58384E-03   564   0.787E-02    0.178E-01
DAV:   5    -0.656391364009E+03    0.24854E-03   -0.12710E-03   492   0.362E-02    0.712E-02
DAV:   6    -0.656391331479E+03    0.32530E-04   -0.34362E-04   456   0.248E-02
  59 F= -.67167511E+03 E0= -.67161253E+03  d E =-.121233E-02
       N       E                     dE             d eps       ncg     rms          rms(c)
DAV:   1    -0.656392055759E+03   -0.69175E-03   -0.10520E+00   600   0.129E+00    0.400E-01
DAV:   2    -0.656394560234E+03   -0.25045E-02   -0.29138E-02   828   0.226E-01    0.560E-01
DAV:   3    -0.656407283989E+03   -0.12724E-01   -0.42367E-02   840   0.259E-01    0.228E+00
DAV:   4    -0.656394964230E+03    0.12320E-01   -0.39741E-02   816   0.233E-01    0.381E-01
DAV:   5    -0.656394210433E+03    0.75380E-03   -0.97643E-03   756   0.808E-02    0.272E-01
DAV:   6    -0.656393750607E+03    0.45983E-03   -0.14413E-03   744   0.520E-02    0.151E-01
DAV:   7    -0.656393673829E+03    0.76778E-04   -0.70202E-04   744   0.409E-02
  60 F= -.67167583E+03 E0= -.67161308E+03  d E =-.192810E-02
       N       E                     dE             d eps       ncg     rms          rms(c)
DAV:   1    -0.656393271607E+03    0.47900E-03   -0.55509E-02   600   0.297E-01    0.107E-01
DAV:   2    -0.656394752562E+03   -0.14810E-02   -0.45448E-03   888   0.921E-02    0.786E-01
DAV:   3    -0.656393603105E+03    0.11495E-02   -0.74652E-03   612   0.954E-02    0.295E-01
DAV:   4    -0.656393453863E+03    0.14924E-03   -0.21682E-03   432   0.412E-02    0.120E-01
DAV:   5    -0.656393345684E+03    0.10818E-03   -0.24672E-04   348   0.214E-02    0.312E-02
DAV:   6    -0.656393346912E+03   -0.12287E-05   -0.41832E-05   348   0.130E-02
  61 F= -.67167587E+03 E0= -.67161314E+03  d E =-.197324E-02
       N       E                     dE             d eps       ncg     rms          rms(c)
DAV:   1    -0.656394515960E+03   -0.11703E-02   -0.65102E-02   600   0.318E-01    0.107E-01
DAV:   2    -0.656394677940E+03   -0.16198E-03   -0.18809E-03   840   0.602E-02    0.158E-01
DAV:   3    -0.656395754945E+03   -0.10770E-02   -0.10719E-02   600   0.760E-02    0.718E-01
DAV:   4    -0.656394649579E+03    0.11054E-02   -0.87715E-03   504   0.586E-02    0.644E-02
DAV:   5    -0.656394647306E+03    0.22739E-05   -0.44517E-04   384   0.202E-02
  62 F= -.67167675E+03 E0= -.67161403E+03  d E =-.877763E-03
       N       E                     dE             d eps       ncg     rms          rms(c)
DAV:   1    -0.656395654922E+03   -0.10053E-02   -0.28339E-01   600   0.664E-01    0.223E-01
DAV:   2    -0.656396702040E+03   -0.10471E-02   -0.78330E-03   852   0.132E-01    0.384E-01
DAV:   3    -0.656399949615E+03   -0.32476E-02   -0.42302E-02   780   0.163E-01    0.130E+00
DAV:   4    -0.656396781815E+03    0.31678E-02   -0.47576E-02   804   0.123E-01    0.226E-01
DAV:   5    -0.656396069656E+03    0.71216E-03   -0.27176E-03   660   0.568E-02    0.172E-01
DAV:   6    -0.656395962682E+03    0.10697E-03   -0.58041E-04   492   0.261E-02    0.415E-02
DAV:   7    -0.656395964411E+03   -0.17291E-05   -0.13127E-04   420   0.191E-02
  63 F= -.67167717E+03 E0= -.67161443E+03  d E =-.130096E-02
       N       E                     dE             d eps       ncg     rms          rms(c)
DAV:   1    -0.656396700086E+03   -0.73740E-03   -0.31399E-02   600   0.221E-01    0.784E-02
DAV:   2    -0.656397506765E+03   -0.80668E-03   -0.64290E-03   816   0.655E-02    0.586E-01
DAV:   3    -0.656396856123E+03    0.65064E-03   -0.78805E-03   552   0.633E-02    0.210E-01
DAV:   4    -0.656396808362E+03    0.47761E-04   -0.45132E-04   444   0.303E-02
  64 F= -.67167767E+03 E0= -.67161459E+03  d E =-.498555E-03
       N       E                     dE             d eps       ncg     rms          rms(c)
DAV:   1    -0.656397919350E+03   -0.10632E-02   -0.24013E-01   600   0.609E-01    0.183E-01
DAV:   2    -0.656398369049E+03   -0.44970E-03   -0.52403E-03   852   0.101E-01    0.117E-01
DAV:   3    -0.656398666130E+03   -0.29708E-03   -0.95830E-04   708   0.454E-02    0.131E-01
DAV:   4    -0.656398228371E+03    0.43776E-03   -0.56922E-04   600   0.378E-02    0.829E-02
DAV:   5    -0.656398938202E+03   -0.70983E-03   -0.16351E-03   492   0.562E-02    0.565E-01
DAV:   6    -0.656398232718E+03    0.70548E-03   -0.14598E-03   468   0.515E-02    0.348E-02
DAV:   7    -0.656398223733E+03    0.89854E-05   -0.17750E-04   420   0.195E-02
  65 F= -.67167813E+03 E0= -.67161562E+03  d E =-.956005E-03
       N       E                     dE             d eps       ncg     rms          rms(c)
DAV:   1    -0.656399046852E+03   -0.81413E-03   -0.18035E-02   600   0.171E-01    0.736E-02
DAV:   2    -0.656399210375E+03   -0.16352E-03   -0.12938E-03   744   0.430E-02    0.250E-01
DAV:   3    -0.656399333697E+03   -0.12332E-03   -0.21395E-03   468   0.501E-02    0.343E-01
DAV:   4    -0.656399083977E+03    0.24972E-03   -0.77184E-04   420   0.319E-02    0.631E-02
DAV:   5    -0.656399073839E+03    0.10139E-04   -0.96712E-05   348   0.104E-02
  66 F= -.67167871E+03 E0= -.67161610E+03  d E =-.586261E-03
       N       E                     dE             d eps       ncg     rms          rms(c)
DAV:   1    -0.656400528796E+03   -0.14448E-02   -0.16152E-01   600   0.512E-01    0.215E-01
DAV:   2    -0.656401028163E+03   -0.49937E-03   -0.64043E-03   840   0.992E-02    0.300E-01
DAV:   3    -0.656405154120E+03   -0.41260E-02   -0.10501E-02   744   0.143E-01    0.138E+00
DAV:   4    -0.656401298016E+03    0.38561E-02   -0.13849E-02   660   0.138E-01    0.243E-01
DAV:   5    -0.656400768823E+03    0.52919E-03   -0.29866E-03   576   0.493E-02    0.133E-01
DAV:   6    -0.656400677974E+03    0.90850E-04   -0.24180E-04   444   0.206E-02
  67 F= -.67167953E+03 E0= -.67161689E+03  d E =-.139953E-02
       N       E                     dE             d eps       ncg     rms          rms(c)
DAV:   1    -0.656401486132E+03   -0.71731E-03   -0.40782E-02   600   0.258E-01    0.878E-02
DAV:   2    -0.656401642900E+03   -0.15677E-03   -0.14586E-03   816   0.527E-02    0.184E-01
DAV:   3    -0.656402061883E+03   -0.41898E-03   -0.46034E-03   588   0.567E-02    0.483E-01
DAV:   4    -0.656401588566E+03    0.47332E-03   -0.26257E-03   456   0.432E-02    0.544E-02
DAV:   5    -0.656401574562E+03    0.14003E-04   -0.73201E-05   396   0.197E-02
  68 F= -.67168014E+03 E0= -.67161719E+03  d E =-.611307E-03
       N       E                     dE             d eps       ncg     rms          rms(c)
DAV:   1    -0.656401875595E+03   -0.28703E-03   -0.27913E-02   600   0.215E-01    0.926E-02
DAV:   2    -0.656403827500E+03   -0.19519E-02   -0.57604E-03   864   0.101E-01    0.898E-01
DAV:   3    -0.656402162955E+03    0.16645E-02   -0.60500E-03   612   0.993E-02    0.250E-01
DAV:   4    -0.656402042822E+03    0.12013E-03   -0.52585E-04   648   0.408E-02    0.848E-02
DAV:   5    -0.656401894099E+03    0.14872E-03   -0.84462E-05   372   0.210E-02    0.270E-02
DAV:   6    -0.656401899435E+03   -0.53367E-05   -0.43753E-05   336   0.136E-02
  69 F= -.67168023E+03 E0= -.67161763E+03  d E =-.697955E-03
       N       E                     dE             d eps       ncg     rms          rms(c)
DAV:   1    -0.656402581772E+03   -0.68767E-03   -0.43322E-02   600   0.261E-01    0.117E-01
DAV:   2    -0.656404006558E+03   -0.14248E-02   -0.46366E-03   876   0.900E-02    0.784E-01
DAV:   3    -0.656402982187E+03    0.10244E-02   -0.91913E-03   636   0.993E-02    0.367E-01
DAV:   4    -0.656402719743E+03    0.26244E-03   -0.28000E-03   468   0.401E-02    0.122E-01
DAV:   5    -0.656402631650E+03    0.88093E-04   -0.24621E-04   396   0.194E-02
  70 F= -.67168069E+03 E0= -.67161822E+03  d E =-.466168E-03
       N       E                     dE             d eps       ncg     rms          rms(c)
DAV:   1    -0.656403181215E+03   -0.46147E-03   -0.11502E-01   600   0.424E-01    0.171E-01
DAV:   2    -0.656403534593E+03   -0.35338E-03   -0.41453E-03   828   0.820E-02    0.264E-01
DAV:   3    -0.656406075881E+03   -0.25413E-02   -0.27833E-02   636   0.119E-01    0.110E+00
DAV:   4    -0.656403598739E+03    0.24771E-02   -0.28512E-02   600   0.986E-02    0.188E-01
DAV:   5    -0.656403353752E+03    0.24499E-03   -0.13584E-03   456   0.365E-02    0.102E-01
DAV:   6    -0.656403303997E+03    0.49755E-04   -0.25207E-04   384   0.183E-02
  71 F= -.67168093E+03 E0= -.67161816E+03  d E =-.701570E-03
       N       E                     dE             d eps       ncg     rms          rms(c)
DAV:   1    -0.656403935665E+03   -0.58191E-03   -0.68117E-02   600   0.331E-01    0.957E-02
DAV:   2    -0.656404699130E+03   -0.76346E-03   -0.54072E-03   888   0.794E-02    0.538E-01
DAV:   3    -0.656404215828E+03    0.48330E-03   -0.68192E-03   612   0.649E-02    0.268E-01
DAV:   4    -0.656404066835E+03    0.14899E-03   -0.83175E-04   444   0.283E-02    0.645E-02
DAV:   5    -0.656404079211E+03   -0.12376E-04   -0.28936E-04   396   0.178E-02
  72 F= -.67168158E+03 E0= -.67161886E+03  d E =-.656257E-03
       N       E                     dE             d eps       ncg     rms          rms(c)
DAV:   1    -0.656404228789E+03   -0.16195E-03   -0.61778E-02   600   0.316E-01    0.112E-01
DAV:   2    -0.656407141229E+03   -0.29124E-02   -0.19726E-02   888   0.123E-01    0.109E+00
DAV:   3    -0.656404617745E+03    0.25235E-02   -0.25760E-02   612   0.106E-01    0.274E-01
DAV:   4    -0.656404537615E+03    0.80130E-04   -0.27648E-03   600   0.484E-02    0.144E-01
DAV:   5    -0.656404293833E+03    0.24378E-03   -0.60680E-04   420   0.265E-02    0.346E-02
DAV:   6    -0.656404304086E+03   -0.10253E-04   -0.81779E-05   336   0.168E-02
  73 F= -.67168170E+03 E0= -.67161913E+03  d E =-.768688E-03
       N       E                     dE             d eps       ncg     rms          rms(c)
DAV:   1    -0.656404727719E+03   -0.43389E-03   -0.31452E-02   600   0.224E-01    0.832E-02
DAV:   2    -0.656405817982E+03   -0.10903E-02   -0.85071E-03   852   0.763E-02    0.684E-01
DAV:   3    -0.656404889153E+03    0.92883E-03   -0.10446E-02   612   0.698E-02    0.211E-01
DAV:   4    -0.656404794223E+03    0.94931E-04   -0.58148E-04   408   0.253E-02
  74 F= -.67168216E+03 E0= -.67161935E+03  d E =-.467544E-03
       N       E                     dE             d eps       ncg     rms          rms(c)
DAV:   1    -0.656404991902E+03   -0.10275E-03   -0.28425E-01   600   0.670E-01    0.215E-01
DAV:   2    -0.656405578220E+03   -0.58632E-03   -0.71485E-03   804   0.114E-01    0.153E-01
DAV:   3    -0.656406645675E+03   -0.10675E-02   -0.13500E-02   792   0.905E-02    0.598E-01
DAV:   4    -0.656405906177E+03    0.73950E-03   -0.14722E-02   600   0.773E-02    0.379E-01
DAV:   5    -0.656405388725E+03    0.51745E-03   -0.83604E-04   660   0.480E-02    0.848E-02
DAV:   6    -0.656405364290E+03    0.24435E-04   -0.19067E-04   432   0.243E-02
  75 F= -.67168267E+03 E0= -.67162039E+03  d E =-.970495E-03
       N       E                     dE             d eps       ncg     rms          rms(c)
DAV:   1    -0.656405831945E+03   -0.44322E-03   -0.35144E-02   600   0.227E-01    0.688E-02
DAV:   2    -0.656405990024E+03   -0.15808E-03   -0.14756E-03   828   0.517E-02    0.200E-01
DAV:   3    -0.656406104818E+03   -0.11479E-03   -0.22011E-03   504   0.434E-02    0.315E-01
DAV:   4    -0.656405910527E+03    0.19429E-03   -0.56503E-04   456   0.312E-02    0.407E-02
DAV:   5    -0.656405901087E+03    0.94400E-05   -0.43769E-05   348   0.175E-02
  76 F= -.67168310E+03 E0= -.67162074E+03  d E =-.432403E-03
       N       E                     dE             d eps       ncg     rms          rms(c)
DAV:   1    -0.656406270543E+03   -0.36002E-03   -0.16428E-01   600   0.488E-01    0.152E-01
DAV:   2    -0.656407390936E+03   -0.11204E-02   -0.10807E-02   888   0.114E-01    0.601E-01
DAV:   3    -0.656407274104E+03    0.11683E-03   -0.15692E-02   660   0.950E-02    0.575E-01
DAV:   4    -0.656406654809E+03    0.61930E-03   -0.13679E-03   672   0.563E-02    0.817E-02
DAV:   5    -0.656406576560E+03    0.78248E-04   -0.22521E-04   504   0.319E-02
  77 F= -.67168355E+03 E0= -.67162146E+03  d E =-.884430E-03
       N       E                     dE             d eps       ncg     rms          rms(c)
DAV:   1    -0.656407186484E+03   -0.53168E-03   -0.46175E-02   600   0.262E-01    0.119E-01
DAV:   2    -0.656409996377E+03   -0.28099E-02   -0.29326E-02   888   0.130E-01    0.107E+00
DAV:   3    -0.656407723633E+03    0.22727E-02   -0.37141E-02   696   0.113E-01    0.384E-01
DAV:   4    -0.656407355730E+03    0.36790E-03   -0.11818E-03   744   0.540E-02    0.890E-02
DAV:   5    -0.656407234364E+03    0.12137E-03   -0.15325E-04   420   0.260E-02    0.550E-02
DAV:   6    -0.656407210901E+03    0.23464E-04   -0.85392E-05   396   0.185E-02
  78 F= -.67168400E+03 E0= -.67162129E+03  d E =-.445044E-03
       N       E                     dE             d eps       ncg     rms          rms(c)
DAV:   1    -0.656407536140E+03   -0.30178E-03   -0.60906E-02   600   0.299E-01    0.101E-01
DAV:   2    -0.656408264319E+03   -0.72818E-03   -0.54968E-03   888   0.797E-02    0.529E-01
DAV:   3    -0.656407898301E+03    0.36602E-03   -0.77732E-03   612   0.700E-02    0.342E-01
DAV:   4    -0.656407648861E+03    0.24944E-03   -0.86019E-04   420   0.330E-02    0.489E-02
DAV:   5    -0.656407647130E+03    0.17312E-05   -0.20286E-04   360   0.178E-02
  79 F= -.67168422E+03 E0= -.67162158E+03  d E =-.664712E-03
       N       E                     dE             d eps       ncg     rms          rms(c)
DAV:   1    -0.656408198739E+03   -0.54988E-03   -0.32549E-02   600   0.218E-01    0.982E-02
DAV:   2    -0.656410608365E+03   -0.24096E-02   -0.10707E-02   876   0.110E-01    0.956E-01
DAV:   3    -0.656408601048E+03    0.20073E-02   -0.16415E-02   612   0.974E-02    0.307E-01
DAV:   4    -0.656408363526E+03    0.23752E-03   -0.24837E-03   612   0.510E-02    0.107E-01
DAV:   5    -0.656408212041E+03    0.15149E-03   -0.45217E-04   372   0.236E-02    0.319E-02
DAV:   6    -0.656408217056E+03   -0.50157E-05   -0.59727E-05   336   0.144E-02
  80 F= -.67168461E+03 E0= -.67162195E+03  d E =-.392488E-03
       N       E                     dE             d eps       ncg     rms          rms(c)
DAV:   1    -0.656408743435E+03   -0.53139E-03   -0.28032E-01   600   0.636E-01    0.213E-01
DAV:   2    -0.656409435506E+03   -0.69207E-03   -0.81396E-03   852   0.120E-01    0.280E-01
DAV:   3    -0.656413501264E+03   -0.40658E-02   -0.14852E-02   744   0.141E-01    0.137E+00
DAV:   4    -0.656409462273E+03    0.40390E-02   -0.84249E-03   600   0.122E-01    0.138E-01
DAV:   5    -0.656409512964E+03   -0.50691E-04   -0.85253E-04   624   0.445E-02
  81 F= -.67168539E+03 E0= -.67162383E+03  d E =-.117383E-02
       N       E                     dE             d eps       ncg     rms          rms(c)
DAV:   1    -0.656409866512E+03   -0.40424E-03   -0.29109E-02   600   0.208E-01    0.212E-01
DAV:   2    -0.656430092257E+03   -0.20226E-01   -0.18303E-01   852   0.311E-01    0.261E+00
DAV:   3    -0.656411612927E+03    0.18479E-01   -0.18078E-01   804   0.276E-01    0.528E-01
DAV:   4    -0.656410037106E+03    0.15758E-02   -0.27763E-03   744   0.753E-02    0.169E-01
[...]
       N       E                     dE             d eps       ncg     rms          rms(c)
DAV:   1    -0.656454613800E+03    0.50689E-04   -0.10615E-02   600   0.133E-01    0.893E-02
DAV:   2    -0.656457809564E+03   -0.31958E-02   -0.28245E-02   648   0.109E-01    0.119E+00
DAV:   3    -0.656454883403E+03    0.29262E-02   -0.34251E-02   564   0.104E-01    0.243E-01
DAV:   4    -0.656454728942E+03    0.15446E-03   -0.10900E-03   432   0.367E-02    0.196E-01
DAV:   5    -0.656454627429E+03    0.10151E-03   -0.23100E-04   360   0.174E-02    0.735E-02
DAV:   6    -0.656454612383E+03    0.15046E-04   -0.19833E-05   300   0.977E-03
 192 F= -.67172728E+03 E0= -.67166452E+03  d E =-.432966E-03
       N       E                     dE             d eps       ncg     rms          rms(c)
DAV:   1    -0.656454757351E+03   -0.12992E-03   -0.69407E-02   600   0.335E-01    0.124E-01
DAV:   2    -0.656457301284E+03   -0.25439E-02   -0.23806E-02   888   0.114E-01    0.105E+00
DAV:   3    -0.656455159978E+03    0.21413E-02   -0.31120E-02   636   0.101E-01    0.330E-01
DAV:   4    -0.656454911694E+03    0.24828E-03   -0.94554E-04   456   0.402E-02    0.162E-01
DAV:   5    -0.656454825117E+03    0.86577E-04   -0.15966E-04   372   0.175E-02
 193 F= -.67172769E+03 E0= -.67166507E+03  d E =-.402414E-03
       N       E                     dE             d eps       ncg     rms          rms(c)
DAV:   1    -0.656454771705E+03    0.13999E-03   -0.15126E-02   600   0.158E-01    0.826E-02
DAV:   2    -0.656456932163E+03   -0.21605E-02   -0.23936E-02   828   0.102E-01    0.899E-01
DAV:   3    -0.656455144046E+03    0.17881E-02   -0.26907E-02   576   0.877E-02    0.297E-01
DAV:   4    -0.656454802495E+03    0.34155E-03   -0.51205E-04   612   0.425E-02    0.650E-02
DAV:   5    -0.656454746836E+03    0.55659E-04   -0.51612E-05   324   0.175E-02
 194 F= -.67172770E+03 E0= -.67166497E+03  d E =-.413713E-03
       N       E                     dE             d eps       ncg     rms          rms(c)
DAV:   1    -0.656454689348E+03    0.11315E-03   -0.40217E-02   600   0.254E-01    0.773E-02
DAV:   2    -0.656454825304E+03   -0.13596E-03   -0.11481E-03   816   0.485E-02    0.192E-01
DAV:   3    -0.656455094199E+03   -0.26890E-03   -0.24973E-03   552   0.521E-02    0.402E-01
DAV:   4    -0.656454759472E+03    0.33473E-03   -0.16272E-03   468   0.362E-02    0.686E-02
DAV:   5    -0.656454762970E+03   -0.34979E-05   -0.15772E-04   408   0.146E-02
 195 F= -.67172800E+03 E0= -.67166514E+03  d E =-.300069E-03
       N       E                     dE             d eps       ncg     rms          rms(c)
DAV:   1    -0.656454488771E+03    0.27070E-03   -0.37612E-02   600   0.246E-01    0.855E-02
DAV:   2    -0.656455790374E+03   -0.13016E-02   -0.25618E-03   876   0.891E-02    0.678E-01
DAV:   3    -0.656454840475E+03    0.94990E-03   -0.43119E-03   588   0.786E-02    0.256E-01
DAV:   4    -0.656454621816E+03    0.21866E-03   -0.19276E-03   564   0.438E-02    0.102E-01
DAV:   5    -0.656454514940E+03    0.10688E-03   -0.15687E-04   384   0.212E-02    0.291E-02
DAV:   6    -0.656454517299E+03   -0.23597E-05   -0.53107E-05   348   0.124E-02
 196 F= -.67172803E+03 E0= -.67166525E+03  d E =-.331080E-03
       N       E                     dE             d eps       ncg     rms          rms(c)
DAV:   1    -0.656454463587E+03    0.51353E-04   -0.12964E-02   600   0.143E-01    0.480E-02
DAV:   2    -0.656454488121E+03   -0.24535E-04   -0.38897E-04   672   0.284E-02
 197 F= -.67172822E+03 E0= -.67166549E+03  d E =-.190271E-03
       N       E                     dE             d eps       ncg     rms          rms(c)
DAV:   1    -0.656454438951E+03    0.24636E-04   -0.46123E-02   600   0.268E-01    0.312E-01
DAV:   2    -0.656496877796E+03   -0.42439E-01   -0.60080E-02   876   0.417E-01    0.340E+00
DAV:   3    -0.656456354419E+03    0.40523E-01   -0.53405E-02   852   0.411E-01    0.417E-01
DAV:   4    -0.656455062350E+03    0.12921E-02   -0.71443E-03   708   0.773E-02    0.546E-01
DAV:   5    -0.656454364249E+03    0.69810E-03   -0.57825E-04   468   0.325E-02    0.161E-01
DAV:   6    -0.656454297991E+03    0.66258E-04   -0.34354E-04   444   0.252E-02
 198 F= -.67172844E+03 E0= -.67166584E+03  d E =-.407609E-03
       N       E                     dE             d eps       ncg     rms          rms(c)
DAV:   1    -0.656453246756E+03    0.11175E-02   -0.17896E-01   600   0.527E-01    0.206E-01
DAV:   2    -0.656458671606E+03   -0.54248E-02   -0.12139E-02   876   0.186E-01    0.149E+00
DAV:   3    -0.656454482624E+03    0.41890E-02   -0.29786E-02   816   0.172E-01    0.589E-01
DAV:   4    -0.656453670444E+03    0.81218E-03   -0.80313E-03   564   0.589E-02    0.124E-01
DAV:   5    -0.656453571573E+03    0.98871E-04   -0.82252E-04   468   0.345E-02
 199 F= -.67172853E+03 E0= -.67166593E+03  d E =-.499208E-03
       N       E                     dE             d eps       ncg     rms          rms(c)
DAV:   1    -0.656453929572E+03   -0.25913E-03   -0.21114E-02   600   0.182E-01    0.260E-01
DAV:   2    -0.656483347860E+03   -0.29418E-01   -0.37726E-02   852   0.344E-01    0.306E+00
DAV:   3    -0.656456259847E+03    0.27088E-01   -0.86552E-02   792   0.340E-01    0.518E-01
DAV:   4    -0.656454157654E+03    0.21022E-02   -0.17874E-02   720   0.868E-02    0.264E-01
DAV:   5    -0.656453834888E+03    0.32277E-03   -0.50127E-04   432   0.281E-02    0.712E-02
DAV:   6    -0.656453828021E+03    0.68668E-05   -0.84797E-05   348   0.118E-02
 200 F= -.67172851E+03 E0= -.67166587E+03  d E =-.483233E-03
       N       E                     dE             d eps       ncg     rms          rms(c)
DAV:   1    -0.656453696684E+03    0.13820E-03   -0.33510E-02   600   0.226E-01    0.767E-02
DAV:   2    -0.656453892120E+03   -0.19544E-03   -0.13841E-03   828   0.519E-02    0.245E-01
DAV:   3    -0.656454021991E+03   -0.12987E-03   -0.17900E-03   456   0.487E-02    0.341E-01
DAV:   4    -0.656453786819E+03    0.23517E-03   -0.62198E-04   384   0.337E-02    0.904E-02
DAV:   5    -0.656453771297E+03    0.15522E-04   -0.40261E-05   312   0.130E-02
 201 F= -.67172879E+03 E0= -.67166615E+03  d E =-.278791E-03
       N       E                     dE             d eps       ncg     rms          rms(c)
DAV:   1    -0.656452461885E+03    0.13249E-02   -0.29239E-01   600   0.669E-01    0.217E-01
DAV:   2    -0.656454887783E+03   -0.24259E-02   -0.10389E-02   888   0.161E-01    0.922E-01
DAV:   3    -0.656454487253E+03    0.40053E-03   -0.36594E-02   768   0.142E-01    0.810E-01
DAV:   4    -0.656453134103E+03    0.13532E-02   -0.16052E-02   600   0.701E-02    0.122E-01
DAV:   5    -0.656453080721E+03    0.53382E-04   -0.11261E-03   504   0.401E-02    0.174E-01
DAV:   6    -0.656453033711E+03    0.47009E-04   -0.21391E-04   468   0.292E-02
 202 F= -.67172905E+03 E0= -.67166580E+03  d E =-.540370E-03
       N       E                     dE             d eps       ncg     rms          rms(c)
DAV:   1    -0.656452755303E+03    0.32542E-03   -0.23580E-02   600   0.193E-01    0.922E-02
DAV:   2    -0.656455550786E+03   -0.27955E-02   -0.56935E-03   852   0.115E-01    0.111E+00
DAV:   3    -0.656453044685E+03    0.25061E-02   -0.60849E-03   600   0.105E-01    0.234E-01
DAV:   4    -0.656452908257E+03    0.13643E-03   -0.67528E-04   492   0.367E-02    0.140E-01
DAV:   5    -0.656452795901E+03    0.11236E-03   -0.69237E-05   360   0.204E-02    0.620E-02
DAV:   6    -0.656452789031E+03    0.68700E-05   -0.32477E-05   336   0.101E-02
 203 F= -.67172910E+03 E0= -.67166641E+03  d E =-.469728E-04
       N       E                     dE             d eps       ncg     rms          rms(c)
DAV:   1    -0.656452323103E+03    0.47280E-03   -0.75028E-02   600   0.342E-01    0.105E-01
DAV:   2    -0.656453073145E+03   -0.75004E-03   -0.29099E-03   888   0.811E-02    0.540E-01
DAV:   3    -0.656452713585E+03    0.35956E-03   -0.41299E-03   624   0.718E-02    0.349E-01
DAV:   4    -0.656452460837E+03    0.25275E-03   -0.12801E-03   420   0.369E-02    0.851E-02
DAV:   5    -0.656452459655E+03    0.11821E-05   -0.27702E-04   360   0.228E-02
 204 F= -.67172929E+03 E0= -.67166638E+03  d E =-.238059E-03
       N       E                     dE             d eps       ncg     rms          rms(c)
DAV:   1    -0.656450792131E+03    0.16687E-02   -0.29893E-01   600   0.682E-01    0.235E-01
DAV:   2    -0.656460127353E+03   -0.93352E-02   -0.18708E-02   900   0.237E-01    0.190E+00
DAV:   3    -0.656452543615E+03    0.75837E-02   -0.48784E-02   840   0.224E-01    0.582E-01
DAV:   4    -0.656452020825E+03    0.52279E-03   -0.17910E-02   792   0.890E-02    0.263E-01
DAV:   5    -0.656451183026E+03    0.83780E-03   -0.10158E-03   660   0.473E-02    0.103E-01
DAV:   6    -0.656451154713E+03    0.28314E-04   -0.20879E-04   420   0.237E-02
 205 F= -.67172903E+03 E0= -.67166612E+03  d E =0.233436E-04
       N       E                     dE             d eps       ncg     rms          rms(c)
DAV:   1    -0.656451878408E+03   -0.69538E-03   -0.12562E-01   600   0.440E-01    0.155E-01
DAV:   2    -0.656455825024E+03   -0.39466E-02   -0.85734E-03   888   0.151E-01    0.129E+00
DAV:   3    -0.656452555049E+03    0.32700E-02   -0.11537E-02   696   0.133E-01    0.373E-01
DAV:   4    -0.656452217714E+03    0.33734E-03   -0.25333E-03   504   0.479E-02    0.222E-01
DAV:   5    -0.656452054227E+03    0.16349E-03   -0.26153E-04   396   0.221E-02    0.339E-02
DAV:   6    -0.656452080004E+03   -0.25778E-04   -0.77379E-05   384   0.163E-02
 206 F= -.67172928E+03 E0= -.67166619E+03  d E =-.230964E-03
       N       E                     dE             d eps       ncg     rms          rms(c)
DAV:   1    -0.656452219937E+03   -0.16571E-03   -0.59729E-03   588   0.980E-02    0.800E-02
DAV:   2    -0.656455235956E+03   -0.30160E-02   -0.52743E-03   672   0.108E-01    0.115E+00
DAV:   3    -0.656452488619E+03    0.27473E-02   -0.53850E-03   576   0.106E-01    0.221E-01
DAV:   4    -0.656452257924E+03    0.23070E-03   -0.39358E-04   408   0.341E-02    0.794E-02
DAV:   5    -0.656452210400E+03    0.47524E-04   -0.31947E-05   312   0.150E-02
 207 F= -.67172927E+03 E0= -.67166654E+03  d E =-.213472E-03
       N       E                     dE             d eps       ncg     rms          rms(c)
DAV:   1    -0.656452418267E+03   -0.16034E-03   -0.56702E-03   600   0.967E-02    0.453E-02
DAV:   2    -0.656453113457E+03   -0.69519E-03   -0.47485E-03   504   0.541E-02    0.561E-01
DAV:   3    -0.656452466984E+03    0.64647E-03   -0.53460E-03   420   0.515E-02    0.118E-01
DAV:   4    -0.656452452650E+03    0.14334E-04   -0.17174E-04   360   0.181E-02
 208 F= -.67172952E+03 E0= -.67166648E+03  d E =-.250764E-03
       N       E                     dE             d eps       ncg     rms          rms(c)
DAV:   1    -0.656452599428E+03   -0.13244E-03   -0.31403E-02   600   0.228E-01    0.676E-02
DAV:   2    -0.656452806260E+03   -0.20683E-03   -0.11534E-03   792   0.492E-02    0.273E-01
DAV:   3    -0.656452748048E+03    0.58213E-04   -0.12606E-03   540   0.436E-02    0.228E-01
DAV:   4    -0.656452679131E+03    0.68917E-04   -0.33053E-04   408   0.267E-02
 209 F= -.67172976E+03 E0= -.67166736E+03  d E =-.497733E-03
       N       E                     dE             d eps       ncg     rms          rms(c)
DAV:   1    -0.656452878566E+03   -0.13052E-03   -0.76794E-03   600   0.117E-01    0.466E-02
DAV:   2    -0.656453074896E+03   -0.19633E-03   -0.96083E-04   600   0.398E-02    0.217E-01
DAV:   3    -0.656452998395E+03    0.76501E-04   -0.13377E-03   504   0.401E-02    0.220E-01
DAV:   4    -0.656452908114E+03    0.90281E-04   -0.14338E-04   384   0.235E-02
 210 F= -.67172993E+03 E0= -.67166691E+03  d E =-.165509E-03
       N       E                     dE             d eps       ncg     rms          rms(c)
DAV:   1    -0.656453031189E+03   -0.32795E-04   -0.10836E-02   600   0.139E-01    0.836E-02
DAV:   2    -0.656455519584E+03   -0.24884E-02   -0.21895E-02   660   0.979E-02    0.105E+00
DAV:   3    -0.656453238283E+03    0.22813E-02   -0.26693E-02   576   0.935E-02    0.222E-01
DAV:   4    -0.656453121777E+03    0.11651E-03   -0.84726E-04   420   0.317E-02    0.167E-01
DAV:   5    -0.656453046605E+03    0.75172E-04   -0.20677E-04   336   0.161E-02
 211 F= -.67172999E+03 E0= -.67166697E+03  d E =-.228696E-03
       N       E                     dE             d eps       ncg     rms          rms(c)
DAV:   1    -0.656453157318E+03   -0.35541E-04   -0.55794E-03   600   0.962E-02    0.402E-02
DAV:   2    -0.656453256387E+03   -0.99069E-04   -0.26802E-04   480   0.289E-02
 212 F= -.67173021E+03 E0= -.67166691E+03  d E =-.216344E-03
       N       E                     dE             d eps       ncg     rms          rms(c)
DAV:   1    -0.656453390990E+03   -0.23367E-03   -0.32909E-02   600   0.234E-01    0.224E-01
DAV:   2    -0.656475003593E+03   -0.21613E-01   -0.20244E-01   840   0.297E-01    0.269E+00
DAV:   3    -0.656454992476E+03    0.20011E-01   -0.19519E-01   780   0.283E-01    0.484E-01
DAV:   4    -0.656453834798E+03    0.11577E-02   -0.26256E-03   720   0.738E-02    0.324E-01
DAV:   5    -0.656453426288E+03    0.40851E-03   -0.19883E-04   444   0.317E-02    0.171E-01
DAV:   6    -0.656453369483E+03    0.56804E-04   -0.13149E-04   336   0.169E-02
 213 F= -.67173034E+03 E0= -.67166728E+03  d E =-.345995E-03
       N       E                     dE             d eps       ncg     rms          rms(c)
DAV:   1    -0.656452952677E+03    0.47361E-03   -0.12728E-01   600   0.455E-01    0.247E-01
DAV:   2    -0.656467630356E+03   -0.14678E-01   -0.13647E-01   864   0.265E-01    0.231E+00
DAV:   3    -0.656454940943E+03    0.12689E-01   -0.16951E-01   804   0.243E-01    0.673E-01
DAV:   4    -0.656453549301E+03    0.13916E-02   -0.25706E-03   708   0.766E-02    0.246E-01
DAV:   5    -0.656453218055E+03    0.33125E-03   -0.29140E-04   528   0.371E-02    0.731E-02
DAV:   6    -0.656453137136E+03    0.80920E-04   -0.20375E-04   456   0.246E-02
 214 F= -.67173014E+03 E0= -.67166723E+03  d E =-.149931E-03
       N       E                     dE             d eps       ncg     rms          rms(c)
DAV:   1    -0.656453295324E+03   -0.77269E-04   -0.60732E-02   600   0.314E-01    0.222E-01
DAV:   2    -0.656470204801E+03   -0.16909E-01   -0.16393E-01   852   0.270E-01    0.246E+00
DAV:   3    -0.656454847636E+03    0.15357E-01   -0.17385E-01   804   0.255E-01    0.494E-01
DAV:   4    -0.656453803199E+03    0.10444E-02   -0.51327E-03   600   0.692E-02    0.376E-01
DAV:   5    -0.656453418537E+03    0.38466E-03   -0.94779E-04   384   0.265E-02    0.158E-01
DAV:   6    -0.656453419204E+03   -0.66701E-06   -0.60253E-05   312   0.144E-02
 215 F= -.67173040E+03 E0= -.67166753E+03  d E =-.406782E-03
       N       E                     dE             d eps       ncg     rms          rms(c)
DAV:   1    -0.656453384425E+03    0.34112E-04   -0.47773E-03   588   0.882E-02    0.619E-02
DAV:   2    -0.656454610820E+03   -0.12264E-02   -0.21268E-03   624   0.744E-02    0.744E-01
DAV:   3    -0.656453505872E+03    0.11049E-02   -0.26116E-03   468   0.718E-02    0.137E-01
DAV:   4    -0.656453492271E+03    0.13601E-04   -0.59720E-04   396   0.286E-02
 216 F= -.67173054E+03 E0= -.67166773E+03  d E =-.144616E-03
       N       E                     dE             d eps       ncg     rms          rms(c)
DAV:   1    -0.656453292487E+03    0.21339E-03   -0.40213E-02   600   0.253E-01    0.129E-01
DAV:   2    -0.656457296912E+03   -0.40044E-02   -0.33198E-02   876   0.146E-01    0.130E+00
DAV:   3    -0.656453825095E+03    0.34718E-02   -0.44403E-02   636   0.120E-01    0.348E-01
DAV:   4    -0.656453480044E+03    0.34505E-03   -0.12159E-03   468   0.431E-02    0.116E-01
DAV:   5    -0.656453367800E+03    0.11224E-03   -0.26660E-04   324   0.215E-02    0.333E-02
DAV:   6    -0.656453360946E+03    0.68544E-05   -0.25319E-05   300   0.118E-02
 217 F= -.67173063E+03 E0= -.67166795E+03  d E =-.228866E-03
       N       E                     dE             d eps       ncg     rms          rms(c)
DAV:   1    -0.656453290550E+03    0.77250E-04   -0.62604E-03   600   0.101E-01    0.110E-01
DAV:   2    -0.656459070568E+03   -0.57800E-02   -0.47107E-02   660   0.149E-01    0.156E+00
DAV:   3    -0.656453778408E+03    0.52922E-02   -0.56468E-02   612   0.135E-01    0.287E-01
DAV:   4    -0.656453412278E+03    0.36613E-03   -0.13697E-03   408   0.417E-02    0.187E-01
DAV:   5    -0.656453294008E+03    0.11827E-03   -0.21985E-04   324   0.182E-02    0.818E-02
DAV:   6    -0.656453281439E+03    0.12569E-04   -0.12792E-05   300   0.843E-03
 218 F= -.67173064E+03 E0= -.67166777E+03  d E =-.235881E-03
       N       E                     dE             d eps       ncg     rms          rms(c)
DAV:   1    -0.656453214815E+03    0.79192E-04   -0.13179E-02   600   0.145E-01    0.441E-02
DAV:   2    -0.656453251420E+03   -0.36605E-04   -0.37156E-04   708   0.283E-02
 219 F= -.67173081E+03 E0= -.67166807E+03  d E =-.175240E-03
       N       E                     dE             d eps       ncg     rms          rms(c)
DAV:   1    -0.656453272474E+03   -0.57658E-04   -0.17058E-02   612   0.166E-01    0.293E-01
DAV:   2    -0.656494042086E+03   -0.40770E-01   -0.56050E-02   864   0.405E-01    0.338E+00
DAV:   3    -0.656455025320E+03    0.39017E-01   -0.46151E-02   804   0.397E-01    0.351E-01
DAV:   4    -0.656453912275E+03    0.11130E-02   -0.56428E-03   684   0.753E-02    0.578E-01
DAV:   5    -0.656453212278E+03    0.70000E-03   -0.30547E-04   468   0.314E-02    0.218E-01
DAV:   6    -0.656453106946E+03    0.10533E-03   -0.18336E-04   444   0.208E-02    0.934E-02
DAV:   7    -0.656453100527E+03    0.64193E-05   -0.62429E-05   372   0.151E-02
 220 F= -.67173089E+03 E0= -.67166805E+03  d E =-.251397E-03
       N       E                     dE             d eps       ncg     rms          rms(c)
DAV:   1    -0.656452459490E+03    0.64746E-03   -0.64005E-02   600   0.319E-01    0.119E-01
DAV:   2    -0.656454733371E+03   -0.22739E-02   -0.50224E-03   888   0.116E-01    0.983E-01
DAV:   3    -0.656452921743E+03    0.18116E-02   -0.65822E-03   672   0.106E-01    0.345E-01
DAV:   4    -0.656452722071E+03    0.19967E-03   -0.10016E-03   540   0.438E-02    0.123E-01
DAV:   5    -0.656452568191E+03    0.15388E-03   -0.90516E-05   384   0.250E-02    0.358E-02
DAV:   6    -0.656452571217E+03   -0.30256E-05   -0.98228E-05   348   0.153E-02
 221 F= -.67173081E+03 E0= -.67166797E+03  d E =-.177506E-03
       N       E                     dE             d eps       ncg     rms          rms(c)
DAV:   1    -0.656452924662E+03   -0.35647E-03   -0.29285E-02   600   0.215E-01    0.827E-02
DAV:   2    -0.656454043706E+03   -0.11190E-02   -0.26383E-03   828   0.865E-02    0.693E-01
DAV:   3    -0.656453121316E+03    0.92239E-03   -0.31198E-03   516   0.717E-02    0.208E-01
DAV:   4    -0.656453040945E+03    0.80371E-04   -0.74491E-04   408   0.287E-02
 222 F= -.67173098E+03 E0= -.67166812E+03  d E =-.342227E-03
       N       E                     dE             d eps       ncg     rms          rms(c)
DAV:   1    -0.656453037910E+03    0.83406E-04   -0.11992E-03   564   0.475E-02    0.301E-02
DAV:   2    -0.656453253941E+03   -0.21603E-03   -0.41963E-04   372   0.308E-02    0.293E-01
DAV:   3    -0.656453072103E+03    0.18184E-03   -0.69361E-04   372   0.340E-02    0.100E-01
DAV:   4    -0.656453037495E+03    0.34608E-04   -0.10598E-04   312   0.136E-02
 223 F= -.67173091E+03 E0= -.67166818E+03  d E =-.277797E-03
       N       E                     dE             d eps       ncg     rms          rms(c)
DAV:   1    -0.656452972557E+03    0.99546E-04   -0.32291E-03   588   0.741E-02    0.372E-02
DAV:   2    -0.656453333352E+03   -0.36080E-03   -0.73955E-04   408   0.409E-02    0.405E-01
DAV:   3    -0.656452998346E+03    0.33501E-03   -0.92570E-04   396   0.414E-02    0.979E-02
DAV:   4    -0.656452989099E+03    0.92468E-05   -0.13158E-04   336   0.134E-02
 224 F= -.67173100E+03 E0= -.67166830E+03  d E =-.878897E-04
