<?xml version="1.0" encoding="ISO-8859-1"?>
<modeling>
 <generator>
  <i name="program" type="string">vasp </i>
  <i name="version" type="string">5.4.1  </i>
  <i name="subversion" type="string">05Feb16 (build Apr 21 2017 13:36:42) gamma-only                       parallel </i>
  <i name="platform" type="string">IFC91_ompi </i>
  <i name="date" type="string">2020 09 15 </i>
  <i name="time" type="string">10:31:55 </i>
 </generator>
 <incar>
  <i type="string" name="SYSTEM"> basalPlane</i>
  <i type="int" name="ISTART">     0</i>
  <i type="string" name="PREC">accurate  !=accurate, max(enmax) no wra</i>
  <i type="string" name="ALGO"> Normal    !=Normal, blocked Davidson it</i>
  <i type="int" name="NSIM">     4</i>
  <i type="int" name="ISPIN">     1</i>
  <i type="int" name="ICHARG">     2</i>
  <i type="int" name="INIWAV">     1</i>
  <i type="int" name="NELM">   200</i>
  <i type="int" name="NELMDL">    -5</i>
  <i type="int" name="NELMIN">     2</i>
  <i type="int" name="IBRION">     2</i>
  <i name="EDIFF">      0.00010000</i>
  <i name="EDIFFG">     -0.02000000</i>
  <i type="int" name="NSW"> 10000</i>
  <i type="int" name="ISIF">     2</i>
  <i type="int" name="ISYM">     2</i>
  <i name="ENCUT">    400.00000000</i>
  <i name="ENAUG">    645.00000000</i>
  <i type="string" name="LREAL"> Auto     !=Auto projection operators ev</i>
  <i type="logical" name="LPLANE"> T  </i>
  <i type="int" name="ISMEAR">     0</i>
  <i name="SIGMA">      0.10000000</i>
  <i type="int" name="NWRITE">     2</i>
  <i type="logical" name="LWAVE"> F  </i>
  <i type="logical" name="LCHARG"> F  </i>
  <i type="logical" name="LORBIT"> F  </i>
  <i type="logical" name="LELF"> F  </i>
  <i type="logical" name="LSCALU"> F  </i>
  <v type="int" name="KPOINT_BSE">    -1     0     0     0</v>
  <i type="int" name="NELM">   200</i>
 </incar>
 <kpoints>
  <varray name="kpointlist" >
   <v>       0.00000000       0.00000000       0.00000000 </v>
  </varray>
  <varray name="weights" >
   <v>       1.00000000 </v>
  </varray>
 </kpoints>
 <parameters>
  <separator name="general" >
   <i type="string" name="SYSTEM">basalPlane</i>
   <i type="logical" name="LCOMPAT"> F  </i>
  </separator>
  <separator name="electronic" >
   <i type="string" name="PREC">accura</i>
   <i name="ENMAX">    400.00000000</i>
   <i name="ENAUG">    645.00000000</i>
   <i name="EDIFF">      0.00010000</i>
   <i type="int" name="IALGO">    38</i>
   <i type="int" name="IWAVPR">    11</i>
   <i type="int" name="NBANDS">   300</i>
   <i name="NELECT">    491.00000000</i>
   <i type="int" name="TURBO">     0</i>
   <i type="int" name="IRESTART">     0</i>
   <i type="int" name="NREBOOT">     0</i>
   <i type="int" name="NMIN">     0</i>
   <i name="EREF">      0.00000000</i>
   <separator name="electronic smearing" >
    <i type="int" name="ISMEAR">     0</i>
    <i name="SIGMA">      0.10000000</i>
    <i name="KSPACING">      0.50000000</i>
    <i type="logical" name="KGAMMA"> T  </i>
   </separator>
   <separator name="electronic projectors" >
    <i type="logical" name="LREAL"> T  </i>
    <v name="ROPT">     -0.00025000     -0.00025000     -0.00025000     -0.00025000     -0.00025000</v>
    <i type="int" name="LMAXPAW">  -100</i>
    <i type="int" name="LMAXMIX">     2</i>
    <i type="logical" name="NLSPLINE"> F  </i>
   </separator>
   <separator name="electronic startup" >
    <i type="int" name="ISTART">     0</i>
    <i type="int" name="ICHARG">     2</i>
    <i type="int" name="INIWAV">     1</i>
   </separator>
   <separator name="electronic spin" >
    <i type="int" name="ISPIN">     1</i>
    <i type="logical" name="LNONCOLLINEAR"> F  </i>
    <v name="MAGMOM">      1.00000000      1.00000000      1.00000000      1.00000000      1.00000000      1.00000000      1.00000000      1.00000000      1.00000000      1.00000000      1.00000000      1.00000000      1.00000000      1.00000000      1.00000000      1.00000000      1.00000000      1.00000000      1.00000000      1.00000000
      1.00000000      1.00000000      1.00000000      1.00000000      1.00000000      1.00000000      1.00000000      1.00000000      1.00000000      1.00000000      1.00000000      1.00000000      1.00000000      1.00000000      1.00000000      1.00000000      1.00000000      1.00000000      1.00000000      1.00000000
      1.00000000      1.00000000      1.00000000      1.00000000      1.00000000      1.00000000      1.00000000      1.00000000      1.00000000      1.00000000      1.00000000      1.00000000      1.00000000      1.00000000      1.00000000      1.00000000      1.00000000      1.00000000      1.00000000      1.00000000
      1.00000000      1.00000000      1.00000000      1.00000000      1.00000000      1.00000000      1.00000000      1.00000000      1.00000000      1.00000000      1.00000000      1.00000000      1.00000000      1.00000000      1.00000000      1.00000000      1.00000000      1.00000000      1.00000000      1.00000000
      1.00000000      1.00000000      1.00000000      1.00000000      1.00000000      1.00000000      1.00000000      1.00000000      1.00000000      1.00000000      1.00000000      1.00000000      1.00000000</v>
    <i name="NUPDOWN">     -1.00000000</i>
    <i type="logical" name="LSORBIT"> F  </i>
    <v name="SAXIS">      0.00000000      0.00000000      1.00000000</v>
    <i type="logical" name="LSPIRAL"> F  </i>
    <v name="QSPIRAL">      0.00000000      0.00000000      0.00000000</v>
    <i type="logical" name="LZEROZ"> F  </i>
   </separator>
   <separator name="electronic exchange-correlation" >
    <i type="logical" name="LASPH"> F  </i>
    <i type="logical" name="LMETAGGA"> F  </i>
   </separator>
   <separator name="electronic convergence" >
    <i type="int" name="NELM">   200</i>
    <i type="int" name="NELMDL">    -5</i>
    <i type="int" name="NELMIN">     2</i>
    <i name="ENINI">    400.00000000</i>
    <separator name="electronic convergence detail" >
     <i type="logical" name="LDIAG"> T  </i>
     <i type="logical" name="LSUBROT"> F  </i>
     <i name="WEIMIN">      0.00100000</i>
     <i name="EBREAK">      0.00000008</i>
     <i name="DEPER">      0.30000000</i>
     <i type="int" name="NRMM">     4</i>
     <i name="TIME">      0.40000000</i>
    </separator>
   </separator>
   <separator name="electronic mixer" >
    <i name="AMIX">      0.40000000</i>
    <i name="BMIX">      1.00000000</i>
    <i name="AMIN">      0.10000000</i>
    <i name="AMIX_MAG">      1.60000000</i>
    <i name="BMIX_MAG">      1.00000000</i>
    <separator name="electronic mixer details" >
     <i type="int" name="IMIX">     4</i>
     <i type="logical" name="MIXFIRST"> F  </i>
     <i type="int" name="MAXMIX">   -45</i>
     <i name="WC">    100.00000000</i>
     <i type="int" name="INIMIX">     1</i>
     <i type="int" name="MIXPRE">     1</i>
     <i type="int" name="MREMOVE">     5</i>
    </separator>
   </separator>
   <separator name="electronic dipolcorrection" >
    <i type="logical" name="LDIPOL"> F  </i>
    <i type="logical" name="LMONO"> F  </i>
    <i type="int" name="IDIPOL">     0</i>
    <i name="EPSILON">      1.00000000</i>
    <v name="DIPOL">   -100.00000000   -100.00000000   -100.00000000</v>
    <i name="EFIELD">      0.00000000</i>
   </separator>
  </separator>
  <separator name="grids" >
   <i type="int" name="NGX">    64</i>
   <i type="int" name="NGY">    84</i>
   <i type="int" name="NGZ">   240</i>
   <i type="int" name="NGXF">   128</i>
   <i type="int" name="NGYF">   168</i>
   <i type="int" name="NGZF">   480</i>
   <i type="logical" name="ADDGRID"> F  </i>
  </separator>
  <separator name="ionic" >
   <i type="int" name="NSW"> 10000</i>
   <i type="int" name="IBRION">     2</i>
   <i type="int" name="ISIF">     2</i>
   <i name="PSTRESS">      0.00000000</i>
   <i name="EDIFFG">     -0.02000000</i>
   <i type="int" name="NFREE">     1</i>
   <i name="POTIM">      0.50000000</i>
   <i name="SMASS">     -3.00000000</i>
   <i name="SCALEE">      1.00000000</i>
  </separator>
  <separator name="ionic md" >
   <i name="TEBEG">      0.00010000</i>
   <i name="TEEND">      0.00010000</i>
   <i type="int" name="NBLOCK">     1</i>
   <i type="int" name="KBLOCK"> 10000</i>
   <i type="int" name="NPACO">   256</i>
   <i name="APACO">     16.00000000</i>
  </separator>
  <separator name="symmetry" >
   <i type="int" name="ISYM">     2</i>
   <i name="SYMPREC">      0.00001000</i>
  </separator>
  <separator name="dos" >
   <i type="logical" name="LORBIT"> F  </i>
   <v name="RWIGS">     -1.00000000     -1.00000000     -1.00000000     -1.00000000     -1.00000000</v>
   <i type="int" name="NEDOS">   301</i>
   <i name="EMIN">     10.00000000</i>
   <i name="EMAX">    -10.00000000</i>
   <i name="EFERMI">      0.00000000</i>
  </separator>
  <separator name="writing" >
   <i type="int" name="NWRITE">     2</i>
   <i type="logical" name="LWAVE"> F  </i>
   <i type="logical" name="LCHARG"> F  </i>
   <i type="logical" name="LPARD"> F  </i>
   <i type="logical" name="LVTOT"> F  </i>
   <i type="logical" name="LVHAR"> F  </i>
   <i type="logical" name="LELF"> F  </i>
   <i type="logical" name="LOPTICS"> F  </i>
   <v name="STM">      0.00000000      0.00000000      0.00000000      0.00000000      0.00000000      0.00000000      0.00000000</v>
  </separator>
  <separator name="performance" >
   <i type="int" name="NPAR">    12</i>
   <i type="int" name="NSIM">     4</i>
   <i type="int" name="NBLK">    -1</i>
   <i type="logical" name="LPLANE"> T  </i>
   <i type="logical" name="LSCALAPACK"> T  </i>
   <i type="logical" name="LSCAAWARE"> F  </i>
   <i type="logical" name="LSCALU"> F  </i>
   <i type="logical" name="LASYNC"> F  </i>
   <i type="logical" name="LORBITALREAL"> F  </i>
  </separator>
  <separator name="miscellaneous" >
   <i type="int" name="IDIOT">     3</i>
   <i type="logical" name="LMUSIC"> F  </i>
   <v name="POMASS">     12.01100000     58.93300000      1.00000000     95.94000000     32.06600000</v>
   <v name="DARWINR">      0.00000000      0.00000000      0.00000000      0.00000000      0.00000000</v>
   <v name="DARWINV">      1.00000000      1.00000000      1.00000000      1.00000000      1.00000000</v>
   <i type="logical" name="LCORR"> T  </i>
  </separator>
  <i type="logical" name="GGA_COMPAT"> T  </i>
  <i type="logical" name="LBERRY"> F  </i>
  <i type="int" name="ICORELEVEL">     0</i>
  <i type="logical" name="LDAU"> F  </i>
  <i type="int" name="I_CONSTRAINED_M">     0</i>
  <separator name="electronic exchange-correlation" >
   <i type="string" name="GGA">--</i>
   <i type="int" name="VOSKOWN">     0</i>
   <i type="logical" name="LHFCALC"> F  </i>
   <i type="string" name="PRECFOCK"></i>
   <i type="logical" name="LSYMGRAD"> F  </i>
   <i type="logical" name="LHFONE"> F  </i>
   <i type="logical" name="LRHFCALC"> F  </i>
   <i type="logical" name="LTHOMAS"> F  </i>
   <i type="logical" name="LMODELHF"> F  </i>
   <i name="ENCUT4O">     -1.00000000</i>
   <i type="int" name="EXXOEP">     0</i>
   <i type="int" name="FOURORBIT">     0</i>
   <i name="AEXX">      0.00000000</i>
   <i name="HFALPHA">      0.00000000</i>
   <i name="MCALPHA">      0.00000000</i>
   <i name="ALDAX">      1.00000000</i>
   <i name="AGGAX">      1.00000000</i>
   <i name="ALDAC">      1.00000000</i>
   <i name="AGGAC">      1.00000000</i>
   <i type="int" name="NKREDX">     1</i>
   <i type="int" name="NKREDY">     1</i>
   <i type="int" name="NKREDZ">     1</i>
   <i type="logical" name="SHIFTRED"> F  </i>
   <i type="logical" name="ODDONLY"> F  </i>
   <i type="logical" name="EVENONLY"> F  </i>
   <i type="int" name="LMAXFOCK">     0</i>
   <i type="int" name="NMAXFOCKAE">     0</i>
   <i type="logical" name="LFOCKAEDFT"> F  </i>
   <i name="HFSCREEN">      0.00000000</i>
   <i name="HFSCREENC">      0.00000000</i>
   <i type="int" name="NBANDSGWLOW">     0</i>
  </separator>
  <separator name="vdW DFT" >
   <i type="logical" name="LUSE_VDW"> F  </i>
   <i name="Zab_VDW">     -0.84910000</i>
   <i name="PARAM1">      0.12340000</i>
   <i name="PARAM2">      1.00000000</i>
   <i name="PARAM3">      0.00000000</i>
  </separator>
  <separator name="model GW" >
   <i type="int" name="MODEL_GW">     0</i>
   <i name="MODEL_EPS0">     23.80275655</i>
   <i name="MODEL_ALPHA">      1.00000000</i>
  </separator>
  <separator name="linear response parameters" >
   <i type="logical" name="LEPSILON"> F  </i>
   <i type="logical" name="LRPA"> F  </i>
   <i type="logical" name="LNABLA"> F  </i>
   <i type="logical" name="LVEL"> F  </i>
   <i type="int" name="KINTER">     0</i>
   <i name="CSHIFT">      0.10000000</i>
   <i name="OMEGAMAX">     -1.00000000</i>
   <i name="DEG_THRESHOLD">      0.00200000</i>
  </separator>
  <separator name="orbital magnetization" >
   <i type="logical" name="NUCIND"> F  </i>
   <v name="MAGPOS">      0.00000000      0.00000000      0.00000000</v>
   <i type="logical" name="LNICSALL"> T  </i>
   <i type="logical" name="ORBITALMAG"> F  </i>
   <i type="logical" name="LMAGBLOCH"> F  </i>
   <i type="logical" name="LCHIMAG"> F  </i>
   <i type="logical" name="LGAUGE"> T  </i>
   <i type="int" name="MAGATOM">     0</i>
   <v name="MAGDIPOL">      0.00000000      0.00000000      0.00000000</v>
   <v name="AVECCONST">      0.00000000      0.00000000      0.00000000</v>
  </separator>
  <separator name="response functions" >
   <i type="logical" name="LADDER"> F  </i>
   <i type="logical" name="LFXC"> F  </i>
   <i type="logical" name="LHARTREE"> T  </i>
   <i type="int" name="IBSE">     0</i>
   <v type="int" name="KPOINT">    -1     0     0     0</v>
   <i type="logical" name="LTCTE"> F  </i>
   <i type="logical" name="LTETE"> F  </i>
   <i type="logical" name="LTRIPLET"> F  </i>
   <i type="logical" name="LFXCEPS"> F  </i>
   <i type="logical" name="LFXHEG"> F  </i>
   <i type="int" name="NATURALO">     0</i>
   <i type="logical" name="L2ORDER"> F  </i>
   <i type="logical" name="LUSEW"> F  </i>
   <i name="ENCUTGW">     -2.00000000</i>
   <i name="ENCUTGWSOFT">     -2.00000000</i>
   <i name="ENCUTLF">     -1.00000000</i>
   <i type="int" name="LMAXMP2">    -1</i>
   <i name="SCISSOR">      0.00000000</i>
   <i type="int" name="NOMEGA">     0</i>
   <i type="int" name="NOMEGAR">     0</i>
   <i type="int" name="NBANDSGW">    -1</i>
   <i type="int" name="NBANDSO">    -1</i>
   <i type="int" name="NBANDSV">    -1</i>
   <i type="int" name="NELM">   200</i>
   <i type="int" name="NELMHF">     1</i>
   <i type="int" name="DIM">     3</i>
   <i type="int" name="ANTIRES">     0</i>
   <i name="OMEGAMAX">    -30.00000000</i>
   <i name="OMEGAMIN">    -30.00000000</i>
   <i name="OMEGATL">   -200.00000000</i>
   <i type="int" name="OMEGAGRID">     0</i>
   <i name="CSHIFT">     -0.10000000</i>
   <i type="logical" name="SELFENERGY"> F  </i>
   <i type="logical" name="LSPECTRAL"> F  </i>
   <i type="logical" name="LSPECTRALGW"> F  </i>
   <i type="logical" name="LSINGLES"> F  </i>
   <i type="logical" name="LFERMIGW"> F  </i>
   <i type="logical" name="ODDONLYGW"> F  </i>
   <i type="logical" name="EVENONLYGW"> F  </i>
   <i type="int" name="NKREDLFX">     1</i>
   <i type="int" name="NKREDLFY">     1</i>
   <i type="int" name="NKREDLFZ">     1</i>
   <i type="int" name="MAXMEM">  1800</i>
   <i type="int" name="TELESCOPE">     0</i>
   <i type="int" name="TAUPAR">     1</i>
   <i type="int" name="OMEGAPAR">    -1</i>
   <i name="LAMBDA">      1.00000000</i>
  </separator>
  <separator name="External order field" >
   <i name="OFIELD_KAPPA">      0.00000000</i>
   <v name="OFIELD_K">      0.00000000      0.00000000      0.00000000</v>
   <i name="OFIELD_Q6_NEAR">      0.00000000</i>
   <i name="OFIELD_Q6_FAR">      0.00000000</i>
   <i name="OFIELD_A">      0.00000000</i>
  </separator>
 </parameters>
 <atominfo>
  <atoms>      93 </atoms>
  <types>       5 </types>
  <array name="atoms" >
   <dimension dim="1">ion</dimension>
   <field type="string">element</field>
   <field type="int">atomtype</field>
   <set>
    <rc><c>C </c><c>   1</c></rc>
    <rc><c>C </c><c>   1</c></rc>
    <rc><c>C </c><c>   1</c></rc>
    <rc><c>C </c><c>   1</c></rc>
    <rc><c>C </c><c>   1</c></rc>
    <rc><c>C </c><c>   1</c></rc>
    <rc><c>C </c><c>   1</c></rc>
    <rc><c>C </c><c>   1</c></rc>
    <rc><c>C </c><c>   1</c></rc>
    <rc><c>C </c><c>   1</c></rc>
    <rc><c>Co</c><c>   2</c></rc>
    <rc><c>H </c><c>   3</c></rc>
    <rc><c>H </c><c>   3</c></rc>
    <rc><c>H </c><c>   3</c></rc>
    <rc><c>H </c><c>   3</c></rc>
    <rc><c>H </c><c>   3</c></rc>
    <rc><c>H </c><c>   3</c></rc>
    <rc><c>H </c><c>   3</c></rc>
    <rc><c>H </c><c>   3</c></rc>
    <rc><c>H </c><c>   3</c></rc>
    <rc><c>H </c><c>   3</c></rc>
    <rc><c>Mo</c><c>   4</c></rc>
    <rc><c>Mo</c><c>   4</c></rc>
    <rc><c>Mo</c><c>   4</c></rc>
    <rc><c>Mo</c><c>   4</c></rc>
    <rc><c>Mo</c><c>   4</c></rc>
    <rc><c>Mo</c><c>   4</c></rc>
    <rc><c>Mo</c><c>   4</c></rc>
    <rc><c>Mo</c><c>   4</c></rc>
    <rc><c>Mo</c><c>   4</c></rc>
    <rc><c>Mo</c><c>   4</c></rc>
    <rc><c>Mo</c><c>   4</c></rc>
    <rc><c>Mo</c><c>   4</c></rc>
    <rc><c>Mo</c><c>   4</c></rc>
    <rc><c>Mo</c><c>   4</c></rc>
    <rc><c>Mo</c><c>   4</c></rc>
    <rc><c>Mo</c><c>   4</c></rc>
    <rc><c>Mo</c><c>   4</c></rc>
    <rc><c>Mo</c><c>   4</c></rc>
    <rc><c>Mo</c><c>   4</c></rc>
    <rc><c>Mo</c><c>   4</c></rc>
    <rc><c>Mo</c><c>   4</c></rc>
    <rc><c>Mo</c><c>   4</c></rc>
    <rc><c>Mo</c><c>   4</c></rc>
    <rc><c>Mo</c><c>   4</c></rc>
    <rc><c>S </c><c>   5</c></rc>
    <rc><c>S </c><c>   5</c></rc>
    <rc><c>S </c><c>   5</c></rc>
    <rc><c>S </c><c>   5</c></rc>
    <rc><c>S </c><c>   5</c></rc>
    <rc><c>S </c><c>   5</c></rc>
    <rc><c>S </c><c>   5</c></rc>
    <rc><c>S </c><c>   5</c></rc>
    <rc><c>S </c><c>   5</c></rc>
    <rc><c>S </c><c>   5</c></rc>
    <rc><c>S </c><c>   5</c></rc>
    <rc><c>S </c><c>   5</c></rc>
    <rc><c>S </c><c>   5</c></rc>
    <rc><c>S </c><c>   5</c></rc>
    <rc><c>S </c><c>   5</c></rc>
    <rc><c>S </c><c>   5</c></rc>
    <rc><c>S </c><c>   5</c></rc>
    <rc><c>S </c><c>   5</c></rc>
    <rc><c>S </c><c>   5</c></rc>
    <rc><c>S </c><c>   5</c></rc>
    <rc><c>S </c><c>   5</c></rc>
    <rc><c>S </c><c>   5</c></rc>
    <rc><c>S </c><c>   5</c></rc>
    <rc><c>S </c><c>   5</c></rc>
    <rc><c>S </c><c>   5</c></rc>
    <rc><c>S </c><c>   5</c></rc>
    <rc><c>S </c><c>   5</c></rc>
    <rc><c>S </c><c>   5</c></rc>
    <rc><c>S </c><c>   5</c></rc>
    <rc><c>S </c><c>   5</c></rc>
    <rc><c>S </c><c>   5</c></rc>
    <rc><c>S </c><c>   5</c></rc>
    <rc><c>S </c><c>   5</c></rc>
    <rc><c>S </c><c>   5</c></rc>
    <rc><c>S </c><c>   5</c></rc>
    <rc><c>S </c><c>   5</c></rc>
    <rc><c>S </c><c>   5</c></rc>
    <rc><c>S </c><c>   5</c></rc>
    <rc><c>S </c><c>   5</c></rc>
    <rc><c>S </c><c>   5</c></rc>
    <rc><c>S </c><c>   5</c></rc>
    <rc><c>S </c><c>   5</c></rc>
    <rc><c>S </c><c>   5</c></rc>
    <rc><c>S </c><c>   5</c></rc>
    <rc><c>S </c><c>   5</c></rc>
    <rc><c>S </c><c>   5</c></rc>
    <rc><c>S </c><c>   5</c></rc>
    <rc><c>S </c><c>   5</c></rc>
   </set>
  </array>
  <array name="atomtypes" >
   <dimension dim="1">type</dimension>
   <field type="int">atomspertype</field>
   <field type="string">element</field>
   <field>mass</field>
   <field>valence</field>
   <field type="string">pseudopotential</field>
   <set>
    <rc><c>  10</c><c>C </c><c>     12.01100000</c><c>      4.00000000</c><c>  PAW_PBE C 08Apr2002                   </c></rc>
    <rc><c>   1</c><c>Co</c><c>     58.93300000</c><c>      9.00000000</c><c>  PAW_PBE Co 02Aug2007                  </c></rc>
    <rc><c>  10</c><c>H </c><c>      1.00000000</c><c>      1.00000000</c><c>  PAW_PBE H 15Jun2001                   </c></rc>
    <rc><c>  24</c><c>Mo</c><c>     95.94000000</c><c>      6.00000000</c><c>  PAW_PBE Mo 08Apr2002                  </c></rc>
    <rc><c>  48</c><c>S </c><c>     32.06600000</c><c>      6.00000000</c><c>  PAW_PBE S 06Sep2000                   </c></rc>
   </set>
  </array>
 </atominfo>
 <structure name="initialpos" >
  <crystal>
   <varray name="basis" >
    <v>       9.57094646       0.00000000       0.00000000 </v>
    <v>      -6.38062803      11.05157872       0.00000000 </v>
    <v>       0.00000000       0.00000000      34.88026251 </v>
   </varray>
   <i name="volume">   3689.42726549 </i>
   <varray name="rec_basis" >
    <v>       0.10448287       0.06032318       0.00000000 </v>
    <v>       0.00000000       0.09048481       0.00000000 </v>
    <v>       0.00000000       0.00000000       0.02866951 </v>
   </varray>
  </crystal>
  <varray name="positions" >
   <v>       0.52441191       0.89452300       0.37467598 </v>
   <v>       0.39419904       0.91903098       0.37208719 </v>
   <v>       0.52906471       0.85691263       0.41310612 </v>
   <v>       0.40132434       0.85778262       0.43423303 </v>
   <v>       0.31816514       0.89633993       0.40890359 </v>
   <v>       0.68911254       0.20810770       0.39288649 </v>
   <v>       0.61270459       0.15894833       0.45635688 </v>
   <v>       0.57522290       0.19816118       0.42134592 </v>
   <v>       0.74947000       0.14426585       0.44949937 </v>
   <v>       0.79673467       0.17477517       0.41027334 </v>
   <v>       0.55971560       0.03079252       0.41332004 </v>
   <v>       0.21724397       0.90871696       0.41659439 </v>
   <v>       0.47580230       0.21513899       0.41690629 </v>
   <v>       0.80599475       0.11358790       0.47027043 </v>
   <v>       0.54637528       0.14066602       0.48314064 </v>
   <v>       0.69136267       0.23388149       0.36308099 </v>
   <v>       0.36101863       0.95161366       0.34681916 </v>
   <v>       0.60729185       0.90520508       0.35169575 </v>
   <v>       0.61600049       0.83364960       0.42439224 </v>
   <v>       0.37432734       0.83580967       0.46442834 </v>
   <v>       0.89506795       0.17098080       0.39598681 </v>
   <v>       0.55555566       0.08333325       0.25000928 </v>
   <v>       0.55555566       0.33333325       0.25000928 </v>
   <v>       0.44444432       0.41666674       0.74999076 </v>
   <v>       0.55555566       0.58333325       0.25000928 </v>
   <v>       0.44444432       0.66666674       0.74999076 </v>
   <v>       0.55555566       0.83333325       0.25000928 </v>
   <v>       0.44444432       0.91666674       0.74999076 </v>
   <v>       0.88888899       0.33333325       0.25000928 </v>
   <v>       0.77777765       0.16666674       0.74999076 </v>
   <v>       0.77777765       0.41666674       0.74999076 </v>
   <v>       0.88888899       0.58333325       0.25000928 </v>
   <v>       0.77777765       0.66666674       0.74999076 </v>
   <v>       0.88888899       0.83333325       0.25000928 </v>
   <v>       0.77777765       0.91666674       0.74999076 </v>
   <v>       0.11111099       0.91666674       0.74999076 </v>
   <v>       0.88888899       0.08333325       0.25000928 </v>
   <v>       0.22222233       0.83333325       0.25000928 </v>
   <v>       0.44444432       0.16666674       0.74999076 </v>
   <v>       0.22222233       0.58333325       0.25000928 </v>
   <v>       0.11111099       0.41666674       0.74999076 </v>
   <v>       0.22222233       0.33333325       0.25000928 </v>
   <v>       0.22222233       0.08333325       0.25000928 </v>
   <v>       0.11111099       0.16666674       0.74999076 </v>
   <v>       0.11111099       0.66666674       0.74999076 </v>
   <v>       0.77777765       0.16666674       0.29487388 </v>
   <v>       0.88888899       0.08333325       0.79485533 </v>
   <v>       0.77777765       0.16666674       0.20514467 </v>
   <v>       0.88888899       0.08333325       0.70512613 </v>
   <v>       0.22222233       0.08333325       0.70512613 </v>
   <v>       0.11111099       0.16666674       0.20514467 </v>
   <v>       0.77777765       0.41666674       0.29487388 </v>
   <v>       0.88888899       0.33333325       0.79485533 </v>
   <v>       0.11111099       0.66666674       0.20514467 </v>
   <v>       0.55555566       0.83333325       0.70512613 </v>
   <v>       0.88888899       0.33333325       0.70512613 </v>
   <v>       0.22222233       0.08333325       0.79485533 </v>
   <v>       0.11111099       0.16666674       0.29487388 </v>
   <v>       0.77777765       0.66666674       0.29487388 </v>
   <v>       0.88888899       0.58333325       0.79485533 </v>
   <v>       0.77777765       0.66666674       0.20514467 </v>
   <v>       0.88888899       0.58333325       0.70512613 </v>
   <v>       0.77777765       0.91666674       0.29487388 </v>
   <v>       0.88888899       0.83333325       0.79485533 </v>
   <v>       0.77777765       0.41666674       0.20514467 </v>
   <v>       0.44444432       0.91666674       0.20514467 </v>
   <v>       0.44444432       0.91666674       0.29487388 </v>
   <v>       0.22222233       0.58333325       0.70512613 </v>
   <v>       0.22222233       0.58333325       0.79485533 </v>
   <v>       0.11111099       0.91666674       0.29487388 </v>
   <v>       0.22222233       0.83333325       0.79485533 </v>
   <v>       0.11111099       0.91666674       0.20514467 </v>
   <v>       0.22222233       0.83333325       0.70512613 </v>
   <v>       0.11111099       0.66666674       0.29487388 </v>
   <v>       0.77777765       0.91666674       0.20514467 </v>
   <v>       0.44444432       0.16666674       0.29487388 </v>
   <v>       0.55555566       0.08333325       0.79485533 </v>
   <v>       0.44444432       0.16666674       0.20514467 </v>
   <v>       0.55555566       0.08333325       0.70512613 </v>
   <v>       0.44444432       0.41666674       0.29487388 </v>
   <v>       0.55555566       0.33333325       0.79485533 </v>
   <v>       0.44444432       0.41666674       0.20514467 </v>
   <v>       0.55555566       0.33333325       0.70512613 </v>
   <v>       0.22222233       0.33333325       0.70512613 </v>
   <v>       0.11111099       0.41666674       0.20514467 </v>
   <v>       0.44444432       0.66666674       0.29487388 </v>
   <v>       0.55555566       0.58333325       0.79485533 </v>
   <v>       0.44444432       0.66666674       0.20514467 </v>
   <v>       0.55555566       0.58333325       0.70512613 </v>
   <v>       0.22222233       0.33333325       0.79485533 </v>
   <v>       0.11111099       0.41666674       0.29487388 </v>
   <v>       0.55555566       0.83333325       0.79485533 </v>
   <v>       0.88888899       0.83333325       0.70512613 </v>
  </varray>
 </structure>
 <calculation>
  <scstep>
   <time name="dav">    5.50    5.52</time>
   <time name="total">    5.95    5.97</time>
   <energy>
    <i name="alphaZ">    562.94535741 </i>
    <i name="ewald">  42914.97634708 </i>
    <i name="hartreedc"> -62328.09155965 </i>
    <i name="XCdc">   -699.95531092 </i>
    <i name="pawpsdc">  18640.80374730 </i>
    <i name="pawaedc"> -16838.49265242 </i>
    <i name="eentropy">     -0.17286616 </i>
    <i name="bandstr">   1196.98064082 </i>
    <i name="atom">  20917.06298232 </i>
    <i name="e_fr_energy">   4366.05668579 </i>
    <i name="e_wo_entrp">   4366.22955195 </i>
    <i name="e_0_energy">   4366.14311887 </i>
   </energy>
  </scstep>
  <scstep>
   <time name="dav">    8.41    8.43</time>
   <time name="total">    8.41    8.43</time>
   <energy>
    <i name="e_fr_energy">    -25.34486038 </i>
    <i name="e_wo_entrp">    -25.27118802 </i>
    <i name="e_0_energy">    -25.30802420 </i>
   </energy>
  </scstep>
  <scstep>
   <time name="dav">    6.68    6.69</time>
   <time name="total">    6.68    6.70</time>
   <energy>
    <i name="e_fr_energy">   -677.35631085 </i>
    <i name="e_wo_entrp">   -677.26833033 </i>
    <i name="e_0_energy">   -677.31232059 </i>
   </energy>
  </scstep>
  <scstep>
   <time name="dav">    7.29    7.32</time>
   <time name="total">    7.29    7.33</time>
   <energy>
    <i name="e_fr_energy">   -708.84013869 </i>
    <i name="e_wo_entrp">   -708.75081572 </i>
    <i name="e_0_energy">   -708.79547720 </i>
   </energy>
  </scstep>
  <scstep>
   <time name="dav">    8.06    8.08</time>
   <time name="total">    8.65    8.68</time>
   <energy>
    <i name="e_fr_energy">   -710.09245285 </i>
    <i name="e_wo_entrp">   -709.99695902 </i>
    <i name="e_0_energy">   -710.04470594 </i>
   </energy>
  </scstep>
  <scstep>
   <time name="dav">    7.31    7.33</time>
   <time name="total">    8.26    8.29</time>
   <energy>
    <i name="e_fr_energy">   -691.02705752 </i>
    <i name="e_wo_entrp">   -690.89542311 </i>
    <i name="e_0_energy">   -690.96124032 </i>
   </energy>
  </scstep>
  <scstep>
   <time name="dav">    7.61    7.63</time>
   <time name="total">    8.60    8.62</time>
   <energy>
    <i name="e_fr_energy">   -709.18988551 </i>
    <i name="e_wo_entrp">   -709.01923524 </i>
    <i name="e_0_energy">   -709.10456038 </i>
   </energy>
  </scstep>
  <scstep>
   <time name="dav">    7.33    7.38</time>
   <time name="total">    8.31    8.36</time>
   <energy>
    <i name="e_fr_energy">   -750.08777694 </i>
    <i name="e_wo_entrp">   -749.68489872 </i>
    <i name="e_0_energy">   -749.88633783 </i>
   </energy>
  </scstep>
  <scstep>
   <time name="dav">    7.49    7.51</time>
   <time name="total">    8.46    8.49</time>
   <energy>
    <i name="e_fr_energy">   -756.46686361 </i>
    <i name="e_wo_entrp">   -756.14658585 </i>
    <i name="e_0_energy">   -756.30672473 </i>
   </energy>
  </scstep>
  <scstep>
   <time name="dav">    7.30    7.32</time>
   <time name="total">    8.24    8.27</time>
   <energy>
    <i name="e_fr_energy">   -693.62636827 </i>
    <i name="e_wo_entrp">   -693.54753437 </i>
    <i name="e_0_energy">   -693.58695132 </i>
   </energy>
  </scstep>
  <scstep>
   <time name="dav">    7.59    7.61</time>
   <time name="total">    8.55    8.57</time>
   <energy>
    <i name="e_fr_energy">   -662.52592665 </i>
    <i name="e_wo_entrp">   -662.45655759 </i>
    <i name="e_0_energy">   -662.49124212 </i>
   </energy>
  </scstep>
  <scstep>
   <time name="dav">    7.87    7.90</time>
   <time name="total">    8.81    8.85</time>
   <energy>
    <i name="e_fr_energy">   -658.45401417 </i>
    <i name="e_wo_entrp">   -658.36634247 </i>
    <i name="e_0_energy">   -658.41017832 </i>
   </energy>
  </scstep>
  <scstep>
   <time name="dav">    7.14    7.15</time>
   <time name="total">    8.09    8.11</time>
   <energy>
    <i name="e_fr_energy">   -658.95538973 </i>
    <i name="e_wo_entrp">   -658.86629865 </i>
    <i name="e_0_energy">   -658.91084419 </i>
   </energy>
  </scstep>
  <scstep>
   <time name="dav">    8.48    8.50</time>
   <time name="total">    9.43    9.46</time>
   <energy>
    <i name="e_fr_energy">   -659.21992069 </i>
    <i name="e_wo_entrp">   -659.13198412 </i>
    <i name="e_0_energy">   -659.17595240 </i>
   </energy>
  </scstep>
  <scstep>
   <time name="dav">    7.32    7.35</time>
   <time name="total">    8.27    8.31</time>
   <energy>
    <i name="e_fr_energy">   -659.23127276 </i>
    <i name="e_wo_entrp">   -659.14280590 </i>
    <i name="e_0_energy">   -659.18703933 </i>
   </energy>
  </scstep>
  <scstep>
   <time name="dav">    8.13    8.16</time>
   <time name="total">    9.09    9.17</time>
   <energy>
    <i name="e_fr_energy">   -659.38073310 </i>
    <i name="e_wo_entrp">   -659.29220002 </i>
    <i name="e_0_energy">   -659.33646656 </i>
   </energy>
  </scstep>
  <scstep>
   <time name="dav">    8.41    8.43</time>
   <time name="total">    9.36    9.39</time>
   <energy>
    <i name="e_fr_energy">   -668.63503503 </i>
    <i name="e_wo_entrp">   -668.51526660 </i>
    <i name="e_0_energy">   -668.57515081 </i>
   </energy>
  </scstep>
  <scstep>
   <time name="dav">    7.71    7.72</time>
   <time name="total">    8.66    8.68</time>
   <energy>
    <i name="e_fr_energy">   -665.72037233 </i>
    <i name="e_wo_entrp">   -665.60471348 </i>
    <i name="e_0_energy">   -665.66254291 </i>
   </energy>
  </scstep>
  <scstep>
   <time name="dav">    8.57    8.60</time>
   <time name="total">    9.52    9.55</time>
   <energy>
    <i name="e_fr_energy">   -661.04794898 </i>
    <i name="e_wo_entrp">   -660.93895852 </i>
    <i name="e_0_energy">   -660.99345375 </i>
   </energy>
  </scstep>
  <scstep>
   <time name="dav">    7.89    7.91</time>
   <time name="total">    8.85    8.94</time>
   <energy>
    <i name="e_fr_energy">   -661.74132986 </i>
    <i name="e_wo_entrp">   -661.46352346 </i>
    <i name="e_0_energy">   -661.60242666 </i>
   </energy>
  </scstep>
  <scstep>
   <time name="dav">    7.20    7.22</time>
   <time name="total">    8.17    8.20</time>
   <energy>
    <i name="e_fr_energy">   -659.33968776 </i>
    <i name="e_wo_entrp">   -659.13900716 </i>
    <i name="e_0_energy">   -659.23934746 </i>
   </energy>
  </scstep>
  <scstep>
   <time name="dav">    7.80    7.84</time>
   <time name="total">    8.77    8.82</time>
   <energy>
    <i name="e_fr_energy">   -658.78872044 </i>
    <i name="e_wo_entrp">   -658.59335444 </i>
    <i name="e_0_energy">   -658.69103744 </i>
   </energy>
  </scstep>
  <scstep>
   <time name="dav">    7.75    7.77</time>
   <time name="total">    8.72    8.75</time>
   <energy>
    <i name="e_fr_energy">   -658.32735276 </i>
    <i name="e_wo_entrp">   -658.14671923 </i>
    <i name="e_0_energy">   -658.23703600 </i>
   </energy>
  </scstep>
  <scstep>
   <time name="dav">    7.84    7.86</time>
   <time name="total">    8.81    8.85</time>
   <energy>
    <i name="e_fr_energy">   -658.05373351 </i>
    <i name="e_wo_entrp">   -657.84183514 </i>
    <i name="e_0_energy">   -657.94778433 </i>
   </energy>
  </scstep>
  <scstep>
   <time name="dav">    7.68    7.71</time>
   <time name="total">    8.66    8.69</time>
   <energy>
    <i name="e_fr_energy">   -658.06030899 </i>
    <i name="e_wo_entrp">   -657.78400705 </i>
    <i name="e_0_energy">   -657.92215802 </i>
   </energy>
  </scstep>
  <scstep>
   <time name="dav">    7.74    7.76</time>
   <time name="total">    8.72    8.75</time>
   <energy>
    <i name="e_fr_energy">   -657.74417409 </i>
    <i name="e_wo_entrp">   -657.48442004 </i>
    <i name="e_0_energy">   -657.61429706 </i>
   </energy>
  </scstep>
  <scstep>
   <time name="dav">    7.57    7.61</time>
   <time name="total">    8.55    8.59</time>
   <energy>
    <i name="e_fr_energy">   -657.47215264 </i>
    <i name="e_wo_entrp">   -657.25352140 </i>
    <i name="e_0_energy">   -657.36283702 </i>
   </energy>
  </scstep>
  <scstep>
   <time name="dav">    7.87    7.89</time>
   <time name="total">    8.85    8.88</time>
   <energy>
    <i name="e_fr_energy">   -657.21831662 </i>
    <i name="e_wo_entrp">   -657.05601514 </i>
    <i name="e_0_energy">   -657.13716588 </i>
   </energy>
  </scstep>
  <scstep>
   <time name="dav">    7.76    7.80</time>
   <time name="total">    8.75    8.79</time>
   <energy>
    <i name="e_fr_energy">   -657.09012237 </i>
    <i name="e_wo_entrp">   -656.96923594 </i>
    <i name="e_0_energy">   -657.02967916 </i>
   </energy>
  </scstep>
  <scstep>
   <time name="dav">    6.85    6.87</time>
   <time name="total">    7.83    7.86</time>
   <energy>
    <i name="e_fr_energy">   -657.08000001 </i>
    <i name="e_wo_entrp">   -656.96023133 </i>
    <i name="e_0_energy">   -657.02011567 </i>
   </energy>
  </scstep>
  <scstep>
   <time name="dav">    7.51    7.53</time>
   <time name="total">    8.49    8.51</time>
   <energy>
    <i name="e_fr_energy">   -657.03146621 </i>
    <i name="e_wo_entrp">   -656.91432542 </i>
    <i name="e_0_energy">   -656.97289582 </i>
   </energy>
  </scstep>
  <scstep>
   <time name="dav">    7.43    7.45</time>
   <time name="total">    8.41    8.44</time>
   <energy>
    <i name="e_fr_energy">   -656.82307758 </i>
    <i name="e_wo_entrp">   -656.72922902 </i>
    <i name="e_0_energy">   -656.77615330 </i>
   </energy>
  </scstep>
  <scstep>
   <time name="dav">    7.45    7.47</time>
   <time name="total">    8.43    8.45</time>
   <energy>
    <i name="e_fr_energy">   -656.70903619 </i>
    <i name="e_wo_entrp">   -656.61538392 </i>
    <i name="e_0_energy">   -656.66221006 </i>
   </energy>
  </scstep>
  <scstep>
   <time name="dav">    7.17    7.19</time>
   <time name="total">    8.16    8.18</time>
   <energy>
    <i name="e_fr_energy">   -656.65691387 </i>
    <i name="e_wo_entrp">   -656.56299855 </i>
    <i name="e_0_energy">   -656.60995621 </i>
   </energy>
  </scstep>
  <scstep>
   <time name="dav">    7.61    7.63</time>
   <time name="total">    8.59    8.62</time>
   <energy>
    <i name="e_fr_energy">   -656.59125345 </i>
    <i name="e_wo_entrp">   -656.49471677 </i>
    <i name="e_0_energy">   -656.54298511 </i>
   </energy>
  </scstep>
  <scstep>
   <time name="dav">    7.49    7.54</time>
   <time name="total">    8.47    8.86</time>
   <energy>
    <i name="e_fr_energy">   -656.50215802 </i>
    <i name="e_wo_entrp">   -656.38541065 </i>
    <i name="e_0_energy">   -656.44378434 </i>
   </energy>
  </scstep>
  <scstep>
   <time name="dav">    6.97    6.99</time>
   <time name="total">    7.95    7.98</time>
   <energy>
    <i name="e_fr_energy">   -656.49731610 </i>
    <i name="e_wo_entrp">   -656.38068078 </i>
    <i name="e_0_energy">   -656.43899844 </i>
   </energy>
  </scstep>
  <scstep>
   <time name="dav">    6.64    6.67</time>
   <time name="total">    7.63    7.66</time>
   <energy>
    <i name="e_fr_energy">   -656.46529539 </i>
    <i name="e_wo_entrp">   -656.36221807 </i>
    <i name="e_0_energy">   -656.41375673 </i>
   </energy>
  </scstep>
  <scstep>
   <time name="dav">    6.04    6.06</time>
   <time name="total">    7.02    7.06</time>
   <energy>
    <i name="e_fr_energy">   -656.44617989 </i>
    <i name="e_wo_entrp">   -656.33376762 </i>
    <i name="e_0_energy">   -656.38997376 </i>
   </energy>
  </scstep>
  <scstep>
   <time name="dav">    6.69    6.77</time>
   <time name="total">    7.68    7.76</time>
   <energy>
    <i name="e_fr_energy">   -656.42941349 </i>
    <i name="e_wo_entrp">   -656.31841711 </i>
    <i name="e_0_energy">   -656.37391530 </i>
   </energy>
  </scstep>
  <scstep>
   <time name="dav">    7.75    7.78</time>
   <time name="total">    8.74    8.77</time>
   <energy>
    <i name="e_fr_energy">   -656.37345094 </i>
    <i name="e_wo_entrp">   -656.26535474 </i>
    <i name="e_0_energy">   -656.31940284 </i>
   </energy>
  </scstep>
  <scstep>
   <time name="dav">    7.97    7.99</time>
   <time name="total">    8.95    8.99</time>
   <energy>
    <i name="e_fr_energy">   -656.29921499 </i>
    <i name="e_wo_entrp">   -656.18591320 </i>
    <i name="e_0_energy">   -656.24256409 </i>
   </energy>
  </scstep>
  <scstep>
   <time name="dav">    8.19    8.24</time>
   <time name="total">    9.17    9.24</time>
   <energy>
    <i name="e_fr_energy">   -656.21475701 </i>
    <i name="e_wo_entrp">   -656.10626940 </i>
    <i name="e_0_energy">   -656.16051320 </i>
   </energy>
  </scstep>
  <scstep>
   <time name="dav">    7.76    7.79</time>
   <time name="total">    8.77    8.81</time>
   <energy>
    <i name="e_fr_energy">   -656.16391480 </i>
    <i name="e_wo_entrp">   -656.05166685 </i>
    <i name="e_0_energy">   -656.10779083 </i>
   </energy>
  </scstep>
  <scstep>
   <time name="dav">    7.62    7.65</time>
   <time name="total">    8.61    8.65</time>
   <energy>
    <i name="e_fr_energy">   -656.12329999 </i>
    <i name="e_wo_entrp">   -656.00793975 </i>
    <i name="e_0_energy">   -656.06561987 </i>
   </energy>
  </scstep>
  <scstep>
   <time name="dav">    7.92    7.95</time>
   <time name="total">    8.91    8.95</time>
   <energy>
    <i name="e_fr_energy">   -656.06336618 </i>
    <i name="e_wo_entrp">   -655.94667287 </i>
    <i name="e_0_energy">   -656.00501952 </i>
   </energy>
  </scstep>
  <scstep>
   <time name="dav">    8.26    8.29</time>
   <time name="total">    9.24    9.29</time>
   <energy>
    <i name="e_fr_energy">   -655.98267213 </i>
    <i name="e_wo_entrp">   -655.87060900 </i>
    <i name="e_0_energy">   -655.92664056 </i>
   </energy>
  </scstep>
  <scstep>
   <time name="dav">    8.33    8.42</time>
   <time name="total">    9.32    9.42</time>
   <energy>
    <i name="e_fr_energy">   -655.91899680 </i>
    <i name="e_wo_entrp">   -655.80707371 </i>
    <i name="e_0_energy">   -655.86303525 </i>
   </energy>
  </scstep>
  <scstep>
   <time name="dav">    7.67    7.72</time>
   <time name="total">    8.68    8.74</time>
   <energy>
    <i name="e_fr_energy">   -655.89377673 </i>
    <i name="e_wo_entrp">   -655.78210922 </i>
    <i name="e_0_energy">   -655.83794297 </i>
   </energy>
  </scstep>
  <scstep>
   <time name="dav">    7.43    7.48</time>
   <time name="total">    8.43    8.49</time>
   <energy>
    <i name="e_fr_energy">   -655.87425664 </i>
    <i name="e_wo_entrp">   -655.76188492 </i>
    <i name="e_0_energy">   -655.81807078 </i>
   </energy>
  </scstep>
  <scstep>
   <time name="dav">    8.17    8.20</time>
   <time name="total">    9.15    9.19</time>
   <energy>
    <i name="e_fr_energy">   -656.14573470 </i>
    <i name="e_wo_entrp">   -656.05305778 </i>
    <i name="e_0_energy">   -656.09939624 </i>
   </energy>
  </scstep>
  <scstep>
   <time name="dav">    6.18    6.20</time>
   <time name="total">    7.17    7.20</time>
   <energy>
    <i name="e_fr_energy">   -656.10433475 </i>
    <i name="e_wo_entrp">   -656.01118148 </i>
    <i name="e_0_energy">   -656.05775811 </i>
   </energy>
  </scstep>
  <scstep>
   <time name="dav">    7.54    7.57</time>
   <time name="total">    8.53    8.56</time>
   <energy>
    <i name="e_fr_energy">   -656.10355747 </i>
    <i name="e_wo_entrp">   -656.01040682 </i>
    <i name="e_0_energy">   -656.05698215 </i>
   </energy>
  </scstep>
  <scstep>
   <time name="dav">    6.05    6.07</time>
   <time name="total">    7.03    7.06</time>
   <energy>
    <i name="e_fr_energy">   -656.10304598 </i>
    <i name="e_wo_entrp">   -656.00989324 </i>
    <i name="e_0_energy">   -656.05646961 </i>
   </energy>
  </scstep>
  <scstep>
   <time name="dav">    4.94    4.96</time>
   <time name="total">    5.93    5.95</time>
   <energy>
    <i name="e_fr_energy">   -656.10686751 </i>
    <i name="e_wo_entrp">   -656.01374608 </i>
    <i name="e_0_energy">   -656.06030679 </i>
   </energy>
  </scstep>
  <scstep>
   <time name="dav">    8.01    8.04</time>
   <time name="total">    9.00    9.04</time>
   <energy>
    <i name="e_fr_energy">   -656.05494154 </i>
    <i name="e_wo_entrp">   -655.96132656 </i>
    <i name="e_0_energy">   -656.00813405 </i>
   </energy>
  </scstep>
  <scstep>
   <time name="dav">    7.91    7.95</time>
   <time name="total">    8.89    8.94</time>
   <energy>
    <i name="e_fr_energy">   -656.17682007 </i>
    <i name="e_wo_entrp">   -656.08360812 </i>
    <i name="e_0_energy">   -656.13021409 </i>
   </energy>
  </scstep>
  <scstep>
   <time name="dav">    7.93    7.95</time>
   <time name="total">    8.95    8.99</time>
   <energy>
    <i name="e_fr_energy">   -656.40363202 </i>
    <i name="e_wo_entrp">   -656.31088264 </i>
    <i name="e_0_energy">   -656.35725733 </i>
   </energy>
  </scstep>
  <scstep>
   <time name="dav">    7.52    7.54</time>
   <time name="total">    8.50    8.53</time>
   <energy>
    <i name="e_fr_energy">   -656.50521061 </i>
    <i name="e_wo_entrp">   -656.41256331 </i>
    <i name="e_0_energy">   -656.45888696 </i>
   </energy>
  </scstep>
  <scstep>
   <time name="dav">    6.61    6.63</time>
   <time name="total">    7.59    7.62</time>
   <energy>
    <i name="e_fr_energy">   -656.53031453 </i>
    <i name="e_wo_entrp">   -656.43768441 </i>
    <i name="e_0_energy">   -656.48399947 </i>
   </energy>
  </scstep>
  <scstep>
   <time name="dav">    8.43    8.46</time>
   <time name="total">    9.41    9.45</time>
   <energy>
    <i name="e_fr_energy">   -656.59277422 </i>
    <i name="e_wo_entrp">   -656.50025436 </i>
    <i name="e_0_energy">   -656.54651429 </i>
   </energy>
  </scstep>
  <scstep>
   <time name="dav">    6.88    6.91</time>
   <time name="total">    7.86    7.94</time>
   <energy>
    <i name="e_fr_energy">   -656.57787759 </i>
    <i name="e_wo_entrp">   -656.48533014 </i>
    <i name="e_0_energy">   -656.53160387 </i>
   </energy>
  </scstep>
  <scstep>
   <time name="dav">    5.68    5.70</time>
   <time name="total">    6.65    6.70</time>
   <energy>
    <i name="e_fr_energy">   -656.58342786 </i>
    <i name="e_wo_entrp">   -656.49088172 </i>
    <i name="e_0_energy">   -656.53715479 </i>
   </energy>
  </scstep>
  <scstep>
   <time name="dav">    4.84    4.85</time>
   <time name="total">    5.81    5.84</time>
   <energy>
    <i name="e_fr_energy">   -656.59435794 </i>
    <i name="e_wo_entrp">   -656.50183405 </i>
    <i name="e_0_energy">   -656.54809600 </i>
   </energy>
  </scstep>
  <scstep>
   <time name="dav">    5.41    5.48</time>
   <time name="total">    6.41    6.48</time>
   <energy>
    <i name="e_fr_energy">   -656.56760402 </i>
    <i name="e_wo_entrp">   -656.47504141 </i>
    <i name="e_0_energy">   -656.52132271 </i>
   </energy>
  </scstep>
  <scstep>
   <time name="dav">    7.78    7.81</time>
   <time name="total">    8.77    8.80</time>
   <energy>
    <i name="e_fr_energy">   -656.42985933 </i>
    <i name="e_wo_entrp">   -656.33711830 </i>
    <i name="e_0_energy">   -656.38348881 </i>
   </energy>
  </scstep>
  <scstep>
   <time name="dav">    6.43    6.45</time>
   <time name="total">    7.41    7.46</time>
   <energy>
    <i name="e_fr_energy">   -656.43139469 </i>
    <i name="e_wo_entrp">   -656.33864658 </i>
    <i name="e_0_energy">   -656.38502063 </i>
   </energy>
  </scstep>
  <scstep>
   <time name="dav">    5.22    5.24</time>
   <time name="total">    6.19    6.22</time>
   <energy>
    <i name="e_fr_energy">   -656.44164759 </i>
    <i name="e_wo_entrp">   -656.34891869 </i>
    <i name="e_0_energy">   -656.39528314 </i>
   </energy>
  </scstep>
  <scstep>
   <time name="dav">    7.05    7.07</time>
   <time name="total">    8.04    8.07</time>
   <energy>
    <i name="e_fr_energy">   -656.41347870 </i>
    <i name="e_wo_entrp">   -656.32067231 </i>
    <i name="e_0_energy">   -656.36707551 </i>
   </energy>
  </scstep>
  <scstep>
   <time name="dav">    8.81    8.84</time>
   <time name="total">    9.79    9.83</time>
   <energy>
    <i name="e_fr_energy">   -656.33366330 </i>
    <i name="e_wo_entrp">   -656.24059871 </i>
    <i name="e_0_energy">   -656.28713101 </i>
   </energy>
  </scstep>
  <scstep>
   <time name="dav">    7.99    8.04</time>
   <time name="total">    8.96    9.02</time>
   <energy>
    <i name="e_fr_energy">   -656.28044333 </i>
    <i name="e_wo_entrp">   -656.18722392 </i>
    <i name="e_0_energy">   -656.23383362 </i>
   </energy>
  </scstep>
  <scstep>
   <time name="dav">    6.55    6.58</time>
   <time name="total">    7.54    7.57</time>
   <energy>
    <i name="e_fr_energy">   -656.27589661 </i>
    <i name="e_wo_entrp">   -656.18266062 </i>
    <i name="e_0_energy">   -656.22927862 </i>
   </energy>
  </scstep>
  <scstep>
   <time name="dav">    6.61    6.64</time>
   <time name="total">    7.63    7.69</time>
   <energy>
    <i name="e_fr_energy">   -656.29479613 </i>
    <i name="e_wo_entrp">   -656.20164326 </i>
    <i name="e_0_energy">   -656.24821969 </i>
   </energy>
  </scstep>
  <scstep>
   <time name="dav">    4.94    4.96</time>
   <time name="total">    5.93    5.95</time>
   <energy>
    <i name="e_fr_energy">   -656.28340596 </i>
    <i name="e_wo_entrp">   -656.19020589 </i>
    <i name="e_0_energy">   -656.23680592 </i>
   </energy>
  </scstep>
  <scstep>
   <time name="dav">    6.97    7.00</time>
   <time name="total">    7.96    7.98</time>
   <energy>
    <i name="e_fr_energy">   -656.25589910 </i>
    <i name="e_wo_entrp">   -656.16258000 </i>
    <i name="e_0_energy">   -656.20923955 </i>
   </energy>
  </scstep>
  <scstep>
   <time name="dav">    8.45    8.48</time>
   <time name="total">    9.43    9.47</time>
   <energy>
    <i name="e_fr_energy">   -656.20894736 </i>
    <i name="e_wo_entrp">   -656.11533114 </i>
    <i name="e_0_energy">   -656.16213925 </i>
   </energy>
  </scstep>
  <scstep>
   <time name="dav">    6.61    6.64</time>
   <time name="total">    7.59    7.62</time>
   <energy>
    <i name="e_fr_energy">   -656.20515075 </i>
    <i name="e_wo_entrp">   -656.11151836 </i>
    <i name="e_0_energy">   -656.15833456 </i>
   </energy>
  </scstep>
  <scstep>
   <time name="dav">    5.05    5.07</time>
   <time name="total">    6.04    6.06</time>
   <energy>
    <i name="e_fr_energy">   -656.21302859 </i>
    <i name="e_wo_entrp">   -656.11943001 </i>
    <i name="e_0_energy">   -656.16622930 </i>
   </energy>
  </scstep>
  <scstep>
   <time name="dav">    6.24    6.27</time>
   <time name="total">    7.23    7.26</time>
   <energy>
    <i name="e_fr_energy">   -656.23095651 </i>
    <i name="e_wo_entrp">   -656.13744076 </i>
    <i name="e_0_energy">   -656.18419864 </i>
   </energy>
  </scstep>
  <scstep>
   <time name="dav">    8.38    8.43</time>
   <time name="total">    9.36    9.42</time>
   <energy>
    <i name="e_fr_energy">   -656.30260560 </i>
    <i name="e_wo_entrp">   -656.20938812 </i>
    <i name="e_0_energy">   -656.25599686 </i>
   </energy>
  </scstep>
  <scstep>
   <time name="dav">    8.24    8.28</time>
   <time name="total">    9.22    9.27</time>
   <energy>
    <i name="e_fr_energy">   -656.39081784 </i>
    <i name="e_wo_entrp">   -656.29789597 </i>
    <i name="e_0_energy">   -656.34435691 </i>
   </energy>
  </scstep>
  <scstep>
   <time name="dav">    6.41    6.43</time>
   <time name="total">    7.39    7.42</time>
   <energy>
    <i name="e_fr_energy">   -656.39687675 </i>
    <i name="e_wo_entrp">   -656.30397489 </i>
    <i name="e_0_energy">   -656.35042582 </i>
   </energy>
  </scstep>
  <scstep>
   <time name="dav">    6.23    6.25</time>
   <time name="total">    7.21    7.24</time>
   <energy>
    <i name="e_fr_energy">   -656.41278063 </i>
    <i name="e_wo_entrp">   -656.31991860 </i>
    <i name="e_0_energy">   -656.36634961 </i>
   </energy>
  </scstep>
  <scstep>
   <time name="dav">    6.73    6.75</time>
   <time name="total">    7.71    7.78</time>
   <energy>
    <i name="e_fr_energy">   -656.39652343 </i>
    <i name="e_wo_entrp">   -656.30361411 </i>
    <i name="e_0_energy">   -656.35006877 </i>
   </energy>
  </scstep>
  <scstep>
   <time name="dav">    7.59    7.61</time>
   <time name="total">    8.58    8.61</time>
   <energy>
    <i name="e_fr_energy">   -656.34656398 </i>
    <i name="e_wo_entrp">   -656.25351359 </i>
    <i name="e_0_energy">   -656.30003878 </i>
   </energy>
  </scstep>
  <scstep>
   <time name="dav">    6.74    6.76</time>
   <time name="total">    7.72    7.75</time>
   <energy>
    <i name="e_fr_energy">   -656.34084508 </i>
    <i name="e_wo_entrp">   -656.24780104 </i>
    <i name="e_0_energy">   -656.29432306 </i>
   </energy>
  </scstep>
  <scstep>
   <time name="dav">    7.20    7.23</time>
   <time name="total">    8.18    8.22</time>
   <energy>
    <i name="e_fr_energy">   -656.30714492 </i>
    <i name="e_wo_entrp">   -656.21401055 </i>
    <i name="e_0_energy">   -656.26057773 </i>
   </energy>
  </scstep>
  <scstep>
   <time name="dav">    7.77    7.82</time>
   <time name="total">    8.75    8.80</time>
   <energy>
    <i name="e_fr_energy">   -656.26452636 </i>
    <i name="e_wo_entrp">   -656.17126746 </i>
    <i name="e_0_energy">   -656.21789691 </i>
   </energy>
  </scstep>
  <scstep>
   <time name="dav">    7.66    7.69</time>
   <time name="total">    8.65    8.69</time>
   <energy>
    <i name="e_fr_energy">   -656.23683760 </i>
    <i name="e_wo_entrp">   -656.14351830 </i>
    <i name="e_0_energy">   -656.19017795 </i>
   </energy>
  </scstep>
  <scstep>
   <time name="dav">    8.33    8.36</time>
   <time name="total">    9.33    9.37</time>
   <energy>
    <i name="e_fr_energy">   -656.08942594 </i>
    <i name="e_wo_entrp">   -655.99559735 </i>
    <i name="e_0_energy">   -656.04251164 </i>
   </energy>
  </scstep>
  <scstep>
   <time name="dav">    7.22    7.24</time>
   <time name="total">    8.19    8.23</time>
   <energy>
    <i name="e_fr_energy">   -656.11095887 </i>
    <i name="e_wo_entrp">   -656.01696029 </i>
    <i name="e_0_energy">   -656.06395958 </i>
   </energy>
  </scstep>
  <scstep>
   <time name="dav">    7.04    7.08</time>
   <time name="total">    8.02    8.10</time>
   <energy>
    <i name="e_fr_energy">   -656.08701747 </i>
    <i name="e_wo_entrp">   -655.99294569 </i>
    <i name="e_0_energy">   -656.03998158 </i>
   </energy>
  </scstep>
  <scstep>
   <time name="dav">    8.51    8.56</time>
   <time name="total">    9.49    9.54</time>
   <energy>
    <i name="e_fr_energy">   -655.95842044 </i>
    <i name="e_wo_entrp">   -655.86289387 </i>
    <i name="e_0_energy">   -655.91065716 </i>
   </energy>
  </scstep>
  <scstep>
   <time name="dav">    7.82    7.84</time>
   <time name="total">    8.81    8.85</time>
   <energy>
    <i name="e_fr_energy">   -655.88645166 </i>
    <i name="e_wo_entrp">   -655.78811353 </i>
    <i name="e_0_energy">   -655.83728260 </i>
   </energy>
  </scstep>
  <scstep>
   <time name="dav">    7.06    7.15</time>
   <time name="total">    8.05    8.15</time>
   <energy>
    <i name="e_fr_energy">   -655.89111396 </i>
    <i name="e_wo_entrp">   -655.79423953 </i>
    <i name="e_0_energy">   -655.84267674 </i>
   </energy>
  </scstep>
  <scstep>
   <time name="dav">    8.57    8.61</time>
   <time name="total">    9.56    9.61</time>
   <energy>
    <i name="e_fr_energy">   -657.27287984 </i>
    <i name="e_wo_entrp">   -657.08541223 </i>
    <i name="e_0_energy">   -657.17914604 </i>
   </energy>
  </scstep>
  <scstep>
   <time name="dav">    7.59    7.62</time>
   <time name="total">    8.58    8.61</time>
   <energy>
    <i name="e_fr_energy">   -656.31147074 </i>
    <i name="e_wo_entrp">   -656.20662797 </i>
    <i name="e_0_energy">   -656.25904936 </i>
   </energy>
  </scstep>
  <scstep>
   <time name="dav">    7.78    7.81</time>
   <time name="total">    8.75    8.79</time>
   <energy>
    <i name="e_fr_energy">   -656.18222772 </i>
    <i name="e_wo_entrp">   -656.08827578 </i>
    <i name="e_0_energy">   -656.13525175 </i>
   </energy>
  </scstep>
  <scstep>
   <time name="dav">    6.90    6.93</time>
   <time name="total">    7.88    7.91</time>
   <energy>
    <i name="e_fr_energy">   -656.25755999 </i>
    <i name="e_wo_entrp">   -656.16321282 </i>
    <i name="e_0_energy">   -656.21038641 </i>
   </energy>
  </scstep>
  <scstep>
   <time name="dav">    7.19    7.21</time>
   <time name="total">    8.17    8.20</time>
   <energy>
    <i name="e_fr_energy">   -656.05531972 </i>
    <i name="e_wo_entrp">   -655.95974468 </i>
    <i name="e_0_energy">   -656.00753220 </i>
   </energy>
  </scstep>
  <scstep>
   <time name="dav">    7.74    7.76</time>
   <time name="total">    8.71    8.75</time>
   <energy>
    <i name="e_fr_energy">   -655.89073360 </i>
    <i name="e_wo_entrp">   -655.78935147 </i>
    <i name="e_0_energy">   -655.84004254 </i>
   </energy>
  </scstep>
  <scstep>
   <time name="dav">    7.47    7.52</time>
   <time name="total">    8.46    8.59</time>
   <energy>
    <i name="e_fr_energy">   -655.82499284 </i>
    <i name="e_wo_entrp">   -655.71584162 </i>
    <i name="e_0_energy">   -655.77041723 </i>
   </energy>
  </scstep>
  <scstep>
   <time name="dav">    7.34    7.36</time>
   <time name="total">    8.34    8.37</time>
   <energy>
    <i name="e_fr_energy">   -655.83766406 </i>
    <i name="e_wo_entrp">   -655.73547979 </i>
    <i name="e_0_energy">   -655.78657193 </i>
   </energy>
  </scstep>
  <scstep>
   <time name="dav">    8.39    8.90</time>
   <time name="total">    9.40    9.95</time>
   <energy>
    <i name="e_fr_energy">   -655.77297574 </i>
    <i name="e_wo_entrp">   -655.64859956 </i>
    <i name="e_0_energy">   -655.71078765 </i>
   </energy>
  </scstep>
  <scstep>
   <time name="dav">    8.14    8.17</time>
   <time name="total">    9.15    9.18</time>
   <energy>
    <i name="e_fr_energy">   -655.87983302 </i>
    <i name="e_wo_entrp">   -655.78296271 </i>
    <i name="e_0_energy">   -655.83139786 </i>
   </energy>
  </scstep>
  <scstep>
   <time name="dav">    7.65    7.67</time>
   <time name="total">    8.66    8.70</time>
   <energy>
    <i name="e_fr_energy">   -655.80941196 </i>
    <i name="e_wo_entrp">   -655.68522689 </i>
    <i name="e_0_energy">   -655.74731942 </i>
   </energy>
  </scstep>
  <scstep>
   <time name="dav">    7.13    7.15</time>
   <time name="total">    8.15    8.18</time>
   <energy>
    <i name="e_fr_energy">   -655.79997262 </i>
    <i name="e_wo_entrp">   -655.67408252 </i>
    <i name="e_0_energy">   -655.73702757 </i>
   </energy>
  </scstep>
  <scstep>
   <time name="dav">    6.52    6.54</time>
   <time name="total">    7.55    7.58</time>
   <energy>
    <i name="e_fr_energy">   -655.80165879 </i>
    <i name="e_wo_entrp">   -655.67696642 </i>
    <i name="e_0_energy">   -655.73931260 </i>
   </energy>
  </scstep>
  <scstep>
   <time name="dav">    7.19    7.61</time>
   <time name="total">    8.22    8.66</time>
   <energy>
    <i name="e_fr_energy">   -655.80592926 </i>
    <i name="e_wo_entrp">   -655.68367734 </i>
    <i name="e_0_energy">   -655.74480330 </i>
   </energy>
  </scstep>
  <scstep>
   <time name="dav">    5.91    5.94</time>
   <time name="total">    6.93    7.24</time>
   <energy>
    <i name="e_fr_energy">   -655.80338808 </i>
    <i name="e_wo_entrp">   -655.67967348 </i>
    <i name="e_0_energy">   -655.74153078 </i>
   </energy>
  </scstep>
  <scstep>
   <time name="dav">    7.83    7.92</time>
   <time name="total">    8.85    8.95</time>
   <energy>
    <i name="e_fr_energy">   -655.81144539 </i>
    <i name="e_wo_entrp">   -655.68893712 </i>
    <i name="e_0_energy">   -655.75019126 </i>
   </energy>
  </scstep>
  <scstep>
   <time name="dav">    7.52    7.56</time>
   <time name="total">    8.54    8.60</time>
   <energy>
    <i name="e_fr_energy">   -655.84007463 </i>
    <i name="e_wo_entrp">   -655.73508453 </i>
    <i name="e_0_energy">   -655.78757958 </i>
   </energy>
  </scstep>
  <scstep>
   <time name="dav">    6.55    6.58</time>
   <time name="total">    7.58    7.62</time>
   <energy>
    <i name="e_fr_energy">   -655.83828832 </i>
    <i name="e_wo_entrp">   -655.73236017 </i>
    <i name="e_0_energy">   -655.78532425 </i>
   </energy>
  </scstep>
  <scstep>
   <time name="dav">    4.74    4.77</time>
   <time name="total">    5.77    5.80</time>
   <energy>
    <i name="e_fr_energy">   -655.84018307 </i>
    <i name="e_wo_entrp">   -655.73524289 </i>
    <i name="e_0_energy">   -655.78771298 </i>
   </energy>
  </scstep>
  <scstep>
   <time name="dav">    5.34    5.36</time>
   <time name="total">    6.37    6.39</time>
   <energy>
    <i name="e_fr_energy">   -655.83349898 </i>
    <i name="e_wo_entrp">   -655.72599606 </i>
    <i name="e_0_energy">   -655.77974752 </i>
   </energy>
  </scstep>
  <scstep>
   <time name="dav">    6.29    6.31</time>
   <time name="total">    7.26    7.37</time>
   <energy>
    <i name="e_fr_energy">   -655.80375952 </i>
    <i name="e_wo_entrp">   -655.68210709 </i>
    <i name="e_0_energy">   -655.74293330 </i>
   </energy>
  </scstep>
  <scstep>
   <time name="dav">    6.82    7.17</time>
   <time name="total">    7.80    8.32</time>
   <energy>
    <i name="e_fr_energy">   -655.80014331 </i>
    <i name="e_wo_entrp">   -655.67607775 </i>
    <i name="e_0_energy">   -655.73811053 </i>
   </energy>
  </scstep>
  <scstep>
   <time name="dav">    6.30    6.33</time>
   <time name="total">    7.33    7.37</time>
   <energy>
    <i name="e_fr_energy">   -655.80089659 </i>
    <i name="e_wo_entrp">   -655.67733438 </i>
    <i name="e_0_energy">   -655.73911548 </i>
   </energy>
  </scstep>
  <scstep>
   <time name="dav">    5.01    5.03</time>
   <time name="total">    6.04    6.07</time>
   <energy>
    <i name="e_fr_energy">   -655.80123157 </i>
    <i name="e_wo_entrp">   -655.67826668 </i>
    <i name="e_0_energy">   -655.73974912 </i>
   </energy>
  </scstep>
  <scstep>
   <time name="dav">    4.57    4.59</time>
   <time name="total">    5.60    5.62</time>
   <energy>
    <i name="e_fr_energy">   -655.80273037 </i>
    <i name="e_wo_entrp">   -655.68115094 </i>
    <i name="e_0_energy">   -655.74194066 </i>
   </energy>
  </scstep>
  <scstep>
   <time name="dav">    7.22    7.25</time>
   <time name="total">    8.23    8.41</time>
   <energy>
    <i name="e_fr_energy">   -655.80825471 </i>
    <i name="e_wo_entrp">   -655.69005601 </i>
    <i name="e_0_energy">   -655.74915536 </i>
   </energy>
  </scstep>
  <scstep>
   <time name="dav">    7.34    7.37</time>
   <time name="total">    8.36    8.40</time>
   <energy>
    <i name="e_fr_energy">   -655.82511561 </i>
    <i name="e_wo_entrp">   -655.71631674 </i>
    <i name="e_0_energy">   -655.77071618 </i>
   </energy>
  </scstep>
  <scstep>
   <time name="dav">    6.18    6.20</time>
   <time name="total">    7.23    7.26</time>
   <energy>
    <i name="e_fr_energy">   -655.83084524 </i>
    <i name="e_wo_entrp">   -655.72430978 </i>
    <i name="e_0_energy">   -655.77757751 </i>
   </energy>
  </scstep>
  <scstep>
   <time name="dav">    6.08    6.11</time>
   <time name="total">    7.11    7.14</time>
   <energy>
    <i name="e_fr_energy">   -655.81866888 </i>
    <i name="e_wo_entrp">   -655.70661387 </i>
    <i name="e_0_energy">   -655.76264138 </i>
   </energy>
  </scstep>
  <scstep>
   <time name="dav">    7.03    7.43</time>
   <time name="total">    8.06    8.48</time>
   <energy>
    <i name="e_fr_energy">   -655.81287814 </i>
    <i name="e_wo_entrp">   -655.69707785 </i>
    <i name="e_0_energy">   -655.75497799 </i>
   </energy>
  </scstep>
  <scstep>
   <time name="dav">    7.77    7.81</time>
   <time name="total">    8.78    8.83</time>
   <energy>
    <i name="e_fr_energy">   -655.86842642 </i>
    <i name="e_wo_entrp">   -655.76856255 </i>
    <i name="e_0_energy">   -655.81849448 </i>
   </energy>
  </scstep>
  <scstep>
   <time name="dav">    7.43    7.46</time>
   <time name="total">    8.44    8.48</time>
   <energy>
    <i name="e_fr_energy">   -655.88556856 </i>
    <i name="e_wo_entrp">   -655.78654383 </i>
    <i name="e_0_energy">   -655.83605620 </i>
   </energy>
  </scstep>
  <scstep>
   <time name="dav">    7.45    7.49</time>
   <time name="total">    8.48    8.52</time>
   <energy>
    <i name="e_fr_energy">   -655.89452556 </i>
    <i name="e_wo_entrp">   -655.79564460 </i>
    <i name="e_0_energy">   -655.84508508 </i>
   </energy>
  </scstep>
  <scstep>
   <time name="dav">    6.21    6.24</time>
   <time name="total">    7.22    7.26</time>
   <energy>
    <i name="e_fr_energy">   -655.90075899 </i>
    <i name="e_wo_entrp">   -655.80141739 </i>
    <i name="e_0_energy">   -655.85108819 </i>
   </energy>
  </scstep>
  <scstep>
   <time name="dav">    8.24    8.28</time>
   <time name="total">    9.24    9.29</time>
   <energy>
    <i name="e_fr_energy">   -655.91206081 </i>
    <i name="e_wo_entrp">   -655.81067622 </i>
    <i name="e_0_energy">   -655.86136851 </i>
   </energy>
  </scstep>
  <scstep>
   <time name="dav">    7.59    7.63</time>
   <time name="total">    8.61    8.65</time>
   <energy>
    <i name="e_fr_energy">   -655.90382184 </i>
    <i name="e_wo_entrp">   -655.79706862 </i>
    <i name="e_0_energy">   -655.85044523 </i>
   </energy>
  </scstep>
  <scstep>
   <time name="dav">    6.72    7.13</time>
   <time name="total">    7.72    8.14</time>
   <energy>
    <i name="e_fr_energy">   -655.89585205 </i>
    <i name="e_wo_entrp">   -655.78352823 </i>
    <i name="e_0_energy">   -655.83969014 </i>
   </energy>
  </scstep>
  <scstep>
   <time name="dav">    7.25    7.28</time>
   <time name="total">    8.26    8.30</time>
   <energy>
    <i name="e_fr_energy">   -655.86363073 </i>
    <i name="e_wo_entrp">   -655.74647400 </i>
    <i name="e_0_energy">   -655.80505237 </i>
   </energy>
  </scstep>
  <scstep>
   <time name="dav">    8.08    8.13</time>
   <time name="total">    9.11    9.17</time>
   <energy>
    <i name="e_fr_energy">   -655.83146585 </i>
    <i name="e_wo_entrp">   -655.71471680 </i>
    <i name="e_0_energy">   -655.77309132 </i>
   </energy>
  </scstep>
  <scstep>
   <time name="dav">    7.68    7.72</time>
   <time name="total">    8.69    8.74</time>
   <energy>
    <i name="e_fr_energy">   -655.79530674 </i>
    <i name="e_wo_entrp">   -655.67737091 </i>
    <i name="e_0_energy">   -655.73633882 </i>
   </energy>
  </scstep>
  <scstep>
   <time name="dav">    8.00    8.04</time>
   <time name="total">    9.02    9.06</time>
   <energy>
    <i name="e_fr_energy">   -655.77103034 </i>
    <i name="e_wo_entrp">   -655.64387839 </i>
    <i name="e_0_energy">   -655.70745437 </i>
   </energy>
  </scstep>
  <scstep>
   <time name="dav">    7.12    7.15</time>
   <time name="total">    8.14    8.18</time>
   <energy>
    <i name="e_fr_energy">   -655.77760780 </i>
    <i name="e_wo_entrp">   -655.65451860 </i>
    <i name="e_0_energy">   -655.71606320 </i>
   </energy>
  </scstep>
  <scstep>
   <time name="dav">    6.65    6.68</time>
   <time name="total">    7.67    7.71</time>
   <energy>
    <i name="e_fr_energy">   -655.77828283 </i>
    <i name="e_wo_entrp">   -655.65575153 </i>
    <i name="e_0_energy">   -655.71701718 </i>
   </energy>
  </scstep>
  <scstep>
   <time name="dav">    4.35    4.64</time>
   <time name="total">    5.32    5.68</time>
   <energy>
    <i name="e_fr_energy">   -655.77534067 </i>
    <i name="e_wo_entrp">   -655.65238510 </i>
    <i name="e_0_energy">   -655.71386289 </i>
   </energy>
  </scstep>
  <scstep>
   <time name="dav">    6.17    6.23</time>
   <time name="total">    7.17    7.26</time>
   <energy>
    <i name="e_fr_energy">   -655.77146771 </i>
    <i name="e_wo_entrp">   -655.64596093 </i>
    <i name="e_0_energy">   -655.70871432 </i>
   </energy>
  </scstep>
  <scstep>
   <time name="dav">    6.55    6.59</time>
   <time name="total">    7.58    7.62</time>
   <energy>
    <i name="e_fr_energy">   -655.77348429 </i>
    <i name="e_wo_entrp">   -655.64792497 </i>
    <i name="e_0_energy">   -655.71070463 </i>
   </energy>
  </scstep>
  <scstep>
   <time name="dav">    7.26    7.30</time>
   <time name="total">    8.27    8.31</time>
   <energy>
    <i name="e_fr_energy">   -655.77165826 </i>
    <i name="e_wo_entrp">   -655.64687705 </i>
    <i name="e_0_energy">   -655.70926766 </i>
   </energy>
  </scstep>
  <scstep>
   <time name="dav">    6.31    6.33</time>
   <time name="total">    7.32    7.40</time>
   <energy>
    <i name="e_fr_energy">   -655.77127227 </i>
    <i name="e_wo_entrp">   -655.64856418 </i>
    <i name="e_0_energy">   -655.70991822 </i>
   </energy>
  </scstep>
  <scstep>
   <time name="dav">    5.23    5.25</time>
   <time name="total">    6.25    6.28</time>
   <energy>
    <i name="e_fr_energy">   -655.76987213 </i>
    <i name="e_wo_entrp">   -655.64762007 </i>
    <i name="e_0_energy">   -655.70874610 </i>
   </energy>
  </scstep>
  <scstep>
   <time name="dav">    6.17    6.20</time>
   <time name="total">    7.19    7.22</time>
   <energy>
    <i name="e_fr_energy">   -655.77005449 </i>
    <i name="e_wo_entrp">   -655.64945293 </i>
    <i name="e_0_energy">   -655.70975371 </i>
   </energy>
  </scstep>
  <scstep>
   <time name="dav">    4.68    4.70</time>
   <time name="total">    5.71    5.73</time>
   <energy>
    <i name="e_fr_energy">   -655.76995299 </i>
    <i name="e_wo_entrp">   -655.64835730 </i>
    <i name="e_0_energy">   -655.70915514 </i>
   </energy>
  </scstep>
  <scstep>
   <time name="dav">    3.97    3.99</time>
   <time name="total">    4.36    4.38</time>
   <energy>
    <i name="alphaZ">    562.94535741 </i>
    <i name="ewald">  42914.97634708 </i>
    <i name="hartreedc"> -62834.74412036 </i>
    <i name="XCdc">   -664.10776107 </i>
    <i name="pawpsdc">  43310.72849228 </i>
    <i name="pawaedc"> -41550.89856698 </i>
    <i name="eentropy">     -0.12182676 </i>
    <i name="bandstr">  -3311.61086316 </i>
    <i name="atom">  20917.06298232 </i>
    <i name="e_fr_energy">   -655.76995925 </i>
    <i name="e_wo_entrp">   -655.64813249 </i>
    <i name="e_0_energy">   -655.70904587 </i>
   </energy>
  </scstep>
  <structure>
   <crystal>
    <varray name="basis" >
     <v>       9.57094646       0.00000000       0.00000000 </v>
     <v>      -6.38062803      11.05157872       0.00000000 </v>
     <v>       0.00000000       0.00000000      34.88026251 </v>
    </varray>
    <i name="volume">   3689.42726549 </i>
    <varray name="rec_basis" >
     <v>       0.10448287       0.06032318       0.00000000 </v>
     <v>       0.00000000       0.09048481       0.00000000 </v>
     <v>       0.00000000       0.00000000       0.02866951 </v>
    </varray>
   </crystal>
   <varray name="positions" >
    <v>       0.52441191       0.89452300       0.37467598 </v>
    <v>       0.39419904       0.91903098       0.37208719 </v>
    <v>       0.52906471       0.85691263       0.41310612 </v>
    <v>       0.40132434       0.85778262       0.43423303 </v>
    <v>       0.31816514       0.89633993       0.40890359 </v>
    <v>       0.68911254       0.20810770       0.39288649 </v>
    <v>       0.61270459       0.15894833       0.45635688 </v>
    <v>       0.57522290       0.19816118       0.42134592 </v>
    <v>       0.74947000       0.14426585       0.44949937 </v>
    <v>       0.79673467       0.17477517       0.41027334 </v>
    <v>       0.55971560       0.03079252       0.41332004 </v>
    <v>       0.21724397       0.90871696       0.41659439 </v>
    <v>       0.47580230       0.21513899       0.41690629 </v>
    <v>       0.80599475       0.11358790       0.47027043 </v>
    <v>       0.54637528       0.14066602       0.48314064 </v>
    <v>       0.69136267       0.23388149       0.36308099 </v>
    <v>       0.36101863       0.95161366       0.34681916 </v>
    <v>       0.60729185       0.90520508       0.35169575 </v>
    <v>       0.61600049       0.83364960       0.42439224 </v>
    <v>       0.37432734       0.83580967       0.46442834 </v>
    <v>       0.89506795       0.17098080       0.39598681 </v>
    <v>       0.55555566       0.08333325       0.25000928 </v>
    <v>       0.55555566       0.33333325       0.25000928 </v>
    <v>       0.44444432       0.41666674       0.74999076 </v>
    <v>       0.55555566       0.58333325       0.25000928 </v>
    <v>       0.44444432       0.66666674       0.74999076 </v>
    <v>       0.55555566       0.83333325       0.25000928 </v>
    <v>       0.44444432       0.91666674       0.74999076 </v>
    <v>       0.88888899       0.33333325       0.25000928 </v>
    <v>       0.77777765       0.16666674       0.74999076 </v>
    <v>       0.77777765       0.41666674       0.74999076 </v>
    <v>       0.88888899       0.58333325       0.25000928 </v>
    <v>       0.77777765       0.66666674       0.74999076 </v>
    <v>       0.88888899       0.83333325       0.25000928 </v>
    <v>       0.77777765       0.91666674       0.74999076 </v>
    <v>       0.11111099       0.91666674       0.74999076 </v>
    <v>       0.88888899       0.08333325       0.25000928 </v>
    <v>       0.22222233       0.83333325       0.25000928 </v>
    <v>       0.44444432       0.16666674       0.74999076 </v>
    <v>       0.22222233       0.58333325       0.25000928 </v>
    <v>       0.11111099       0.41666674       0.74999076 </v>
    <v>       0.22222233       0.33333325       0.25000928 </v>
    <v>       0.22222233       0.08333325       0.25000928 </v>
    <v>       0.11111099       0.16666674       0.74999076 </v>
    <v>       0.11111099       0.66666674       0.74999076 </v>
    <v>       0.77777765       0.16666674       0.29487388 </v>
    <v>       0.88888899       0.08333325       0.79485533 </v>
    <v>       0.77777765       0.16666674       0.20514467 </v>
    <v>       0.88888899       0.08333325       0.70512613 </v>
    <v>       0.22222233       0.08333325       0.70512613 </v>
    <v>       0.11111099       0.16666674       0.20514467 </v>
    <v>       0.77777765       0.41666674       0.29487388 </v>
    <v>       0.88888899       0.33333325       0.79485533 </v>
    <v>       0.11111099       0.66666674       0.20514467 </v>
    <v>       0.55555566       0.83333325       0.70512613 </v>
    <v>       0.88888899       0.33333325       0.70512613 </v>
    <v>       0.22222233       0.08333325       0.79485533 </v>
    <v>       0.11111099       0.16666674       0.29487388 </v>
    <v>       0.77777765       0.66666674       0.29487388 </v>
    <v>       0.88888899       0.58333325       0.79485533 </v>
    <v>       0.77777765       0.66666674       0.20514467 </v>
    <v>       0.88888899       0.58333325       0.70512613 </v>
    <v>       0.77777765       0.91666674       0.29487388 </v>
    <v>       0.88888899       0.83333325       0.79485533 </v>
    <v>       0.77777765       0.41666674       0.20514467 </v>
    <v>       0.44444432       0.91666674       0.20514467 </v>
    <v>       0.44444432       0.91666674       0.29487388 </v>
    <v>       0.22222233       0.58333325       0.70512613 </v>
    <v>       0.22222233       0.58333325       0.79485533 </v>
    <v>       0.11111099       0.91666674       0.29487388 </v>
    <v>       0.22222233       0.83333325       0.79485533 </v>
    <v>       0.11111099       0.91666674       0.20514467 </v>
    <v>       0.22222233       0.83333325       0.70512613 </v>
    <v>       0.11111099       0.66666674       0.29487388 </v>
    <v>       0.77777765       0.91666674       0.20514467 </v>
    <v>       0.44444432       0.16666674       0.29487388 </v>
    <v>       0.55555566       0.08333325       0.79485533 </v>
    <v>       0.44444432       0.16666674       0.20514467 </v>
    <v>       0.55555566       0.08333325       0.70512613 </v>
    <v>       0.44444432       0.41666674       0.29487388 </v>
    <v>       0.55555566       0.33333325       0.79485533 </v>
    <v>       0.44444432       0.41666674       0.20514467 </v>
    <v>       0.55555566       0.33333325       0.70512613 </v>
    <v>       0.22222233       0.33333325       0.70512613 </v>
    <v>       0.11111099       0.41666674       0.20514467 </v>
    <v>       0.44444432       0.66666674       0.29487388 </v>
    <v>       0.55555566       0.58333325       0.79485533 </v>
    <v>       0.44444432       0.66666674       0.20514467 </v>
    <v>       0.55555566       0.58333325       0.70512613 </v>
    <v>       0.22222233       0.33333325       0.79485533 </v>
    <v>       0.11111099       0.41666674       0.29487388 </v>
    <v>       0.55555566       0.83333325       0.79485533 </v>
    <v>       0.88888899       0.83333325       0.70512613 </v>
   </varray>
  </structure>
  <varray name="forces" >
   <v>      -0.07761456       0.13213693       0.32423568 </v>
   <v>      -0.19643056       0.14274977       0.85662331 </v>
   <v>      -0.08110654       0.18179816       0.01346223 </v>
   <v>       0.02212607       0.13680629       0.04589954 </v>
   <v>       0.15266734       0.13711205       0.07782506 </v>
   <v>      -0.04279172      -0.09074300       0.00428978 </v>
   <v>       0.02796018      -0.13838551      -0.04865181 </v>
   <v>       0.07902512      -0.15473132      -0.07419447 </v>
   <v>      -0.07795952      -0.10618968      -0.05553083 </v>
   <v>      -0.12437983      -0.13808335      -0.05324222 </v>
   <v>      -0.01566587      -0.05909326       0.10109680 </v>
   <v>       0.00988336       0.01379356      -0.03362647 </v>
   <v>       0.01732339      -0.01685575      -0.02186091 </v>
   <v>      -0.02013529      -0.02247843      -0.01012487 </v>
   <v>       0.01630309      -0.01260191       0.00392730 </v>
   <v>      -0.00890535      -0.01838663       0.02583431 </v>
   <v>      -0.13308951       0.07699798       0.57123259 </v>
   <v>       0.04157329       0.00128180       0.14838508 </v>
   <v>      -0.00874201       0.02005417      -0.00679882 </v>
   <v>       0.02193814       0.00374622       0.01226110 </v>
   <v>      -0.01921852      -0.01694595      -0.04158286 </v>
   <v>       0.02165482       0.17177143      -0.03721006 </v>
   <v>       0.03253075       0.19227407       0.00699101 </v>
   <v>      -0.01909365      -0.17632544      -0.00833009 </v>
   <v>       0.03306341       0.16959956       0.00947097 </v>
   <v>      -0.01904325      -0.17684349      -0.00820889 </v>
   <v>       0.00977267       0.15218388      -0.04087962 </v>
   <v>      -0.01904994      -0.17642306      -0.00795655 </v>
   <v>       0.03860304       0.19719693       0.01472076 </v>
   <v>      -0.01299309      -0.17788446      -0.00812498 </v>
   <v>      -0.01306303      -0.17828794      -0.00817909 </v>
   <v>       0.01695693       0.17617738       0.02047528 </v>
   <v>      -0.01305573      -0.17852573      -0.00802996 </v>
   <v>       0.04519481       0.10498974       0.01139813 </v>
   <v>      -0.01306172      -0.17821708      -0.00800247 </v>
   <v>      -0.02086682      -0.17679687      -0.00828754 </v>
   <v>       0.02187750       0.18731301       0.01805219 </v>
   <v>       0.06047884       0.16140963       0.02588774 </v>
   <v>      -0.01903719      -0.17633455      -0.00836089 </v>
   <v>       0.01702349       0.19993483       0.02038258 </v>
   <v>      -0.02069763      -0.17678367      -0.00862008 </v>
   <v>       0.02385682       0.17753624       0.02057958 </v>
   <v>       0.01997201       0.18820421       0.01496086 </v>
   <v>      -0.02084680      -0.17644030      -0.00868667 </v>
   <v>      -0.02067723      -0.17701600      -0.00841344 </v>
   <v>       0.03367283      -0.10051727      -0.27466890 </v>
   <v>       0.00889973       0.08835193      -0.19554932 </v>
   <v>      -0.02087578      -0.09289253       0.21873258 </v>
   <v>       0.00891495       0.08920668       0.20178567 </v>
   <v>       0.00983530       0.08926851       0.20185939 </v>
   <v>      -0.01221726      -0.08945770       0.21406197 </v>
   <v>      -0.01677380      -0.08538901      -0.20797422 </v>
   <v>       0.00900537       0.08833139      -0.19557047 </v>
   <v>      -0.01304165      -0.07640304       0.20553024 </v>
   <v>       0.00897334       0.08904026       0.20169184 </v>
   <v>       0.00902317       0.08920421       0.20180015 </v>
   <v>       0.00975205       0.08849324      -0.19549496 </v>
   <v>      -0.01593538      -0.08667766      -0.21290803 </v>
   <v>      -0.01543175      -0.08816752      -0.21525427 </v>
   <v>       0.00885089       0.08831655      -0.19539475 </v>
   <v>      -0.01550834      -0.06928698       0.21100478 </v>
   <v>       0.00884454       0.08895833       0.20164378 </v>
   <v>       0.07510550      -0.06728545      -0.31900230 </v>
   <v>       0.00893516       0.08825623      -0.19553571 </v>
   <v>      -0.01228213      -0.08927842       0.21191658 </v>
   <v>      -0.01288899      -0.08518190       0.18190969 </v>
   <v>       0.31023873      -0.21651252      -1.99507625 </v>
   <v>       0.00982626       0.08892909       0.20171775 </v>
   <v>       0.00972782       0.08837214      -0.19536320 </v>
   <v>      -0.05267365      -0.07379864      -0.20953623 </v>
   <v>       0.00979610       0.08856363      -0.19544978 </v>
   <v>      -0.01403586      -0.08304253       0.20708326 </v>
   <v>       0.00986350       0.08906830       0.20172267 </v>
   <v>       0.00000502      -0.08200722      -0.18180926 </v>
   <v>      -0.01392568      -0.08190612       0.20989510 </v>
   <v>      -0.03965458      -0.06911212      -0.19171504 </v>
[...]
       <r>   -18.5666     0.0000     4.0000 </r>
       <r>   -18.4893     0.0000     4.0000 </r>
       <r>   -18.4120     0.0000     4.0000 </r>
       <r>   -18.3347     0.0000     4.0000 </r>
       <r>   -18.2574     0.0000     4.0000 </r>
       <r>   -18.1800     0.0000     4.0000 </r>
       <r>   -18.1027     0.0000     4.0000 </r>
       <r>   -18.0254     0.0000     4.0000 </r>
       <r>   -17.9481     0.0000     4.0000 </r>
       <r>   -17.8708     0.0000     4.0000 </r>
       <r>   -17.7934     0.0000     4.0000 </r>
       <r>   -17.7161     0.0000     4.0000 </r>
       <r>   -17.6388     0.0000     4.0000 </r>
       <r>   -17.5615     0.0000     4.0000 </r>
       <r>   -17.4842     0.0000     4.0000 </r>
       <r>   -17.4068     0.0000     4.0000 </r>
       <r>   -17.3295     0.0000     4.0000 </r>
       <r>   -17.2522     0.0000     4.0000 </r>
       <r>   -17.1749     0.0000     4.0000 </r>
       <r>   -17.0976     0.0000     4.0000 </r>
       <r>   -17.0202     0.0000     4.0000 </r>
       <r>   -16.9429     0.0000     4.0000 </r>
       <r>   -16.8656     0.0000     4.0000 </r>
       <r>   -16.7883     0.0000     4.0000 </r>
       <r>   -16.7110     0.0000     4.0000 </r>
       <r>   -16.6337     0.0000     4.0000 </r>
       <r>   -16.5563     0.0000     4.0000 </r>
       <r>   -16.4790     0.0000     4.0000 </r>
       <r>   -16.4017     0.0000     4.0000 </r>
       <r>   -16.3244     0.0000     4.0000 </r>
       <r>   -16.2471     0.0000     4.0000 </r>
       <r>   -16.1697     0.0000     4.0000 </r>
       <r>   -16.0924     0.0000     4.0000 </r>
       <r>   -16.0151     0.0000     4.0000 </r>
       <r>   -15.9378     0.0000     4.0000 </r>
       <r>   -15.8605     0.0045     4.0004 </r>
       <r>   -15.7831     0.1728     4.0137 </r>
       <r>   -15.7058     2.2600     4.1885 </r>
       <r>   -15.6285    10.7052     5.0162 </r>
       <r>   -15.5512    19.6030     6.5319 </r>
       <r>   -15.4739    14.3819     7.6439 </r>
       <r>   -15.3965     4.1468     7.9645 </r>
       <r>   -15.3192     0.4427     7.9987 </r>
       <r>   -15.2419     0.0164     8.0000 </r>
       <r>   -15.1646     0.0037     8.0003 </r>
       <r>   -15.0873     0.1960     8.0154 </r>
       <r>   -15.0099     3.6519     8.2978 </r>
       <r>   -14.9326    23.6963    10.1300 </r>
       <r>   -14.8553    59.2805    14.7135 </r>
       <r>   -14.7780    67.6657    19.9454 </r>
       <r>   -14.7007    40.4692    23.0744 </r>
       <r>   -14.6233    17.4505    24.4237 </r>
       <r>   -14.5460    26.9140    26.5047 </r>
       <r>   -14.4687    45.3342    30.0099 </r>
       <r>   -14.3914    53.6187    34.1556 </r>
       <r>   -14.3141    63.9523    39.1004 </r>
       <r>   -14.2368    47.0098    42.7351 </r>
       <r>   -14.1594    15.2915    43.9175 </r>
       <r>   -14.0821     8.9361    44.6084 </r>
       <r>   -14.0048    29.9005    46.9203 </r>
       <r>   -13.9275    63.4163    51.8236 </r>
       <r>   -13.8502   106.7238    60.0754 </r>
       <r>   -13.7728   137.2654    70.6886 </r>
       <r>   -13.6955   106.0302    78.8868 </r>
       <r>   -13.6182    75.7618    84.7447 </r>
       <r>   -13.5409    87.9513    91.5450 </r>
       <r>   -13.4636    93.9586    98.8098 </r>
       <r>   -13.3862    72.2265   104.3943 </r>
       <r>   -13.3089    36.3837   107.2075 </r>
       <r>   -13.2316     9.2648   107.9238 </r>
       <r>   -13.1543     0.9500   107.9973 </r>
       <r>   -13.0770     0.0347   108.0000 </r>
       <r>   -12.9996     0.0004   108.0000 </r>
       <r>   -12.9223     0.0000   108.0000 </r>
       <r>   -12.8450     0.0000   108.0000 </r>
       <r>   -12.7677     0.0000   108.0000 </r>
       <r>   -12.6904     0.0000   108.0000 </r>
       <r>   -12.6130     0.0000   108.0000 </r>
       <r>   -12.5357     0.0000   108.0000 </r>
       <r>   -12.4584     0.0000   108.0000 </r>
       <r>   -12.3811     0.0000   108.0000 </r>
       <r>   -12.3038     0.0000   108.0000 </r>
       <r>   -12.2265     0.0000   108.0000 </r>
       <r>   -12.1491     0.0000   108.0000 </r>
       <r>   -12.0718     0.0000   108.0000 </r>
       <r>   -11.9945     0.0000   108.0000 </r>
       <r>   -11.9172     0.0000   108.0000 </r>
       <r>   -11.8399     0.0000   108.0000 </r>
       <r>   -11.7625     0.0000   108.0000 </r>
       <r>   -11.6852     0.0000   108.0000 </r>
       <r>   -11.6079     0.0000   108.0000 </r>
       <r>   -11.5306     0.0000   108.0000 </r>
       <r>   -11.4533     0.0000   108.0000 </r>
       <r>   -11.3759     0.0000   108.0000 </r>
       <r>   -11.2986     0.0000   108.0000 </r>
       <r>   -11.2213     0.0000   108.0000 </r>
       <r>   -11.1440     0.0000   108.0000 </r>
       <r>   -11.0667     0.0000   108.0000 </r>
       <r>   -10.9893     0.0001   108.0000 </r>
       <r>   -10.9120     0.0108   108.0008 </r>
       <r>   -10.8347     0.3339   108.0267 </r>
       <r>   -10.7574     3.5686   108.3026 </r>
       <r>   -10.6801    13.8277   109.3717 </r>
       <r>   -10.6027    20.6814   110.9708 </r>
       <r>   -10.5254    16.5251   112.2485 </r>
       <r>   -10.4481    22.7833   114.0101 </r>
       <r>   -10.3708    30.6571   116.3805 </r>
       <r>   -10.2935    17.1994   117.7103 </r>
       <r>   -10.2162     4.0236   118.0214 </r>
       <r>   -10.1388     4.1525   118.3425 </r>
       <r>   -10.0615     9.9960   119.1154 </r>
       <r>    -9.9842     8.6539   119.7845 </r>
       <r>    -9.9069     2.5324   119.9803 </r>
       <r>    -9.8296     0.2468   119.9994 </r>
       <r>    -9.7522     0.0079   120.0000 </r>
       <r>    -9.6749     0.0001   120.0000 </r>
       <r>    -9.5976     0.0000   120.0000 </r>
       <r>    -9.5203     0.0000   120.0000 </r>
       <r>    -9.4430     0.0000   120.0000 </r>
       <r>    -9.3656     0.0000   120.0000 </r>
       <r>    -9.2883     0.0000   120.0000 </r>
       <r>    -9.2110     0.0000   120.0000 </r>
       <r>    -9.1337     0.0000   120.0000 </r>
       <r>    -9.0564     0.0000   120.0000 </r>
       <r>    -8.9790     0.0000   120.0000 </r>
       <r>    -8.9017     0.0000   120.0000 </r>
       <r>    -8.8244     0.0000   120.0000 </r>
       <r>    -8.7471     0.0000   120.0000 </r>
       <r>    -8.6698     0.0000   120.0000 </r>
       <r>    -8.5924     0.0000   120.0000 </r>
       <r>    -8.5151     0.0000   120.0000 </r>
       <r>    -8.4378     0.0000   120.0000 </r>
       <r>    -8.3605     0.0000   120.0000 </r>
       <r>    -8.2832     0.0000   120.0000 </r>
       <r>    -8.2058     0.0000   120.0000 </r>
       <r>    -8.1285     0.0000   120.0000 </r>
       <r>    -8.0512     0.0000   120.0000 </r>
       <r>    -7.9739     0.0009   120.0001 </r>
       <r>    -7.8966     0.0516   120.0041 </r>
       <r>    -7.8193     0.9192   120.0751 </r>
       <r>    -7.7419     5.3994   120.4926 </r>
       <r>    -7.6646    10.6519   121.3162 </r>
       <r>    -7.5873     7.1183   121.8666 </r>
       <r>    -7.5100     1.6222   121.9920 </r>
       <r>    -7.4327     0.7299   122.0485 </r>
       <r>    -7.3553     6.8127   122.5752 </r>
       <r>    -7.2780    28.4474   124.7748 </r>
       <r>    -7.2007    48.1209   128.4954 </r>
       <r>    -7.1234    37.9923   131.4330 </r>
       <r>    -7.0461    22.3145   133.1583 </r>
       <r>    -6.9687    21.2342   134.8001 </r>
       <r>    -6.8914    34.5270   137.4697 </r>
       <r>    -6.8141    68.1700   142.7406 </r>
       <r>    -6.7368   110.5930   151.2915 </r>
       <r>    -6.6595   103.1152   159.2643 </r>
       <r>    -6.5821    74.3131   165.0102 </r>
       <r>    -6.5048   107.3713   173.3120 </r>
       <r>    -6.4275   150.6840   184.9628 </r>
       <r>    -6.3502   139.6952   195.7640 </r>
       <r>    -6.2729    99.4066   203.4500 </r>
       <r>    -6.1955    46.4984   207.0452 </r>
       <r>    -6.1182    11.1259   207.9055 </r>
       <r>    -6.0409     1.1733   207.9962 </r>
       <r>    -5.9636     0.0501   208.0001 </r>
       <r>    -5.8863     0.1012   208.0079 </r>
       <r>    -5.8090     2.0268   208.1646 </r>
       <r>    -5.7316    14.7646   209.3062 </r>
       <r>    -5.6543    42.3641   212.5818 </r>
       <r>    -5.5770    54.6451   216.8069 </r>
       <r>    -5.4997    51.4422   220.7844 </r>
       <r>    -5.4224   102.2253   228.6883 </r>
       <r>    -5.3450   203.0610   244.3889 </r>
       <r>    -5.2677   201.2160   259.9468 </r>
       <r>    -5.1904    89.3675   266.8566 </r>
       <r>    -5.1131    28.6962   269.0754 </r>
       <r>    -5.0358    36.3573   271.8865 </r>
       <r>    -4.9584    36.6276   274.7185 </r>
       <r>    -4.8811    17.2630   276.0533 </r>
       <r>    -4.8038    24.8136   277.9718 </r>
       <r>    -4.7265    73.4526   283.6512 </r>
       <r>    -4.6492   102.5328   291.5789 </r>
       <r>    -4.5718    81.3738   297.8707 </r>
       <r>    -4.4945    75.3105   303.6936 </r>
       <r>    -4.4172    88.2045   310.5135 </r>
       <r>    -4.3399    91.7043   317.6041 </r>
       <r>    -4.2626    64.3519   322.5797 </r>
       <r>    -4.1852    37.2968   325.4635 </r>
       <r>    -4.1079    49.4172   329.2844 </r>
       <r>    -4.0306    64.0153   334.2340 </r>
       <r>    -3.9533    62.3333   339.0535 </r>
       <r>    -3.8760    55.5191   343.3462 </r>
       <r>    -3.7986    41.8842   346.5847 </r>
       <r>    -3.7213    22.4715   348.3222 </r>
       <r>    -3.6440    21.6968   349.9998 </r>
       <r>    -3.5667    26.2817   352.0318 </r>
       <r>    -3.4894    35.0831   354.7444 </r>
       <r>    -3.4121    56.6681   359.1260 </r>
       <r>    -3.3347    90.8224   366.1483 </r>
       <r>    -3.2574   137.5542   376.7839 </r>
       <r>    -3.1801   142.7916   387.8245 </r>
       <r>    -3.1028   108.1550   396.1869 </r>
       <r>    -3.0255    82.5825   402.5721 </r>
       <r>    -2.9481    73.0133   408.2175 </r>
       <r>    -2.8708    89.0318   415.1013 </r>
       <r>    -2.7935   109.2113   423.5455 </r>
       <r>    -2.7162    85.7670   430.1769 </r>
       <r>    -2.6389    41.0668   433.3522 </r>
       <r>    -2.5615    29.2984   435.6175 </r>
       <r>    -2.4842    64.5739   440.6103 </r>
       <r>    -2.4069    93.9925   447.8778 </r>
       <r>    -2.3296    78.9450   453.9817 </r>
       <r>    -2.2523    52.6178   458.0501 </r>
       <r>    -2.1749    51.3968   462.0241 </r>
       <r>    -2.0976    61.4213   466.7731 </r>
       <r>    -2.0203    55.9161   471.0965 </r>
       <r>    -1.9430    50.4778   474.9994 </r>
       <r>    -1.8657    30.8146   477.3820 </r>
       <r>    -1.7883    13.5710   478.4313 </r>
       <r>    -1.7110    26.3181   480.4662 </r>
       <r>    -1.6337    41.7509   483.6943 </r>
       <r>    -1.5564    29.7493   485.9945 </r>
       <r>    -1.4791    21.9316   487.6903 </r>
       <r>    -1.4018    19.9443   489.2323 </r>
       <r>    -1.3244     8.5131   489.8906 </r>
       <r>    -1.2471     1.3401   489.9942 </r>
       <r>    -1.1698     0.0739   489.9999 </r>
       <r>    -1.0925     0.0014   490.0000 </r>
       <r>    -1.0152     0.0000   490.0000 </r>
       <r>    -0.9378     0.0000   490.0000 </r>
       <r>    -0.8605     0.0000   490.0000 </r>
       <r>    -0.7832     0.0000   490.0000 </r>
       <r>    -0.7059     0.0000   490.0000 </r>
       <r>    -0.6286     0.0000   490.0000 </r>
       <r>    -0.5512     0.0000   490.0000 </r>
       <r>    -0.4739     0.0000   490.0000 </r>
       <r>    -0.3966     0.0000   490.0000 </r>
       <r>    -0.3193     0.0000   490.0000 </r>
       <r>    -0.2420     0.0000   490.0000 </r>
       <r>    -0.1646     0.0000   490.0000 </r>
       <r>    -0.0873     0.0000   490.0000 </r>
       <r>    -0.0100     0.0000   490.0000 </r>
       <r>     0.0673     0.0009   490.0001 </r>
       <r>     0.1446     0.0726   490.0057 </r>
       <r>     0.2220     1.8583   490.1494 </r>
       <r>     0.2993    16.3235   491.4115 </r>
       <r>     0.3766    51.2089   495.3709 </r>
       <r>     0.4539    62.8247   500.2285 </r>
       <r>     0.5312    49.9241   504.0886 </r>
       <r>     0.6086    71.0616   509.5830 </r>
       <r>     0.6859   129.0880   519.5640 </r>
       <r>     0.7632   165.4079   532.3532 </r>
       <r>     0.8405   145.2231   543.5818 </r>
       <r>     0.9178   127.2739   553.4225 </r>
       <r>     0.9951    81.4340   559.7189 </r>
       <r>     1.0725    27.9662   561.8813 </r>
       <r>     1.1498    21.6554   563.5556 </r>
       <r>     1.2271    64.0248   568.5060 </r>
       <r>     1.3044   108.9199   576.9276 </r>
       <r>     1.3817   114.9521   585.8156 </r>
       <r>     1.4591    97.1584   593.3278 </r>
       <r>     1.5364    61.9328   598.1164 </r>
       <r>     1.6137    21.2039   599.7559 </r>
       <r>     1.6910     3.0010   599.9879 </r>
       <r>     1.7683     0.1533   599.9998 </r>
       <r>     1.8457     0.0026   600.0000 </r>
       <r>     1.9230     0.0000   600.0000 </r>
       <r>     2.0003     0.0000   600.0000 </r>
       <r>     2.0776     0.0000   600.0000 </r>
       <r>     2.1549     0.0000   600.0000 </r>
       <r>     2.2323     0.0000   600.0000 </r>
       <r>     2.3096     0.0000   600.0000 </r>
       <r>     2.3869     0.0000   600.0000 </r>
       <r>     2.4642     0.0000   600.0000 </r>
       <r>     2.5415     0.0000   600.0000 </r>
      </set>
     </set>
    </array>
   </total>
  </dos>
 </calculation>
 <structure name="finalpos" >
  <crystal>
   <varray name="basis" >
    <v>       9.57094646       0.00000000       0.00000000 </v>
    <v>      -6.38062803      11.05157872       0.00000000 </v>
    <v>       0.00000000       0.00000000      34.88026251 </v>
   </varray>
   <i name="volume">   3689.42726549 </i>
   <varray name="rec_basis" >
    <v>       0.10448287       0.06032318       0.00000000 </v>
    <v>       0.00000000       0.09048481       0.00000000 </v>
    <v>       0.00000000       0.00000000       0.02866951 </v>
   </varray>
  </crystal>
  <varray name="positions" >
   <v>       0.49222274       0.87633312       0.38845605 </v>
   <v>       0.36126762       0.90030394       0.38797447 </v>
   <v>       0.52328629       0.86024699       0.42755262 </v>
   <v>       0.41149697       0.87428187       0.45130039 </v>
   <v>       0.31150744       0.89917767       0.42676286 </v>
   <v>       0.65330337       0.18912357       0.38987401 </v>
   <v>       0.63644564       0.17498366       0.45620113 </v>
   <v>       0.56797072       0.19613916       0.42257266 </v>
   <v>       0.76415304       0.15466841       0.44418669 </v>
   <v>       0.77440280       0.16336900       0.40318522 </v>
   <v>       0.54955495       0.02882670       0.42002369 </v>
   <v>       0.21715058       0.91727329       0.43598761 </v>
   <v>       0.46616846       0.21160500       0.42180902 </v>
   <v>       0.83712997       0.13315274       0.46292118 </v>
   <v>       0.59570976       0.17149341       0.48552266 </v>
   <v>       0.62733660       0.19760755       0.36006181 </v>
   <v>       0.31195254       0.91967735       0.36262934 </v>
   <v>       0.55913004       0.87461729       0.36349558 </v>
   <v>       0.61803141       0.84351431       0.43749417 </v>
   <v>       0.40651980       0.87018549       0.48243993 </v>
   <v>       0.85620669       0.14952870       0.38504567 </v>
   <v>       0.56116698       0.08513109       0.24647271 </v>
   <v>       0.56094123       0.33498253       0.24671365 </v>
   <v>       0.44463417       0.41638773       0.74955464 </v>
   <v>       0.56086393       0.58470560       0.24678812 </v>
   <v>       0.44463430       0.66638640       0.74955518 </v>
   <v>       0.56103008       0.83455425       0.24651723 </v>
   <v>       0.44463386       0.91638666       0.74955429 </v>
   <v>       0.89445704       0.33495426       0.24670779 </v>
   <v>       0.77798450       0.16639427       0.74955596 </v>
   <v>       0.77798193       0.41639187       0.74955646 </v>
   <v>       0.89421161       0.58475387       0.24679530 </v>
   <v>       0.77797980       0.66638922       0.74955717 </v>
   <v>       0.89412946       0.83461037       0.24678385 </v>
   <v>       0.77798157       0.91639241       0.74955636 </v>
   <v>       0.11129326       0.91639501       0.74956431 </v>
   <v>       0.89433455       0.08466156       0.24667313 </v>
   <v>       0.22734093       0.83468794       0.24656608 </v>
   <v>       0.44463563       0.16638934       0.74955382 </v>
   <v>       0.22765329       0.58491774       0.24678872 </v>
   <v>       0.11129654       0.41639526       0.74956338 </v>
   <v>       0.22766221       0.33480260       0.24673270 </v>
   <v>       0.22744680       0.08472736       0.24670458 </v>
   <v>       0.11129375       0.16639684       0.74956293 </v>
   <v>       0.11129378       0.66639277       0.74956516 </v>
   <v>       0.78257161       0.16725872       0.29108100 </v>
   <v>       0.88969174       0.08384315       0.79412282 </v>
   <v>       0.78306567       0.16755745       0.20208617 </v>
   <v>       0.88972137       0.08385819       0.70500914 </v>
   <v>       0.22302536       0.08385427       0.70501404 </v>
   <v>       0.11592790       0.16736401       0.20215160 </v>
   <v>       0.78240011       0.41717792       0.29128080 </v>
   <v>       0.88969363       0.33384272       0.79412289 </v>
   <v>       0.11551458       0.66706283       0.20217014 </v>
   <v>       0.55638031       0.83385154       0.70500767 </v>
   <v>       0.88972480       0.33385998       0.70500915 </v>
   <v>       0.22304811       0.08386247       0.79412385 </v>
   <v>       0.11572643       0.16727091       0.29124144 </v>
   <v>       0.78240774       0.66724024       0.29131868 </v>
   <v>       0.88968955       0.58383946       0.79412411 </v>
   <v>       0.78240187       0.66724057       0.20224055 </v>
   <v>       0.88972342       0.58385637       0.70500994 </v>
   <v>       0.78202493       0.91716624       0.29122632 </v>
   <v>       0.88969094       0.83384229       0.79412302 </v>
   <v>       0.78251738       0.41744991       0.20219122 </v>
   <v>       0.44910794       0.91729370       0.20198074 </v>
   <v>       0.44957961       0.91763445       0.29064067 </v>
   <v>       0.22302580       0.58385361       0.70501436 </v>
   <v>       0.22304894       0.58385817       0.79412514 </v>
   <v>       0.11600332       0.91723385       0.29124083 </v>
   <v>       0.22304902       0.83386074       0.79412501 </v>
   <v>       0.11541691       0.91732767       0.20214627 </v>
   <v>       0.22302143       0.83384937       0.70501446 </v>
   <v>       0.11596092       0.66764163       0.29128854 </v>
   <v>       0.78286390       0.91725583       0.20211496 </v>
   <v>       0.44912303       0.16734143       0.29110632 </v>
   <v>       0.55637166       0.08384668       0.79411695 </v>
   <v>       0.44889492       0.16764523       0.20209805 </v>
   <v>       0.55638231       0.08385458       0.70500730 </v>
   <v>       0.44899304       0.41724758       0.29130854 </v>
   <v>       0.55637115       0.33384582       0.79411794 </v>
   <v>       0.44915949       0.41747477       0.20217088 </v>
   <v>       0.55638065       0.33385557       0.70500747 </v>
   <v>       0.22302842       0.33385511       0.70501346 </v>
   <v>       0.11608734       0.41755299       0.20220479 </v>
   <v>       0.44930269       0.66753463       0.29127607 </v>
   <v>       0.55636866       0.58384452       0.79411938 </v>
   <v>       0.44891447       0.66686523       0.20214725 </v>
   <v>       0.55637955       0.58385353       0.70500838 </v>
   <v>       0.22304655       0.33385824       0.79412447 </v>
   <v>       0.11586122       0.41730731       0.29126244 </v>
   <v>       0.55637119       0.83384834       0.79411802 </v>
   <v>       0.88971973       0.83385380       0.70501013 </v>
  </varray>
 </structure>
</modeling>
