basalPlane                              
           1
     9.570946    0.000000    0.000000
    -6.380628   11.051579    0.000000
     0.000000    0.000000   34.880263
   C    Co   H    Mo   S 
  10   1  10  24  48
Direct configuration=     1
   0.52441191  0.89452300  0.37467598
   0.39419904  0.91903098  0.37208719
   0.52906471  0.85691263  0.41310612
   0.40132434  0.85778262  0.43423303
   0.31816514  0.89633993  0.40890359
   0.68911254  0.20810770  0.39288649
   0.61270459  0.15894833  0.45635688
   0.57522290  0.19816118  0.42134592
   0.74947000  0.14426585  0.44949937
   0.79673467  0.17477517  0.41027334
   0.55971560  0.03079252  0.41332004
   0.21724397  0.90871696  0.41659439
   0.47580230  0.21513899  0.41690629
   0.80599475  0.11358790  0.47027043
   0.54637528  0.14066602  0.48314064
   0.69136267  0.23388149  0.36308099
   0.36101863  0.95161366  0.34681916
   0.60729185  0.90520508  0.35169575
   0.61600049  0.83364960  0.42439224
   0.37432734  0.83580967  0.46442834
   0.89506795  0.17098080  0.39598681
   0.55555566  0.08333325  0.25000928
   0.55555566  0.33333325  0.25000928
   0.44444432  0.41666674  0.74999076
   0.55555566  0.58333325  0.25000928
   0.44444432  0.66666674  0.74999076
   0.55555566  0.83333325  0.25000928
   0.44444432  0.91666674  0.74999076
   0.88888899  0.33333325  0.25000928
   0.77777765  0.16666674  0.74999076
   0.77777765  0.41666674  0.74999076
   0.88888899  0.58333325  0.25000928
   0.77777765  0.66666674  0.74999076
   0.88888899  0.83333325  0.25000928
   0.77777765  0.91666674  0.74999076
   0.11111099  0.91666674  0.74999076
   0.88888899  0.08333325  0.25000928
   0.22222233  0.83333325  0.25000928
   0.44444432  0.16666674  0.74999076
   0.22222233  0.58333325  0.25000928
   0.11111099  0.41666674  0.74999076
   0.22222233  0.33333325  0.25000928
   0.22222233  0.08333325  0.25000928
   0.11111099  0.16666674  0.74999076
   0.11111099  0.66666674  0.74999076
   0.77777765  0.16666674  0.29487388
   0.88888899  0.08333325  0.79485533
   0.77777765  0.16666674  0.20514467
   0.88888899  0.08333325  0.70512613
   0.22222233  0.08333325  0.70512613
   0.11111099  0.16666674  0.20514467
   0.77777765  0.41666674  0.29487388
   0.88888899  0.33333325  0.79485533
   0.11111099  0.66666674  0.20514467
   0.55555566  0.83333325  0.70512613
   0.88888899  0.33333325  0.70512613
   0.22222233  0.08333325  0.79485533
   0.11111099  0.16666674  0.29487388
   0.77777765  0.66666674  0.29487388
   0.88888899  0.58333325  0.79485533
   0.77777765  0.66666674  0.20514467
   0.88888899  0.58333325  0.70512613
   0.77777765  0.91666674  0.29487388
   0.88888899  0.83333325  0.79485533
   0.77777765  0.41666674  0.20514467
   0.44444432  0.91666674  0.20514467
   0.44444432  0.91666674  0.29487388
   0.22222233  0.58333325  0.70512613
   0.22222233  0.58333325  0.79485533
   0.11111099  0.91666674  0.29487388
   0.22222233  0.83333325  0.79485533
   0.11111099  0.91666674  0.20514467
   0.22222233  0.83333325  0.70512613
   0.11111099  0.66666674  0.29487388
   0.77777765  0.91666674  0.20514467
   0.44444432  0.16666674  0.29487388
   0.55555566  0.08333325  0.79485533
   0.44444432  0.16666674  0.20514467
   0.55555566  0.08333325  0.70512613
   0.44444432  0.41666674  0.29487388
   0.55555566  0.33333325  0.79485533
   0.44444432  0.41666674  0.20514467
   0.55555566  0.33333325  0.70512613
   0.22222233  0.33333325  0.70512613
   0.11111099  0.41666674  0.20514467
   0.44444432  0.66666674  0.29487388
   0.55555566  0.58333325  0.79485533
   0.44444432  0.66666674  0.20514467
   0.55555566  0.58333325  0.70512613
   0.22222233  0.33333325  0.79485533
   0.11111099  0.41666674  0.29487388
   0.55555566  0.83333325  0.79485533
   0.88888899  0.83333325  0.70512613
Direct configuration=     2
   0.52440523  0.89509981  0.37512443
   0.39362435  0.91965412  0.37327198
   0.52918495  0.85770622  0.41312474
   0.40183399  0.85837981  0.43429652
   0.31933368  0.89693845  0.40901123
   0.68863277  0.20771158  0.39289242
   0.61244280  0.15834424  0.45628959
   0.57517093  0.19748574  0.42124330
   0.74876802  0.14380231  0.44942256
   0.79570588  0.17417241  0.41019970
   0.55946467  0.03053457  0.41345986
   0.21733393  0.90877718  0.41654788
   0.47584057  0.21506541  0.41687606
   0.80582785  0.11348978  0.47025642
   0.54642078  0.14061101  0.48314607
   0.69126427  0.23380123  0.36311672
   0.36057186  0.95194977  0.34760923
   0.60750513  0.90521068  0.35190098
   0.61601479  0.83373715  0.42438284
   0.37444883  0.83582602  0.46444529
   0.89492176  0.17090683  0.39592930
   0.55616469  0.08408307  0.24995782
   0.55627918  0.33417257  0.25001895
   0.44383494  0.41589704  0.74997924
   0.55621588  0.58407359  0.25002238
   0.44383369  0.66589478  0.74997940
   0.55604780  0.83399756  0.24995274
   0.44383488  0.91589662  0.74997975
   0.88965745  0.33419406  0.25002964
   0.77719449  0.16589024  0.74997952
   0.77719296  0.41588848  0.74997945
   0.88948717  0.58410230  0.25003760
   0.77719231  0.66588744  0.74997965
   0.88942233  0.83379155  0.25002505
   0.77719318  0.91588878  0.74997969
   0.11049130  0.91589498  0.74997930
   0.88954438  0.08415091  0.25003425
   0.22299690  0.83403784  0.25004509
   0.44383520  0.16589700  0.74997919
   0.22288997  0.58420601  0.25003747
   0.11049219  0.41589504  0.74997884
   0.22285923  0.33410823  0.25003775
   0.22287070  0.08415480  0.25002998
   0.11049244  0.16589654  0.74997874
   0.11049162  0.66589403  0.74997912
   0.77765486  0.16622796  0.29449399
   0.88919097  0.08371892  0.79458487
   0.77740210  0.16626125  0.20544720
   0.88919353  0.08372265  0.70540522
   0.22253169  0.08372292  0.70540532
   0.11078907  0.16627624  0.20544074
   0.77744461  0.41629400  0.29458623
   0.88919144  0.33371883  0.79458484
   0.11082290  0.66633323  0.20542894
   0.55586001  0.83372193  0.70540509
   0.88919407  0.33372264  0.70540524
   0.22252901  0.08371954  0.79458494
   0.11077842  0.16628838  0.29457941
   0.77744329  0.66628187  0.29457616
   0.88919062  0.58371877  0.79458508
   0.77749785  0.66636429  0.20543651
   0.88919246  0.58372157  0.70540502
   0.77796041  0.91637303  0.29443267
   0.88919087  0.83371851  0.79458488
   0.77745593  0.41627702  0.20543777
   0.44413146  0.91629490  0.20539627
   0.44537800  0.91572162  0.29211451
   0.22253065  0.58372144  0.70540513
   0.22252854  0.58371901  0.79458512
   0.11063072  0.91634459  0.29458407
   0.22252944  0.83371985  0.79458500
   0.11079857  0.91630424  0.20543109
   0.22253125  0.83372205  0.70540513
   0.11087236  0.66630876  0.29462242
   0.77746910  0.91630920  0.20543498
   0.44404331  0.16636505  0.29460872
   0.55585821  0.08371915  0.79458478
   0.44415411  0.16627177  0.20544622
   0.55586087  0.08372262  0.70540520
   0.44409603  0.41626277  0.29459713
   0.55585828  0.33371935  0.79458507
   0.44415171  0.41628996  0.20542686
   0.55586098  0.33372293  0.70540512
   0.22253140  0.33372325  0.70540530
   0.11075901  0.41626173  0.20542982
   0.44408034  0.66630080  0.29462177
   0.55585855  0.58371945  0.79458513
   0.44415257  0.66632421  0.20543312
   0.55586064  0.58372200  0.70540508
   0.22252863  0.33371969  0.79458501
   0.11075856  0.41625728  0.29458751
   0.55585796  0.83371968  0.79458499
   0.88919264  0.83372103  0.70540522
Direct configuration=     3
   0.52440595  0.89503756  0.37507603
   0.39368637  0.91958687  0.37314411
   0.52917197  0.85762057  0.41312273
   0.40177899  0.85831536  0.43428967
   0.31920756  0.89687386  0.40899961
   0.68868455  0.20775434  0.39289178
   0.61247105  0.15840944  0.45629685
   0.57517654  0.19755864  0.42125437
   0.74884378  0.14385234  0.44943085
   0.79581692  0.17423746  0.41020765
   0.55949175  0.03056241  0.41344477
   0.21732422  0.90877068  0.41655290
   0.47583644  0.21507335  0.41687932
   0.80584586  0.11350037  0.47025794
   0.54641587  0.14061695  0.48314549
   0.69127489  0.23380989  0.36311286
   0.36062008  0.95191349  0.34752395
   0.60748211  0.90521007  0.35187883
   0.61601324  0.83372770  0.42438385
   0.37443571  0.83582426  0.46444346
   0.89493754  0.17091481  0.39593550
   0.55609896  0.08400214  0.24996337
   0.55620109  0.33408198  0.25001791
   0.44390071  0.41598011  0.74998048
   0.55614462  0.58399368  0.25002097
   0.44389959  0.66597810  0.74998063
   0.55599468  0.83392587  0.24995885
   0.44390066  0.91597973  0.74998094
   0.88957451  0.33410115  0.25002745
   0.77725743  0.16597404  0.74998073
   0.77725607  0.41597247  0.74998067
   0.88942261  0.58401930  0.25003455
   0.77725548  0.66597155  0.74998085
   0.88936477  0.83374209  0.25002335
   0.77725626  0.91597275  0.74998088
   0.11055818  0.91597828  0.74998053
   0.88947364  0.08406266  0.25003156
   0.22291330  0.83396179  0.25004122
   0.44390094  0.16598008  0.74998044
   0.22281792  0.58411181  0.25003443
   0.11055898  0.41597833  0.74998012
   0.22279049  0.33402459  0.25003467
   0.22280072  0.08406613  0.25002774
   0.11055920  0.16597967  0.74998004
   0.11055847  0.66597743  0.74998038
   0.77766811  0.16627532  0.29453499
   0.88915838  0.08367730  0.79461406
   0.77744263  0.16630501  0.20541455
   0.88916067  0.08368063  0.70537510
   0.22249830  0.08368087  0.70537519
   0.11082381  0.16631839  0.20540879
   0.77748055  0.41633423  0.29461728
   0.88915880  0.33367722  0.79461403
   0.11085400  0.66636922  0.20539826
   0.55582716  0.83367998  0.70537498
   0.88916115  0.33368062  0.70537512
   0.22249591  0.08367785  0.79461412
   0.11081431  0.16632921  0.29461119
   0.77747938  0.66632341  0.29460830
   0.88915807  0.58367716  0.79461425
   0.77752805  0.66639693  0.20540501
   0.88915970  0.58367966  0.70537492
   0.77794069  0.91640473  0.29448029
   0.88915829  0.83367693  0.79461407
   0.77749065  0.41631908  0.20540614
   0.44416523  0.91633504  0.20536912
   0.44527723  0.91582362  0.29241232
   0.22249738  0.58367955  0.70537502
   0.22249549  0.58367738  0.79461429
   0.11068255  0.91637936  0.29461535
   0.22249629  0.83367812  0.79461418
   0.11083229  0.91634337  0.20540017
   0.22249790  0.83368009  0.70537502
   0.11089811  0.66634740  0.29464956
   0.77750240  0.91634779  0.20540364
   0.44408659  0.16639761  0.29463734
   0.55582556  0.08367750  0.79461398
   0.44418543  0.16631440  0.20541367
   0.55582793  0.08368059  0.70537508
   0.44413362  0.41630637  0.29462700
   0.55582562  0.33367768  0.79461423
   0.44418329  0.41633062  0.20539640
   0.55582803  0.33368088  0.70537501
   0.22249804  0.33368115  0.70537517
   0.11079699  0.41630544  0.20539905
   0.44411962  0.66634030  0.29464898
   0.55582586  0.58367777  0.79461429
   0.44418406  0.66636118  0.20540199
   0.55582773  0.58368004  0.70537497
   0.22249557  0.33367799  0.79461419
   0.11079659  0.41630148  0.29461841
   0.55582533  0.83367797  0.79461417
   0.88915987  0.83367918  0.70537510
Direct configuration=     4
   0.52544629  0.89628189  0.37506420
   0.39542557  0.92177727  0.37241935
   0.53071200  0.85759600  0.41364703
   0.40270422  0.85892895  0.43483128
   0.31601158  0.89693759  0.41039687
   0.68801226  0.20712110  0.39267639
   0.61123228  0.15754415  0.45628076
   0.57366190  0.19701345  0.42126827
   0.74888428  0.14301471  0.44940284
   0.79587600  0.17336258  0.41008819
   0.55977796  0.03081383  0.41374953
   0.21806927  0.90880274  0.41649341
   0.47628424  0.21483198  0.41684602
   0.80545211  0.11339568  0.47017516
   0.54653926  0.14052142  0.48310452
   0.69105685  0.23365452  0.36313970
   0.36036301  0.95202565  0.34880390
   0.60662359  0.90523266  0.35239584
   0.61556196  0.83402350  0.42432280
   0.37466833  0.83590381  0.46448459
   0.89416899  0.17075706  0.39590842
   0.55694375  0.08512490  0.24954601
   0.55643115  0.33435097  0.25002709
   0.44373854  0.41577009  0.74998229
   0.55627801  0.58418555  0.25003505
   0.44373647  0.66576670  0.74998239
   0.55728791  0.83333175  0.24936235
   0.44373792  0.91576867  0.74998272
   0.88984151  0.33439799  0.25001631
   0.77709839  0.16576216  0.74998220
   0.77709635  0.41576012  0.74998222
   0.88964386  0.58426119  0.25004255
   0.77709463  0.66575782  0.74998243
   0.88958231  0.83371578  0.24994591
   0.77709610  0.91575988  0.74998236
   0.11039968  0.91576704  0.74998326
   0.88980332  0.08434362  0.24997103
   0.22181103  0.83366382  0.24962888
   0.44373867  0.16577038  0.74998211
   0.22296778  0.58434085  0.25003400
   0.11040143  0.41576794  0.74998284
   0.22301171  0.33429860  0.25004708
   0.22293500  0.08427044  0.25002497
   0.11040177  0.16576955  0.74998263
   0.11040017  0.66576557  0.74998310
   0.77773588  0.16610630  0.29426313
   0.88924199  0.08378003  0.79440056
   0.77743627  0.16624906  0.20564076
   0.88924522  0.08378605  0.70558401
   0.22258401  0.08379205  0.70558556
   0.11074321  0.16622572  0.20565238
   0.77738291  0.41623284  0.29440841
   0.88924254  0.33377996  0.79440074
   0.11074669  0.66625280  0.20563771
   0.55591335  0.83378942  0.70558572
   0.88924620  0.33378646  0.70558375
   0.22257962  0.08378635  0.79439889
   0.11071781  0.16624832  0.29439926
   0.77733143  0.66616208  0.29440174
   0.88924126  0.58377907  0.79440102
   0.77744427  0.66630334  0.20563194
   0.88924365  0.58378370  0.70558366
   0.77834584  0.91635925  0.29414028
   0.88924134  0.83377918  0.79440077
   0.77742961  0.41623455  0.20564808
   0.44402776  0.91622199  0.20536149
   0.44611769  0.91544690  0.29048711
   0.22258230  0.58378950  0.70558511
   0.22257880  0.58378499  0.79439940
   0.11053418  0.91634069  0.29443335
   0.22257974  0.83378586  0.79439919
   0.11071523  0.91625479  0.20565795
   0.22258285  0.83378986  0.70558542
   0.11089793  0.66628537  0.29450786
   0.77758706  0.91628880  0.20563321
   0.44391801  0.16631536  0.29446801
   0.55591155  0.08378597  0.79439885
   0.44403214  0.16625419  0.20564369
   0.55591558  0.08379155  0.70558569
   0.44402704  0.41619058  0.29442121
   0.55591097  0.33378562  0.79439917
   0.44410401  0.41622657  0.20561980
   0.55591536  0.33379194  0.70558548
   0.22258426  0.33379273  0.70558522
   0.11071965  0.41622036  0.20564171
   0.44398902  0.66623816  0.29449425
   0.55591113  0.58378556  0.79439947
   0.44399761  0.66614245  0.20561634
   0.55591442  0.58378987  0.70558538
   0.22257931  0.33378610  0.79439918
   0.11071974  0.41620665  0.29440763
   0.55591044  0.83378566  0.79439912
   0.88924356  0.83378319  0.70558409
Direct configuration=     5
   0.52473392  0.89542984  0.37507230
   0.39423466  0.92027740  0.37291563
   0.52965747  0.85761283  0.41328802
   0.40207067  0.85850880  0.43446041
   0.31820002  0.89689395  0.40944010
   0.68847261  0.20755471  0.39282388
   0.61208053  0.15813666  0.45629178
   0.57469905  0.19738677  0.42125875
   0.74885655  0.14358827  0.44942202
   0.79583554  0.17396165  0.41016999
   0.55958198  0.03064167  0.41354085
   0.21755910  0.90878078  0.41653414
   0.47597761  0.21499726  0.41686882
   0.80572173  0.11346736  0.47023184
   0.54645477  0.14058684  0.48313257
   0.69120615  0.23376091  0.36312133
   0.36053904  0.95194885  0.34792746
   0.60721146  0.90521719  0.35204182
   0.61587097  0.83382095  0.42436460
   0.37450905  0.83584934  0.46445643
   0.89469525  0.17086508  0.39592696
   0.55636529  0.08435610  0.24983180
   0.55627362  0.33416678  0.25002080
   0.44384959  0.41591390  0.74998105
   0.55618667  0.58405417  0.25002541
   0.44384817  0.66591145  0.74998119
   0.55640238  0.83373857  0.24977080
   0.44384935  0.91591320  0.74998150
   0.88965868  0.33419473  0.25002393
   0.77720729  0.16590725  0.74998120
   0.77720572  0.41590553  0.74998116
   0.88949236  0.58409556  0.25003707
   0.77720477  0.66590417  0.74998135
   0.88943335  0.83373379  0.24999893
   0.77720577  0.91590564  0.74998135
   0.11050821  0.91591168  0.74998139
   0.88957757  0.08415124  0.25001248
   0.22256580  0.83386785  0.24991123
   0.44384979  0.16591397  0.74998097
   0.22286516  0.58418402  0.25003429
   0.11050931  0.41591200  0.74998098
   0.22286023  0.33411097  0.25003859
   0.22284305  0.08413054  0.25002687
   0.11050957  0.16591343  0.74998086
   0.11050856  0.66591064  0.74998124
   0.77768948  0.16622203  0.29444929
   0.88918474  0.08370969  0.79454675
   0.77744062  0.16628737  0.20548586
   0.88918732  0.08371386  0.70544096
   0.22252532  0.08371592  0.70544151
   0.11079840  0.16628917  0.20548558
   0.77744977  0.41630227  0.29455143
   0.88918520  0.33370961  0.79454679
   0.11082017  0.66633252  0.20547375
   0.55585433  0.83371448  0.70544142
   0.88918796  0.33371398  0.70544089
   0.22252230  0.08371205  0.79454627
   0.11078389  0.16630371  0.29454438
   0.77743273  0.66627255  0.29454318
   0.88918429  0.58370929  0.79454703
   0.77750164  0.66636743  0.20547655
   0.88918617  0.58371246  0.70544073
   0.77806841  0.91639039  0.29437310
   0.88918447  0.83370916  0.79454683
   0.77747141  0.41629244  0.20548241
   0.44412189  0.91629940  0.20536671
   0.44554219  0.91570486  0.29180539
   0.22252415  0.58371421  0.70544125
   0.22252175  0.58371130  0.79454654
   0.11063578  0.91636717  0.29455797
   0.22252260  0.83371209  0.79454640
   0.11079539  0.91631544  0.20548144
   0.22252468  0.83371469  0.70544135
   0.11089806  0.66632784  0.29460489
   0.77752909  0.91632920  0.20547602
   0.44403345  0.16637168  0.29458396
   0.55585267  0.08371170  0.79454616
   0.44413711  0.16629542  0.20548619
   0.55585556  0.08371557  0.70544148
   0.44410002  0.41626987  0.29456212
   0.55585252  0.33371171  0.79454643
   0.44415830  0.41629782  0.20546683
   0.55585556  0.33371589  0.70544136
   0.22252522  0.33371633  0.70544139
   0.11077261  0.41627862  0.20547555
   0.44407845  0.66630810  0.29460020
   0.55585274  0.58371175  0.79454657
   0.44412528  0.66629222  0.20546957
   0.55585506  0.58371467  0.70544130
   0.22252197  0.33371207  0.79454641
   0.11077236  0.41627158  0.29455196
   0.55585216  0.83371192  0.79454638
   0.88918625  0.83371197  0.70544099
Direct configuration=     6
   0.52480196  0.89619279  0.37522262
   0.39569694  0.92088289  0.37321659
   0.52966665  0.85799818  0.41346765
   0.40257720  0.85901925  0.43477454
   0.31906167  0.89705464  0.40981279
   0.68793714  0.20684001  0.39282641
   0.61146418  0.15762781  0.45620709
   0.57418947  0.19695858  0.42129719
   0.74858598  0.14309883  0.44931073
   0.79553410  0.17345193  0.41014278
   0.55963958  0.03081311  0.41374755
   0.21644007  0.90898156  0.41670332
   0.47585163  0.21483829  0.41682482
   0.80556070  0.11326756  0.47021989
   0.54639302  0.14044027  0.48314589
   0.69098341  0.23365413  0.36304900
   0.35989155  0.95270739  0.34833865
   0.60685526  0.90536083  0.35233502
   0.61624707  0.83387433  0.42442823
   0.37467384  0.83580236  0.46469648
   0.89436591  0.17067980  0.39585445
   0.55692556  0.08515001  0.24942259
   0.55608327  0.33396221  0.25003150
   0.44403298  0.41613891  0.74998684
   0.55592048  0.58380903  0.25004003
   0.44403124  0.66613622  0.74998686
   0.55744588  0.83270946  0.24919014
   0.44403227  0.91613750  0.74998701
   0.88952000  0.33401019  0.25001010
   0.77738020  0.16613206  0.74998682
   0.77737872  0.41613056  0.74998690
   0.88935411  0.58388387  0.25004167
   0.77737704  0.66612848  0.74998704
   0.88938003  0.83344961  0.24992784
   0.77737826  0.91613009  0.74998691
   0.11070049  0.91613666  0.74998782
   0.88953062  0.08396593  0.24994841
   0.22097552  0.83312729  0.24947575
   0.44403303  0.16613932  0.74998662
   0.22268245  0.58397025  0.25003491
   0.11070202  0.41613774  0.74998762
   0.22271399  0.33394066  0.25003882
   0.22263671  0.08387830  0.25002804
   0.11070233  0.16613873  0.74998742
   0.11070084  0.66613540  0.74998776
   0.77779710  0.16628137  0.29437214
   0.88909780  0.08359481  0.79448813
   0.77778603  0.16653496  0.20550335
   0.88910022  0.08360002  0.70549077
   0.22243654  0.08360768  0.70549275
   0.11093341  0.16643959  0.20555369
   0.77754573  0.41641300  0.29450718
   0.88909815  0.33359476  0.79448841
   0.11078686  0.66631224  0.20552144
   0.55576896  0.83360571  0.70549287
   0.88910111  0.33360061  0.70549041
   0.22243290  0.08360306  0.79448627
   0.11086876  0.16643628  0.29449542
   0.77747447  0.66632311  0.29450321
   0.88909702  0.58359359  0.79448860
   0.77755541  0.66640870  0.20553036
   0.88909889  0.58359772  0.70549047
   0.77838041  0.91647562  0.29425085
   0.88909684  0.83359381  0.79448841
   0.77759677  0.41644033  0.20555651
   0.44417137  0.91638491  0.20513952
   0.44594279  0.91581960  0.29129699
   0.22243520  0.58360565  0.70549224
   0.22243217  0.58360158  0.79448682
   0.11077015  0.91647641  0.29452638
   0.22243259  0.83360209  0.79448658
   0.11078922  0.91646837  0.20553896
   0.22243532  0.83360566  0.70549266
   0.11105908  0.66651871  0.29459599
   0.77800979  0.91651962  0.20548328
   0.44411972  0.16643963  0.29455282
   0.55576831  0.08360349  0.79448622
   0.44409327  0.16652368  0.20551629
   0.55577123  0.08360807  0.70549270
   0.44419450  0.41638251  0.29451788
   0.55576757  0.33360292  0.79448647
   0.44425330  0.41640953  0.20552863
   0.55577093  0.33360843  0.70549253
   0.22243718  0.33360843  0.70549232
   0.11090208  0.41642804  0.20555352
   0.44420350  0.66645645  0.29457372
   0.55576743  0.58360261  0.79448683
   0.44403441  0.66611369  0.20547522
   0.55576987  0.58360632  0.70549239
   0.22243278  0.33360267  0.79448657
   0.11089170  0.41641072  0.29450444
   0.55576705  0.83360256  0.79448645
   0.88909863  0.83359741  0.70549088
Direct configuration=     7
   0.52480072  0.89617893  0.37521989
   0.39567037  0.92087189  0.37321112
   0.52966648  0.85799117  0.41346439
   0.40256799  0.85900997  0.43476883
   0.31904601  0.89705172  0.40980602
   0.68794688  0.20685300  0.39282636
   0.61147538  0.15763705  0.45620863
   0.57419873  0.19696636  0.42129649
   0.74859090  0.14310773  0.44931275
   0.79553958  0.17346120  0.41014327
   0.55963854  0.03080999  0.41374379
   0.21646040  0.90897791  0.41670024
   0.47585392  0.21484117  0.41682562
   0.80556362  0.11327119  0.47022010
   0.54639414  0.14044294  0.48314564
   0.69098746  0.23365607  0.36305032
   0.35990332  0.95269361  0.34833118
   0.60686174  0.90535822  0.35232969
   0.61624024  0.83387336  0.42442708
   0.37467085  0.83580321  0.46469212
   0.89437189  0.17068317  0.39585577
   0.55691537  0.08513558  0.24943003
   0.55608673  0.33396593  0.25003131
   0.44402965  0.41613482  0.74998674
   0.55592532  0.58381349  0.25003976
   0.44402791  0.66613213  0.74998676
   0.55742691  0.83272816  0.24920070
   0.44402895  0.91613342  0.74998691
   0.88952252  0.33401355  0.25001035
   0.77737706  0.16612798  0.74998672
   0.77737557  0.41612647  0.74998679
   0.88935662  0.58388772  0.25004158
   0.77737391  0.66612441  0.74998693
   0.88938100  0.83345478  0.24992914
   0.77737513  0.91612601  0.74998681
   0.11069700  0.91613257  0.74998771
   0.88953147  0.08396929  0.24994957
   0.22100442  0.83314075  0.24948366
   0.44402970  0.16613523  0.74998652
   0.22268577  0.58397414  0.25003490
   0.11069852  0.41613363  0.74998750
   0.22271665  0.33394375  0.25003882
   0.22264046  0.08388289  0.25002802
   0.11069882  0.16613463  0.74998730
   0.11069735  0.66613132  0.74998764
   0.77779515  0.16628029  0.29437355
   0.88909938  0.08359689  0.79448919
   0.77777975  0.16653046  0.20550303
   0.88910180  0.08360209  0.70548986
   0.22243816  0.08360965  0.70549182
   0.11093095  0.16643686  0.20555245
   0.77754398  0.41641098  0.29450798
   0.88909973  0.33359685  0.79448947
   0.11078747  0.66631261  0.20552057
   0.55577051  0.83360768  0.70549194
   0.88910269  0.33360267  0.70548951
   0.22243453  0.08360504  0.79448736
   0.11086722  0.16643388  0.29449631
   0.77747371  0.66632220  0.29450394
   0.88909861  0.58359569  0.79448966
   0.77755443  0.66640795  0.20552938
   0.88910047  0.58359981  0.70548957
   0.77837474  0.91647407  0.29425307
   0.88909843  0.83359590  0.79448947
   0.77759449  0.41643765  0.20555517
   0.44417047  0.91638335  0.20514365
   0.44593551  0.91581752  0.29130623
   0.22243681  0.58360762  0.70549131
   0.22243380  0.58360358  0.79448790
   0.11076771  0.91647442  0.29452696
   0.22243423  0.83360409  0.79448767
   0.11078933  0.91646559  0.20553792
   0.22243695  0.83360764  0.70549173
   0.11105615  0.66651524  0.29459615
   0.77800105  0.91651616  0.20548314
   0.44411815  0.16643840  0.29455339
   0.55576984  0.08360546  0.79448731
   0.44409407  0.16651953  0.20551575
   0.55577277  0.08361002  0.70549177
   0.44419278  0.41638046  0.29451868
   0.55576911  0.33360490  0.79448756
   0.44425158  0.41640750  0.20552750
   0.55577247  0.33361038  0.70549160
   0.22243878  0.33361039  0.70549140
   0.11089973  0.41642532  0.20555210
   0.44420123  0.66645376  0.29457420
   0.55576898  0.58360459  0.79448792
   0.44403606  0.66611693  0.20547512
   0.55577142  0.58360829  0.70549146
   0.22243440  0.33360466  0.79448765
   0.11088953  0.41640819  0.29450530
   0.55576860  0.83360455  0.79448754
   0.88910022  0.83359949  0.70548997
Direct configuration=     8
   0.52556248  0.89647538  0.37564132
   0.39519072  0.92173103  0.37364474
   0.53021402  0.85858130  0.41364234
   0.40320380  0.85934139  0.43519599
   0.31880639  0.89779227  0.40998666
   0.68730893  0.20619092  0.39273679
   0.61121041  0.15714838  0.45625392
   0.57401167  0.19652761  0.42124717
   0.74793091  0.14252930  0.44929605
   0.79502703  0.17309455  0.41007401
   0.55963930  0.03084168  0.41396963
   0.21651099  0.90906162  0.41687893
   0.47538793  0.21463608  0.41676637
   0.80534027  0.11296707  0.47019830
   0.54629537  0.14021753  0.48315111
   0.69061182  0.23331235  0.36306970
   0.35946147  0.95359734  0.34883864
   0.60691432  0.90568857  0.35254308
   0.61653943  0.83403599  0.42449740
   0.37490679  0.83570362  0.46511771
   0.89418519  0.17037628  0.39572381
   0.55728301  0.08567127  0.24914883
   0.55588145  0.33377773  0.25005317
   0.44417037  0.41631205  0.74998406
   0.55565163  0.58355888  0.25006302
   0.44416810  0.66630877  0.74998410
   0.55792421  0.83204147  0.24885904
   0.44416935  0.91631025  0.74998418
   0.88950365  0.33387370  0.25002070
   0.77751230  0.16630153  0.74998402
   0.77751046  0.41629968  0.74998419
   0.88920300  0.58366399  0.25007490
   0.77750849  0.66629711  0.74998436
   0.88944534  0.83329141  0.24992152
   0.77750971  0.91629896  0.74998418
   0.11083260  0.91630166  0.74998499
   0.88947892  0.08381664  0.24992812
   0.22016811  0.83265308  0.24923440
   0.44417043  0.16631266  0.74998377
   0.22268281  0.58394147  0.25007400
   0.11083448  0.41630320  0.74998477
   0.22258590  0.33378664  0.25004814
   0.22256634  0.08371158  0.25006533
   0.11083482  0.16630429  0.74998452
   0.11083287  0.66630025  0.74998495
   0.77773283  0.16628159  0.29429447
   0.88903476  0.08350738  0.79449261
   0.77853953  0.16698067  0.20534409
   0.88903869  0.08351444  0.70548570
   0.22237432  0.08352673  0.70548790
   0.11114927  0.16662688  0.20553533
   0.77762861  0.41649831  0.29451922
   0.88903487  0.33350726  0.79449311
   0.11043117  0.66594808  0.20540434
   0.55570747  0.83352434  0.70548808
   0.88903968  0.33351538  0.70548519
   0.22237064  0.08352110  0.79449077
   0.11090681  0.16652934  0.29448734
   0.77751204  0.66635458  0.29450613
   0.88903374  0.58350545  0.79449329
   0.77751750  0.66631093  0.20550776
   0.88903716  0.58351140  0.70548541
   0.77849421  0.91639851  0.29412205
   0.88903295  0.83350574  0.79449304
   0.77769050  0.41658706  0.20556162
   0.44426148  0.91641478  0.20474868
   0.44622489  0.91582269  0.29089692
   0.22237297  0.58352442  0.70548726
   0.22236986  0.58351910  0.79449158
   0.11094601  0.91642682  0.29448384
   0.22236971  0.83351926  0.79449119
   0.11056464  0.91671726  0.20540271
   0.22237243  0.83352386  0.70548794
   0.11123317  0.66682673  0.29457657
   0.77911297  0.91682385  0.20524756
   0.44431509  0.16642057  0.29451426
   0.55570691  0.08352210  0.79449011
   0.44387598  0.16692716  0.20539112
   0.55571054  0.08352793  0.70548788
   0.44427545  0.41647343  0.29453694
   0.55570588  0.33352116  0.79449048
   0.44434663  0.41650377  0.20552792
   0.55571021  0.33352856  0.70548759
   0.22237587  0.33352811  0.70548734
   0.11103182  0.41657013  0.20555877
   0.44449559  0.66672396  0.29452679
   0.55570512  0.58352036  0.79449098
   0.44373074  0.66544720  0.20527923
   0.55570839  0.58352541  0.70548745
   0.22237080  0.33352055  0.79449122
   0.11098101  0.41653590  0.29451054
   0.55570511  0.83352008  0.79449046
   0.88903630  0.83351088  0.70548592
Direct configuration=     9
   0.52569296  0.89652616  0.37571351
   0.39510856  0.92187819  0.37371902
   0.53030780  0.85868238  0.41367282
   0.40331271  0.85939816  0.43526916
   0.31876535  0.89791912  0.41001760
   0.68719966  0.20607751  0.39272145
   0.61116502  0.15706468  0.45626168
   0.57397963  0.19645246  0.42123873
   0.74781786  0.14243022  0.44929319
   0.79493924  0.17303175  0.41006215
   0.55963943  0.03084710  0.41400832
   0.21651966  0.90907596  0.41690953
   0.47530811  0.21460095  0.41675622
   0.80530201  0.11291498  0.47019456
   0.54627845  0.14017892  0.48315205
   0.69054748  0.23325347  0.36307302
   0.35938578  0.95375214  0.34892556
   0.60692333  0.90574515  0.35257963
   0.61659068  0.83406384  0.42450944
   0.37494720  0.83568656  0.46519060
   0.89415320  0.17032372  0.39570121
   0.55734598  0.08576303  0.24910067
   0.55584629  0.33374549  0.25005691
   0.44419447  0.41634241  0.74998360
   0.55560475  0.58351527  0.25006700
   0.44419212  0.66633903  0.74998365
   0.55800940  0.83192385  0.24880051
   0.44419340  0.91634054  0.74998371
   0.88950042  0.33384975  0.25002248
   0.77753546  0.16633126  0.74998356
   0.77753357  0.41632936  0.74998374
   0.88917668  0.58362567  0.25008061
   0.77753154  0.66632669  0.74998392