 171 171   0   0
  0.4145774E+02  0.1590000E-08  0.1590000E-08  0.3238000E-08  0.5000000E-15
  1.000000000000000E-004
  CAR 
 basalPlane                              
      2.24157464    -19.09444112  301      0.17040494      1.00000000
    -19.094  0.0000E+00  0.0000E+00
    -19.023  0.0000E+00  0.0000E+00
    -18.952  0.0000E+00  0.0000E+00
    -18.881  0.0000E+00  0.0000E+00
    -18.810  0.0000E+00  0.0000E+00
    -18.739  0.0000E+00  0.0000E+00
    -18.668  0.7805E-18  0.5551E-19
    -18.597  0.1733E-14  0.1233E-15
    -18.525  0.1529E-11  0.1089E-12
    -18.454  0.5019E-09  0.3580E-10
    -18.383  0.6167E-07  0.4422E-08
    -18.312  0.2864E-05  0.2081E-06
    -18.241  0.5079E-04  0.3820E-05
    -18.170  0.3485E-03  0.2860E-04
    -18.099  0.9354E-03  0.9513E-04
    -18.028  0.9898E-03  0.1655E-03
    -17.957  0.4146E-03  0.1950E-03
    -17.885  0.1021E-03  0.2023E-03
    -17.814  0.2794E-03  0.2221E-03
    -17.743  0.8534E-03  0.2828E-03
    -17.672  0.1043E-02  0.3570E-03
    -17.601  0.5026E-03  0.3927E-03
    -17.530  0.9503E-04  0.3995E-03
    -17.459  0.6974E-05  0.4000E-03
    -17.388  0.1962E-06  0.4000E-03
    -17.316  0.2091E-08  0.4000E-03
    -17.245  0.8363E-11  0.4000E-03
    -17.174  0.1246E-13  0.4000E-03
    -17.103  0.6869E-17  0.4000E-03
    -17.032  0.0000E+00  0.4000E-03
    -16.961  0.0000E+00  0.4000E-03
    -16.890  0.0000E+00  0.4000E-03
    -16.819  0.0000E+00  0.4000E-03
    -16.747  0.0000E+00  0.4000E-03
    -16.676  0.0000E+00  0.4000E-03
    -16.605  0.0000E+00  0.4000E-03
    -16.534  0.0000E+00  0.4000E-03
    -16.463  0.0000E+00  0.4000E-03
    -16.392  0.0000E+00  0.4000E-03
    -16.321  0.0000E+00  0.4000E-03
    -16.250  0.0000E+00  0.4000E-03
    -16.179  0.0000E+00  0.4000E-03
    -16.107  0.1561E-17  0.4000E-03
    -16.036  0.3632E-14  0.4000E-03
    -15.965  0.3180E-11  0.4000E-03
    -15.894  0.1036E-08  0.4000E-03
    -15.823  0.1265E-06  0.4000E-03
    -15.752  0.5835E-05  0.4004E-03
    -15.681  0.1029E-03  0.4077E-03
    -15.610  0.7021E-03  0.4577E-03
    -15.538  0.1875E-02  0.5910E-03
    -15.467  0.1975E-02  0.7315E-03
    -15.396  0.8206E-03  0.7899E-03
    -15.325  0.1337E-03  0.7994E-03
    -15.254  0.1554E-04  0.8005E-03
    -15.183  0.1923E-03  0.8142E-03
    -15.112  0.2000E-02  0.9564E-03
    -15.041  0.8120E-02  0.1534E-02
    -14.969  0.1298E-01  0.2457E-02
    -14.898  0.8200E-02  0.3040E-02
    -14.827  0.2040E-02  0.3185E-02
    -14.756  0.1978E-03  0.3199E-02
    -14.685  0.7799E-05  0.3200E-02
    -14.614  0.1441E-04  0.3201E-02
    -14.543  0.1933E-03  0.3215E-02
    -14.472  0.1015E-02  0.3287E-02
    -14.401  0.2127E-02  0.3438E-02
    -14.329  0.2450E-02  0.3613E-02
    -14.258  0.6448E-02  0.4071E-02
    -14.187  0.1895E-01  0.5419E-02
    -14.116  0.2512E-01  0.7206E-02
    -14.045  0.1566E-01  0.8320E-02
    -13.974  0.1127E-01  0.9121E-02
    -13.903  0.1353E-01  0.1008E-01
    -13.832  0.1068E-01  0.1084E-01
    -13.760  0.1207E-01  0.1170E-01
    -13.689  0.1990E-01  0.1312E-01
    -13.618  0.2661E-01  0.1501E-01
    -13.547  0.2893E-01  0.1707E-01
    -13.476  0.2395E-01  0.1877E-01
    -13.405  0.1856E-01  0.2009E-01
    -13.334  0.1153E-01  0.2091E-01
    -13.263  0.3597E-02  0.2117E-01
    -13.191  0.4636E-03  0.2120E-01
    -13.120  0.2338E-04  0.2120E-01
    -13.049  0.4519E-06  0.2120E-01
    -12.978  0.3303E-08  0.2120E-01
    -12.907  0.9045E-11  0.2120E-01
    -12.836  0.9218E-14  0.2120E-01
    -12.765  0.3434E-17  0.2120E-01
    -12.694  0.0000E+00  0.2120E-01
    -12.623  0.0000E+00  0.2120E-01
    -12.551  0.0000E+00  0.2120E-01
    -12.480  0.0000E+00  0.2120E-01
    -12.409  0.0000E+00  0.2120E-01
    -12.338  0.0000E+00  0.2120E-01
    -12.267  0.0000E+00  0.2120E-01
    -12.196  0.0000E+00  0.2120E-01
    -12.125  0.0000E+00  0.2120E-01
    -12.054  0.0000E+00  0.2120E-01
    -11.982  0.0000E+00  0.2120E-01
    -11.911  0.0000E+00  0.2120E-01
    -11.840  0.0000E+00  0.2120E-01
    -11.769  0.0000E+00  0.2120E-01
    -11.698  0.0000E+00  0.2120E-01
    -11.627  0.0000E+00  0.2120E-01
    -11.556  0.0000E+00  0.2120E-01
    -11.485  0.0000E+00  0.2120E-01
    -11.413  0.0000E+00  0.2120E-01
    -11.342  0.0000E+00  0.2120E-01
    -11.271  0.0000E+00  0.2120E-01
    -11.200  0.0000E+00  0.2120E-01
    -11.129  0.0000E+00  0.2120E-01
    -11.058  0.0000E+00  0.2120E-01
    -10.987  0.0000E+00  0.2120E-01
    -10.916  0.0000E+00  0.2120E-01
    -10.845  0.0000E+00  0.2120E-01
    -10.773  0.0000E+00  0.2120E-01
    -10.702  0.0000E+00  0.2120E-01
    -10.631  0.0000E+00  0.2120E-01
    -10.560  0.0000E+00  0.2120E-01
    -10.489  0.0000E+00  0.2120E-01
    -10.418  0.0000E+00  0.2120E-01
    -10.347  0.0000E+00  0.2120E-01
    -10.276  0.0000E+00  0.2120E-01
    -10.204  0.0000E+00  0.2120E-01
    -10.133  0.0000E+00  0.2120E-01
    -10.062  0.0000E+00  0.2120E-01
     -9.991  0.0000E+00  0.2120E-01
     -9.920  0.5120E-16  0.2120E-01
     -9.849  0.7237E-13  0.2120E-01
     -9.778  0.3822E-10  0.2120E-01
     -9.707  0.7598E-08  0.2120E-01
     -9.635  0.5768E-06  0.2120E-01
     -9.564  0.1705E-04  0.2120E-01
     -9.493  0.2015E-03  0.2122E-01
     -9.422  0.9865E-03  0.2129E-01
     -9.351  0.2156E-02  0.2144E-01
     -9.280  0.2663E-02  0.2163E-01
     -9.209  0.2778E-02  0.2183E-01
     -9.138  0.2454E-02  0.2200E-01
     -9.067  0.1706E-02  0.2212E-01
     -8.995  0.8888E-03  0.2219E-01
     -8.924  0.4910E-03  0.2222E-01
     -8.853  0.8714E-03  0.2228E-01
     -8.782  0.1046E-02  0.2236E-01
     -8.711  0.5085E-03  0.2239E-01
     -8.640  0.9705E-04  0.2240E-01
     -8.569  0.7190E-05  0.2240E-01
     -8.498  0.2042E-06  0.2240E-01
     -8.426  0.2197E-08  0.2240E-01
     -8.355  0.8875E-11  0.2240E-01
     -8.284  0.1336E-13  0.2240E-01
     -8.213  0.7493E-17  0.2240E-01
     -8.142  0.0000E+00  0.2240E-01
     -8.071  0.0000E+00  0.2240E-01
     -8.000  0.0000E+00  0.2240E-01
     -7.929  0.0000E+00  0.2240E-01
     -7.857  0.0000E+00  0.2240E-01
     -7.786  0.0000E+00  0.2240E-01
     -7.715  0.0000E+00  0.2240E-01
     -7.644  0.1093E-17  0.2240E-01
     -7.573  0.2413E-14  0.2240E-01
     -7.502  0.2237E-11  0.2240E-01
     -7.431  0.7738E-09  0.2240E-01
     -7.360  0.1012E-06  0.2240E-01
     -7.289  0.5139E-05  0.2240E-01
     -7.217  0.1073E-03  0.2241E-01
     -7.146  0.1020E-02  0.2248E-01
     -7.075  0.4905E-02  0.2283E-01
     -7.004  0.1197E-01  0.2368E-01
     -6.933  0.1353E-01  0.2464E-01
     -6.862  0.6759E-02  0.2512E-01
     -6.791  0.3964E-02  0.2541E-01
     -6.720  0.1161E-01  0.2623E-01
     -6.648  0.2320E-01  0.2788E-01
     -6.577  0.2769E-01  0.2985E-01
     -6.506  0.2805E-01  0.3184E-01
     -6.435  0.2470E-01  0.3360E-01
     -6.364  0.1314E-01  0.3454E-01
     -6.293  0.3386E-02  0.3478E-01
     -6.222  0.1133E-02  0.3486E-01
     -6.151  0.4774E-02  0.3520E-01
     -6.079  0.1214E-01  0.3606E-01
     -6.008  0.1266E-01  0.3696E-01
     -5.937  0.5665E-02  0.3736E-01
     -5.866  0.2317E-02  0.3753E-01
     -5.795  0.2697E-02  0.3772E-01
     -5.724  0.5278E-02  0.3810E-01
     -5.653  0.1247E-01  0.3898E-01
     -5.582  0.1609E-01  0.4013E-01
     -5.511  0.1542E-01  0.4122E-01
     -5.439  0.2144E-01  0.4275E-01
     -5.368  0.2294E-01  0.4438E-01
     -5.297  0.1556E-01  0.4549E-01
     -5.226  0.1460E-01  0.4652E-01
     -5.155  0.1600E-01  0.4766E-01
     -5.084  0.1219E-01  0.4853E-01
     -5.013  0.1331E-01  0.4948E-01
     -4.942  0.1624E-01  0.5063E-01
     -4.870  0.1510E-01  0.5171E-01
     -4.799  0.1543E-01  0.5280E-01
     -4.728  0.1544E-01  0.5390E-01
     -4.657  0.2175E-01  0.5545E-01
     -4.586  0.2593E-01  0.5729E-01
     -4.515  0.1878E-01  0.5863E-01
     -4.444  0.1521E-01  0.5971E-01
     -4.373  0.1162E-01  0.6054E-01
     -4.301  0.7747E-02  0.6109E-01
     -4.230  0.1153E-01  0.6191E-01
     -4.159  0.1213E-01  0.6277E-01
     -4.088  0.5877E-02  0.6319E-01
     -4.017  0.3634E-02  0.6345E-01
     -3.946  0.4403E-02  0.6376E-01
     -3.875  0.3048E-02  0.6398E-01
     -3.804  0.3886E-02  0.6425E-01
     -3.733  0.1240E-01  0.6513E-01
     -3.661  0.2348E-01  0.6680E-01
     -3.590  0.2807E-01  0.6880E-01
     -3.519  0.2683E-01  0.7071E-01
     -3.448  0.2877E-01  0.7275E-01
     -3.377  0.3012E-01  0.7490E-01
     -3.306  0.1681E-01  0.7609E-01
     -3.235  0.3942E-02  0.7637E-01
     -3.164  0.3701E-03  0.7640E-01
     -3.092  0.7327E-04  0.7640E-01
     -3.021  0.7797E-03  0.7646E-01
     -2.950  0.4595E-02  0.7679E-01
     -2.879  0.1331E-01  0.7773E-01
     -2.808  0.2115E-01  0.7924E-01
     -2.737  0.2190E-01  0.8080E-01
     -2.666  0.1623E-01  0.8195E-01
     -2.595  0.1180E-01  0.8279E-01
     -2.523  0.1531E-01  0.8388E-01
     -2.452  0.1872E-01  0.8521E-01
     -2.381  0.1889E-01  0.8655E-01
     -2.310  0.1779E-01  0.8782E-01
     -2.239  0.1595E-01  0.8895E-01
     -2.168  0.1235E-01  0.8983E-01
     -2.097  0.1391E-01  0.9082E-01
     -2.026  0.1417E-01  0.9183E-01
     -1.955  0.6801E-02  0.9231E-01
     -1.883  0.2754E-02  0.9251E-01
     -1.812  0.7250E-02  0.9302E-01
     -1.741  0.1407E-01  0.9402E-01
     -1.670  0.1159E-01  0.9485E-01
     -1.599  0.4206E-02  0.9515E-01
     -1.528  0.7034E-03  0.9520E-01
     -1.457  0.5464E-04  0.9520E-01
     -1.386  0.1880E-05  0.9520E-01
     -1.314  0.2676E-07  0.9520E-01
     -1.243  0.1496E-09  0.9520E-01
     -1.172  0.3185E-12  0.9520E-01
     -1.101  0.2529E-15  0.9520E-01
     -1.030  0.0000E+00  0.9520E-01
     -0.959  0.0000E+00  0.9520E-01
     -0.888  0.0000E+00  0.9520E-01
     -0.817  0.0000E+00  0.9520E-01
     -0.745  0.0000E+00  0.9520E-01
     -0.674  0.0000E+00  0.9520E-01
     -0.603  0.1093E-17  0.9520E-01
     -0.532  0.2367E-14  0.9520E-01
     -0.461  0.2001E-11  0.9520E-01
     -0.390  0.6296E-09  0.9520E-01
     -0.319  0.7419E-07  0.9520E-01
     -0.248  0.3304E-05  0.9520E-01
     -0.177  0.5626E-04  0.9520E-01
     -0.105  0.3709E-03  0.9523E-01
     -0.034  0.9666E-03  0.9530E-01
      0.037  0.1121E-02  0.9538E-01
      0.108  0.1230E-02  0.9547E-01
      0.179  0.2218E-02  0.9562E-01
      0.250  0.4183E-02  0.9592E-01
      0.321  0.9791E-02  0.9662E-01
      0.392  0.1633E-01  0.9778E-01
      0.464  0.2192E-01  0.9934E-01
      0.535  0.2982E-01  0.1015E+00
      0.606  0.2882E-01  0.1035E+00
      0.677  0.1842E-01  0.1048E+00
      0.748  0.8102E-02  0.1054E+00
      0.819  0.9850E-02  0.1061E+00
      0.890  0.2702E-01  0.1080E+00
      0.961  0.3855E-01  0.1108E+00
      1.033  0.3073E-01  0.1129E+00
      1.104  0.1995E-01  0.1144E+00
      1.175  0.1360E-01  0.1153E+00
      1.246  0.1209E-01  0.1162E+00
      1.317  0.8353E-02  0.1168E+00
      1.388  0.2671E-02  0.1170E+00
      1.459  0.3503E-03  0.1170E+00
      1.530  0.1824E-04  0.1170E+00
      1.601  0.3700E-06  0.1170E+00
      1.673  0.2875E-08  0.1170E+00
      1.744  0.8444E-11  0.1170E+00
      1.815  0.9287E-14  0.1170E+00
      1.886  0.3747E-17  0.1170E+00
      1.957  0.0000E+00  0.1170E+00
      2.028  0.0000E+00  0.1170E+00
      2.099  0.0000E+00  0.1170E+00
      2.170  0.0000E+00  0.1170E+00
      2.242  0.0000E+00  0.1170E+00
