       N       E                     dE             d eps       ncg     rms          rms(c)
DAV:   1     0.763481866283E+04    0.76348E+04   -0.36417E+05  1209   0.112E+03
DAV:   2    -0.272932754670E+03   -0.79078E+04   -0.76854E+04  1599   0.267E+02
DAV:   3    -0.126165637659E+04   -0.98872E+03   -0.97395E+03  1378   0.101E+02
DAV:   4    -0.132088073349E+04   -0.59224E+02   -0.58852E+02  1768   0.301E+01
DAV:   5    -0.132312275082E+04   -0.22420E+01   -0.22283E+01  1755   0.485E+00    0.169E+02
DAV:   6    -0.127650285163E+04    0.46620E+02   -0.93612E+02  1573   0.271E+01    0.914E+01
DAV:   7    -0.129757512963E+04   -0.21072E+02   -0.13634E+03  1742   0.463E+01    0.543E+01
DAV:   8    -0.123392745295E+04    0.63648E+02   -0.69590E+01  1495   0.806E+00    0.303E+01
DAV:   9    -0.124227146018E+04   -0.83440E+01   -0.19926E+02  1677   0.904E+00    0.325E+01
DAV:  10    -0.122216679980E+04    0.20105E+02   -0.87787E+01  1807   0.151E+01    0.174E+01
DAV:  11    -0.122492826760E+04   -0.27615E+01   -0.23946E+01  1729   0.247E+00    0.157E+01
DAV:  12    -0.122445150048E+04    0.47677E+00   -0.77433E-01  1703   0.482E-01    0.152E+01
DAV:  13    -0.122364483861E+04    0.80666E+00   -0.53641E+00  1625   0.108E+00    0.170E+01
DAV:  14    -0.122394565441E+04   -0.30082E+00   -0.41641E+00  1703   0.122E+00    0.194E+01
DAV:  15    -0.122443381649E+04   -0.48816E+00   -0.97348E-01  1677   0.618E-01    0.205E+01
DAV:  16    -0.122802302181E+04   -0.35892E+01   -0.11232E+01  1716   0.191E+00    0.239E+01
DAV:  17    -0.122795325897E+04    0.69763E-01   -0.31044E+00  1443   0.489E-01    0.245E+01
DAV:  18    -0.122908711012E+04   -0.11339E+01   -0.99933E+00  1677   0.518E-01    0.254E+01
DAV:  19    -0.123022970756E+04   -0.11426E+01   -0.35174E+00  1664   0.221E+00    0.259E+01
DAV:  20    -0.123132961017E+04   -0.10999E+01   -0.12197E+00  1664   0.120E+00    0.281E+01
DAV:  21    -0.123776135059E+04   -0.64317E+01   -0.24982E+00  1612   0.194E+00    0.311E+01
DAV:  22    -0.124031505469E+04   -0.25537E+01   -0.57698E-01  1664   0.715E-01    0.326E+01
DAV:  23    -0.124270990172E+04   -0.23948E+01   -0.29558E-01  1703   0.473E-01    0.331E+01
DAV:  24    -0.124435856732E+04   -0.16487E+01   -0.42615E-01  1716   0.422E-01    0.348E+01
DAV:  25    -0.125024577373E+04   -0.58872E+01   -0.56449E-01  1833   0.112E+00    0.380E+01
DAV:  26    -0.126809011223E+04   -0.17844E+02   -0.30626E+00  1794   0.291E+00    0.445E+01
DAV:  27    -0.126672911384E+04    0.13610E+01   -0.49141E-01  1469   0.520E-01    0.440E+01
DAV:  28    -0.126755855531E+04   -0.82944E+00   -0.21302E-02  1755   0.159E-01    0.443E+01
DAV:  29    -0.125760631205E+04    0.99522E+01   -0.64531E-01  1742   0.138E+00    0.406E+01
DAV:  30    -0.126418055834E+04   -0.65742E+01   -0.46036E-01  1638   0.120E+00    0.429E+01
DAV:  31    -0.126189583438E+04    0.22847E+01   -0.21203E-01  1638   0.462E-01    0.422E+01
DAV:  32    -0.125844982784E+04    0.34460E+01   -0.21338E-01  1794   0.559E-01    0.411E+01
DAV:  33    -0.125133654347E+04    0.71133E+01   -0.13647E+00  1755   0.126E+00    0.379E+01
DAV:  34    -0.122909646919E+04    0.22240E+02   -0.25489E+01  1742   0.646E+00    0.229E+01
DAV:  35    -0.122762716695E+04    0.14693E+01   -0.38044E+00  1625   0.111E+00    0.204E+01
DAV:  36    -0.122639915157E+04    0.12280E+01   -0.72011E-01  1833   0.548E-01    0.194E+01
DAV:  37    -0.122661323985E+04   -0.21409E+00   -0.38652E-02  1482   0.130E-01    0.193E+01
DAV:  38    -0.122629775650E+04    0.31548E+00   -0.10344E-02  1508   0.787E-02    0.186E+01
DAV:  39    -0.122779010982E+04   -0.14924E+01   -0.73715E-01  1664   0.453E-01    0.210E+01
DAV:  40    -0.122764694247E+04    0.14317E+00   -0.89976E-02  1339   0.949E-02    0.203E+01
DAV:  41    -0.122764256003E+04    0.43824E-02   -0.53533E-01  1547   0.186E-01    0.210E+01
DAV:  42    -0.122641269576E+04    0.12299E+01   -0.20256E+00  1716   0.117E+00    0.193E+01
DAV:  43    -0.122632015641E+04    0.92539E-01   -0.40249E-01  1716   0.410E-01    0.188E+01
DAV:  44    -0.122650871778E+04   -0.18856E+00   -0.25743E-02  1599   0.133E-01    0.186E+01
DAV:  45    -0.122686533444E+04   -0.35662E+00   -0.12331E-01  1664   0.272E-01    0.179E+01
DAV:  46    -0.122741814731E+04   -0.55281E+00   -0.35784E-01  1651   0.425E-01    0.163E+01
DAV:  47    -0.122702499023E+04    0.39316E+00   -0.48025E-02  1508   0.166E-01    0.151E+01
DAV:  48    -0.122626653689E+04    0.75845E+00   -0.11190E-01  1560   0.219E-01    0.137E+01
DAV:  49    -0.122473126727E+04    0.15353E+01   -0.21185E-01  1495   0.335E-01    0.122E+01
DAV:  50    -0.122402800066E+04    0.70327E+00   -0.44343E-01  1690   0.390E-01    0.129E+01
DAV:  51    -0.122737490494E+04   -0.33469E+01   -0.23883E+01  1703   0.176E+00    0.262E+01
DAV:  52    -0.122744921168E+04   -0.74307E-01   -0.15810E-01  1404   0.248E-01    0.258E+01
DAV:  53    -0.122752565845E+04   -0.76447E-01   -0.84117E-03  1508   0.744E-02    0.253E+01
DAV:  54    -0.122512545111E+04    0.24002E+01   -0.39211E-01  1547   0.446E-01    0.225E+01
DAV:  55    -0.122493838018E+04    0.18707E+00   -0.26485E-02  1534   0.101E-01    0.217E+01
DAV:  56    -0.122504507890E+04   -0.10670E+00   -0.59809E-02  1469   0.100E-01    0.218E+01
DAV:  57    -0.122362349838E+04    0.14216E+01   -0.20906E+00  1560   0.449E-01    0.126E+01
DAV:  58    -0.122345600923E+04    0.16749E+00   -0.86128E-02  1547   0.169E-01    0.129E+01
DAV:  59    -0.122336038343E+04    0.95626E-01   -0.13009E-02  1365   0.616E-02    0.125E+01
DAV:  60    -0.122323572294E+04    0.12466E+00   -0.57252E-01  1768   0.438E-01    0.105E+01
DAV:  61    -0.122315765326E+04    0.78070E-01   -0.74509E-01  1794   0.470E-01    0.836E+00
DAV:  62    -0.122316961982E+04   -0.11967E-01   -0.11301E-01  1534   0.889E-02    0.893E+00
DAV:  63    -0.122313051515E+04    0.39105E-01   -0.15177E-01  1651   0.216E-01    0.898E+00
DAV:  64    -0.122296588970E+04    0.16463E+00   -0.13547E-01  1729   0.202E-01    0.894E+00
DAV:  65    -0.122288908423E+04    0.76805E-01   -0.36926E-01  1664   0.174E-01    0.782E+00
DAV:  66    -0.122287178708E+04    0.17297E-01   -0.19795E-01  1495   0.115E-01    0.709E+00
DAV:  67    -0.122291457597E+04   -0.42789E-01   -0.59050E-01  1638   0.159E-01    0.676E+00
DAV:  68    -0.122289952120E+04    0.15055E-01   -0.64189E-02  1534   0.930E-02    0.569E+00
DAV:  69    -0.122299732836E+04   -0.97807E-01   -0.30203E-01  1716   0.161E-01    0.633E+00
DAV:  70    -0.122298467278E+04    0.12656E-01   -0.36883E-02  1612   0.104E-01    0.535E+00
DAV:  71    -0.122290417103E+04    0.80502E-01   -0.43766E-01  1690   0.215E-01    0.523E+00
DAV:  72    -0.122290841448E+04   -0.42434E-02   -0.10450E-01  1625   0.102E-01    0.511E+00
DAV:  73    -0.122289634094E+04    0.12074E-01   -0.28653E-02  1482   0.873E-02    0.460E+00
DAV:  74    -0.122286718432E+04    0.29157E-01   -0.28710E-02  1573   0.887E-02    0.389E+00
DAV:  75    -0.122284129529E+04    0.25889E-01   -0.44789E-02  1612   0.111E-01    0.323E+00
DAV:  76    -0.122286842360E+04   -0.27128E-01   -0.47806E-02  1469   0.151E-01    0.367E+00
DAV:  77    -0.122284138016E+04    0.27043E-01   -0.40095E-02  1521   0.891E-02    0.251E+00
DAV:  78    -0.122283983606E+04    0.15441E-02   -0.46708E-02  1378   0.648E-02    0.244E+00
DAV:  79    -0.122284208187E+04   -0.22458E-02   -0.38347E-02  1261   0.432E-02    0.215E+00
DAV:  80    -0.122285193389E+04   -0.98520E-02   -0.26934E-02  1313   0.551E-02    0.208E+00
DAV:  81    -0.122285087510E+04    0.10588E-02   -0.16451E-02  1261   0.466E-02    0.190E+00
DAV:  82    -0.122285085416E+04    0.20936E-04   -0.13680E-02  1287   0.350E-02    0.182E+00
DAV:  83    -0.122284796038E+04    0.28938E-02   -0.80912E-03  1209   0.284E-02    0.174E+00
DAV:  84    -0.122284659221E+04    0.13682E-02   -0.56038E-03  1131   0.220E-02    0.156E+00
DAV:  85    -0.122284676677E+04   -0.17456E-03   -0.33077E-03  1001   0.207E-02    0.157E+00
DAV:  86    -0.122284299267E+04    0.37741E-02   -0.17191E-03  1053   0.231E-02    0.155E+00
DAV:  87    -0.122284576603E+04   -0.27734E-02   -0.13435E-03  1014   0.207E-02    0.171E+00
DAV:  88    -0.122284601903E+04   -0.25301E-03   -0.71472E-04   832   0.136E-02    0.169E+00
DAV:  89    -0.122284661025E+04   -0.59122E-03   -0.48321E-04   715   0.774E-03    0.174E+00
DAV:  90    -0.122284581410E+04    0.79615E-03   -0.49014E-04   650   0.702E-03    0.169E+00
DAV:  91    -0.122284328478E+04    0.25293E-02   -0.14974E-03   962   0.246E-02    0.175E+00
DAV:  92    -0.122284266879E+04    0.61600E-03   -0.20459E-04   754   0.993E-03    0.168E+00
DAV:  93    -0.122284263238E+04    0.36409E-04   -0.58698E-04   767   0.107E-02
   1 F= -.12532457E+04 E0= -.12531916E+04  d E =-.125325E+04
       N       E                     dE             d eps       ncg     rms          rms(c)
DAV:   1    -0.122284071942E+04    0.19494E-02   -0.82743E-01  1196   0.527E-01    0.182E+00
DAV:   2    -0.122396029384E+04   -0.11196E+01   -0.10065E+01  1729   0.743E-01    0.173E+01
DAV:   3    -0.122296675980E+04    0.99353E+00   -0.35625E+00  1664   0.553E-01    0.255E+00
DAV:   4    -0.122292965448E+04    0.37105E-01   -0.18154E+00  1599   0.173E-01    0.356E+00
DAV:   5    -0.122288429027E+04    0.45364E-01   -0.16463E+00  1560   0.126E-01    0.214E+00
DAV:   6    -0.122284084428E+04    0.43446E-01   -0.55526E-01  1560   0.148E-01    0.172E+00
DAV:   7    -0.122282657000E+04    0.14274E-01   -0.46167E-01  1599   0.113E-01    0.148E+00
DAV:   8    -0.122281185539E+04    0.14715E-01   -0.63086E-02  1547   0.824E-02    0.883E-01
DAV:   9    -0.122280772166E+04    0.41337E-02   -0.43858E-02  1417   0.604E-02    0.792E-01
DAV:  10    -0.122280753728E+04    0.18439E-03   -0.44043E-02  1274   0.461E-02    0.927E-01
DAV:  11    -0.122280404524E+04    0.34920E-02   -0.26344E-02  1222   0.440E-02    0.296E-01
DAV:  12    -0.122280428683E+04   -0.24159E-03   -0.54107E-03  1079   0.253E-02    0.775E-01
DAV:  13    -0.122280223637E+04    0.20505E-02   -0.43843E-03   962   0.230E-02    0.288E-01
DAV:  14    -0.122280327279E+04   -0.10364E-02   -0.29010E-03   819   0.154E-02    0.717E-01
DAV:  15    -0.122280208595E+04    0.11868E-02   -0.25475E-03   871   0.166E-02    0.433E-01
DAV:  16    -0.122280261671E+04   -0.53076E-03   -0.12819E-03   806   0.154E-02    0.658E-01
DAV:  17    -0.122280199861E+04    0.61809E-03   -0.82940E-04   741   0.104E-02    0.491E-01
DAV:  18    -0.122280203727E+04   -0.38653E-04   -0.33947E-04   728   0.962E-03
   2 F= -.12532058E+04 E0= -.12531363E+04  d E =0.398860E-01
       N       E                     dE             d eps       ncg     rms          rms(c)
DAV:   1    -0.122280704982E+04   -0.50512E-02   -0.32922E-01  1196   0.315E-01    0.664E-01
DAV:   2    -0.122285872517E+04   -0.51675E-01   -0.16843E-01  1651   0.251E-01    0.212E+00
DAV:   3    -0.122281690475E+04    0.41820E-01   -0.25066E-01  1534   0.244E-01    0.118E+00
DAV:   4    -0.122281064730E+04    0.62575E-02   -0.53054E-02  1157   0.540E-02    0.483E-01
DAV:   5    -0.122281168052E+04   -0.10332E-02   -0.17938E-02  1157   0.648E-02    0.790E-01
DAV:   6    -0.122280672641E+04    0.49541E-02   -0.84931E-03  1196   0.561E-02    0.230E-01
DAV:   7    -0.122280917415E+04   -0.24477E-02   -0.10006E-02   962   0.242E-02    0.896E-01
DAV:   8    -0.122280731556E+04    0.18586E-02   -0.69526E-03   884   0.189E-02    0.423E-01
DAV:   9    -0.122280744454E+04   -0.12898E-03   -0.36970E-03   819   0.155E-02    0.594E-01
DAV:  10    -0.122280675492E+04    0.68962E-03   -0.29344E-03   767   0.106E-02    0.409E-01
DAV:  11    -0.122280710678E+04   -0.35186E-03   -0.13416E-03   715   0.743E-03    0.532E-01
DAV:  12    -0.122280679603E+04    0.31075E-03   -0.96882E-04   676   0.514E-03    0.433E-01
DAV:  13    -0.122280705881E+04   -0.26279E-03   -0.41997E-04   676   0.429E-03    0.518E-01
DAV:  14    -0.122280694525E+04    0.11356E-03   -0.24285E-04   676   0.321E-03    0.477E-01
DAV:  15    -0.122280711544E+04   -0.17018E-03   -0.14461E-04   650   0.234E-03    0.528E-01
DAV:  16    -0.122280703554E+04    0.79894E-04   -0.64390E-05   624   0.205E-03
   3 F= -.12532104E+04 E0= -.12531390E+04  d E =0.353396E-01
       N       E                     dE             d eps       ncg     rms          rms(c)
DAV:   1    -0.122280788794E+04   -0.77250E-03   -0.20360E-02  1105   0.782E-02    0.587E-01
DAV:   2    -0.122284430077E+04   -0.36413E-01   -0.98645E-02  1547   0.178E-01    0.189E+00
DAV:   3    -0.122282108443E+04    0.23216E-01   -0.18331E-01  1495   0.220E-01    0.178E+00
DAV:   4    -0.122281724285E+04    0.38416E-02   -0.49470E-02  1131   0.776E-02    0.918E-01
DAV:   5    -0.122281075499E+04    0.64879E-02   -0.71213E-03   988   0.422E-02    0.679E-01
DAV:   6    -0.122280864601E+04    0.21090E-02   -0.35903E-03   949   0.258E-02    0.423E-01
DAV:   7    -0.122280800726E+04    0.63875E-03   -0.16621E-03   910   0.212E-02    0.414E-01
DAV:   8    -0.122280698361E+04    0.10237E-02   -0.65648E-04   858   0.171E-02    0.382E-02
DAV:   9    -0.122280703333E+04   -0.49720E-04   -0.26282E-04   754   0.121E-02
   4 F= -.12532102E+04 E0= -.12531419E+04  d E =0.354513E-01
       N       E                     dE             d eps       ncg     rms          rms(c)
DAV:   1    -0.122280705071E+04   -0.67098E-04   -0.95624E-03  1040   0.544E-02    0.140E-01
DAV:   2    -0.122281148513E+04   -0.44344E-02   -0.99012E-03  1014   0.544E-02    0.774E-01
DAV:   3    -0.122280801603E+04    0.34691E-02   -0.12414E-02  1027   0.596E-02    0.457E-01
DAV:   4    -0.122280749508E+04    0.52095E-03   -0.10623E-03   897   0.161E-02    0.233E-01
DAV:   5    -0.122280733518E+04    0.15990E-03   -0.35719E-04   715   0.938E-03    0.200E-01
DAV:   6    -0.122280710945E+04    0.22573E-03   -0.20411E-04   715   0.101E-02    0.863E-02
DAV:   7    -0.122280715889E+04   -0.49445E-04   -0.12169E-04   676   0.696E-03
   5 F= -.12532103E+04 E0= -.12531412E+04  d E =0.354001E-01
       N       E                     dE             d eps       ncg     rms          rms(c)
DAV:   1    -0.122280711179E+04   -0.23396E-05   -0.23517E-03   845   0.274E-02    0.470E-02
DAV:   2    -0.122280812965E+04   -0.10179E-02   -0.19689E-03   936   0.251E-02    0.413E-01
DAV:   3    -0.122280716401E+04    0.96564E-03   -0.17621E-03   936   0.236E-02    0.112E-01
DAV:   4    -0.122280711375E+04    0.50259E-04   -0.17007E-04   676   0.471E-03
   6 F= -.12532102E+04 E0= -.12531425E+04  d E =0.354820E-01
       N       E                     dE             d eps       ncg     rms          rms(c)
DAV:   1    -0.122280713809E+04    0.25922E-04   -0.39180E-04   806   0.680E-03    0.735E-02
DAV:   2    -0.122280756021E+04   -0.42211E-03   -0.17231E-03   806   0.114E-02    0.306E-01
DAV:   3    -0.122280786360E+04   -0.30340E-03   -0.33489E-03   871   0.247E-02    0.438E-01
DAV:   4    -0.122280728966E+04    0.57394E-03   -0.10885E-03   793   0.153E-02    0.126E-01
DAV:   5    -0.122280717943E+04    0.11023E-03   -0.21804E-04   702   0.564E-03    0.940E-02
DAV:   6    -0.122280712594E+04    0.53487E-04   -0.64366E-05   689   0.431E-03
   7 F= -.12532102E+04 E0= -.12531423E+04  d E =0.354774E-01
       N       E                     dE             d eps       ncg     rms          rms(c)
DAV:   1    -0.122280716131E+04    0.18120E-04   -0.41561E-04   819   0.113E-02    0.664E-02
DAV:   2    -0.122280808192E+04   -0.92061E-03   -0.13601E-03   884   0.192E-02    0.429E-01
DAV:   3    -0.122280760819E+04    0.47372E-03   -0.24536E-03   884   0.274E-02    0.314E-01
DAV:   4    -0.122280729332E+04    0.31487E-03   -0.43723E-04   754   0.109E-02    0.137E-01
DAV:   5    -0.122280718179E+04    0.11154E-03   -0.78571E-05   676   0.501E-03    0.807E-02
DAV:   6    -0.122280715420E+04    0.27591E-04   -0.33928E-05   676   0.416E-03
   8 F= -.12532102E+04 E0= -.12531424E+04  d E =0.354640E-01
       N       E                     dE             d eps       ncg     rms          rms(c)
DAV:   1    -0.122280734263E+04   -0.16084E-03   -0.43635E-02  1170   0.138E-01    0.792E-02
DAV:   2    -0.122281024954E+04   -0.29069E-02   -0.59380E-03  1053   0.512E-02    0.635E-01
DAV:   3    -0.122280753277E+04    0.27168E-02   -0.40755E-03  1001   0.397E-02    0.999E-02
DAV:   4    -0.122280746676E+04    0.66013E-04   -0.17209E-04   741   0.842E-03
   9 F= -.12532104E+04 E0= -.12531440E+04  d E =-.176048E-03
       N       E                     dE             d eps       ncg     rms          rms(c)
DAV:   1    -0.122280741175E+04    0.12102E-03   -0.20439E-03  1079   0.301E-02    0.695E-02
DAV:   2    -0.122280820862E+04   -0.79687E-03   -0.11062E-03   936   0.197E-02    0.428E-01
DAV:   3    -0.122280785476E+04    0.35386E-03   -0.20553E-03   923   0.282E-02    0.289E-01
DAV:   4    -0.122280742233E+04    0.43244E-03   -0.33994E-04   780   0.118E-02    0.255E-02
DAV:   5    -0.122280740266E+04    0.19666E-04   -0.30583E-05   676   0.387E-03
  10 F= -.12532104E+04 E0= -.12531433E+04  d E =-.139784E-03
       N       E                     dE             d eps       ncg     rms          rms(c)
DAV:   1    -0.122280760013E+04   -0.17780E-03   -0.16255E-02  1131   0.846E-02    0.540E-02
DAV:   2    -0.122280884888E+04   -0.12487E-02   -0.24671E-03   975   0.328E-02    0.455E-01
DAV:   3    -0.122280770544E+04    0.11434E-02   -0.17467E-03   936   0.251E-02    0.828E-02
DAV:   4    -0.122280766251E+04    0.42925E-04   -0.98702E-05   689   0.617E-03
  11 F= -.12532105E+04 E0= -.12531438E+04  d E =-.173900E-03
       N       E                     dE             d eps       ncg     rms          rms(c)
DAV:   1    -0.122280768156E+04    0.23875E-04   -0.39378E-03  1131   0.418E-02    0.407E-02
DAV:   2    -0.122280783036E+04   -0.14880E-03   -0.53344E-04   832   0.113E-02    0.178E-01
DAV:   3    -0.122280778913E+04    0.41234E-04   -0.77297E-04   767   0.142E-02
  12 F= -.12532106E+04 E0= -.12531453E+04  d E =-.258505E-03
       N       E                     dE             d eps       ncg     rms          rms(c)
DAV:   1    -0.122280765469E+04    0.17568E-03   -0.11019E-03   988   0.220E-02    0.351E-02
DAV:   2    -0.122280775886E+04   -0.10418E-03   -0.84747E-04   780   0.950E-03    0.155E-01
DAV:   3    -0.122280780370E+04   -0.44839E-04   -0.10056E-03   780   0.133E-02    0.171E-01
DAV:   4    -0.122280766758E+04    0.13612E-03   -0.21607E-04   715   0.722E-03    0.357E-02
DAV:   5    -0.122280765885E+04    0.87276E-05   -0.82794E-05   676   0.276E-03
  13 F= -.12532105E+04 E0= -.12531430E+04  d E =-.148674E-03
       N       E                     dE             d eps       ncg     rms          rms(c)
DAV:   1    -0.122280766277E+04    0.48112E-05   -0.12207E-04   793   0.726E-03    0.116E-02
DAV:   2    -0.122280767687E+04   -0.14104E-04   -0.29929E-05   611   0.248E-03
  14 F= -.12532105E+04 E0= -.12531431E+04  d E =-.159857E-03
       N       E                     dE             d eps       ncg     rms          rms(c)
DAV:   1    -0.122280778540E+04   -0.12263E-03   -0.28010E-03  1131   0.357E-02    0.599E-02
DAV:   2    -0.122281017046E+04   -0.23851E-02   -0.38025E-03   975   0.369E-02    0.607E-01
DAV:   3    -0.122280794687E+04    0.22236E-02   -0.32229E-03   923   0.337E-02    0.999E-02
DAV:   4    -0.122280783036E+04    0.11652E-03   -0.15446E-04   702   0.816E-03    0.892E-02
DAV:   5    -0.122280778305E+04    0.47305E-04   -0.33434E-05   637   0.527E-03
  15 F= -.12532106E+04 E0= -.12531430E+04  d E =-.620741E-04
