<?xml version="1.0" encoding="ISO-8859-1"?>
<modeling>
 <generator>
  <i name="program" type="string">vasp </i>
  <i name="version" type="string">5.4.4.18Apr17-6-g9f103f2a35  </i>
  <i name="subversion" type="string">(build Oct 28 2020 13:00:36) gamma-only         parallel </i>
  <i name="platform" type="string">LinuxIFC </i>
  <i name="date" type="string">2020 12 03 </i>
  <i name="time" type="string">21:33:07 </i>
 </generator>
 <incar>
  <i type="string" name="SYSTEM"> basalPlane</i>
  <i type="int" name="ISTART">     0</i>
  <i type="string" name="PREC">accurate  !=accurate, max(enmax) no wra</i>
  <i type="string" name="ALGO"> Normal    !=Normal, blocked Davidson it</i>
  <i type="int" name="NSIM">     4</i>
  <i type="int" name="ISPIN">     1</i>
  <i type="int" name="ICHARG">     2</i>
  <i type="int" name="INIWAV">     1</i>
  <i type="int" name="NELM">   200</i>
  <i type="int" name="NELMDL">    -5</i>
  <i type="int" name="NELMIN">     2</i>
  <i type="int" name="IBRION">     2</i>
  <i name="EDIFF">      0.00010000</i>
  <i name="EDIFFG">     -0.02000000</i>
  <i type="int" name="NSW"> 10000</i>
  <i type="int" name="ISIF">     2</i>
  <i type="int" name="ISYM">     2</i>
  <i name="ENCUT">    400.00000000</i>
  <i name="ENAUG">    645.00000000</i>
  <i type="string" name="LREAL"> Auto     !=Auto projection operators ev</i>
  <i type="logical" name="LPLANE"> T  </i>
  <i type="int" name="ISMEAR">     0</i>
  <i name="SIGMA">      0.10000000</i>
  <i type="int" name="NWRITE">     2</i>
  <i type="logical" name="LWAVE"> F  </i>
  <i type="logical" name="LCHARG"> F  </i>
  <i type="int" name="LORBIT">     0</i>
  <i type="logical" name="LELF"> F  </i>
  <i type="logical" name="LSCALU"> F  </i>
  <v type="int" name="KPOINT_BSE">    -1     0     0     0</v>
  <i type="int" name="NELM">   200</i>
 </incar>
 <structure name="primitive_cell" >
  <crystal>
   <varray name="basis" >
    <v>      15.90000000       0.00000000       0.00000000 </v>
    <v>      -7.95000000      13.76980392       0.00000000 </v>
    <v>       0.00000000       0.00000000      32.38000000 </v>
   </varray>
   <i name="volume">   7089.27338987 </i>
   <varray name="rec_basis" >
    <v>       0.06289308       0.03631134       0.00000000 </v>
    <v>       0.00000000       0.07262268       0.00000000 </v>
    <v>       0.00000000       0.00000000       0.03088326 </v>
   </varray>
  </crystal>
  <varray name="positions" >
   <v>      -0.44897884       0.46320607       0.38446043 </v>
   <v>      -0.46395975       0.41892639       0.35684994 </v>
   <v>      -0.40191251       0.45656634       0.42064827 </v>
   <v>      -0.47875156      -0.46693431       0.39153600 </v>
   <v>       0.45151254       0.42187640       0.43762887 </v>
   <v>      -0.37404809       0.40715343       0.42516044 </v>
   <v>       0.48261535      -0.44655038       0.36966425 </v>
   <v>      -0.40173742      -0.47730701       0.45079074 </v>
   <v>      -0.44951152      -0.42916215       0.43272052 </v>
   <v>      -0.36993767      -0.46465654       0.48148684 </v>
   <v>      -0.45890315      -0.37252959       0.44702900 </v>
   <v>       0.30518588       0.30100478       0.42772156 </v>
   <v>       0.36236612       0.27374240       0.45268011 </v>
   <v>      -0.46666667       0.46666667       0.26837554 </v>
   <v>       0.27501242       0.27181059       0.39744457 </v>
   <v>       0.37950795       0.21716916       0.44550273 </v>
   <v>       0.29754474       0.37557172       0.44871357 </v>
   <v>       0.39024283       0.33292403       0.48951924 </v>
   <v>       0.34979214       0.39591113       0.48661716 </v>
   <v>       0.26238147       0.41429240       0.43680163 </v>
   <v>       0.43181228       0.32876290      -0.48469819 </v>
   <v>      -0.26666667       0.46666667       0.26837554 </v>
   <v>      -0.46666667       0.26666667       0.26837554 </v>
   <v>      -0.26666667      -0.33333333       0.26837554 </v>
   <v>       0.33333333       0.26666667       0.26837554 </v>
   <v>       0.35868000       0.45062328      -0.49093154 </v>
   <v>      -0.46666667      -0.33333333       0.26837554 </v>
   <v>       0.33333333       0.46666667       0.26837554 </v>
   <v>      -0.40000000       0.40000000       0.21911674 </v>
   <v>      -0.40000000      -0.40000000       0.21911674 </v>
   <v>       0.40000000       0.40000000       0.21911674 </v>
   <v>      -0.20000000      -0.40000000       0.21911674 </v>
   <v>      -0.26666667       0.26666667       0.26837554 </v>
   <v>      -0.06666667      -0.33333333       0.26837554 </v>
   <v>       0.40000000       0.20000000       0.21911674 </v>
   <v>       0.33333333       0.06666667       0.26837554 </v>
   <v>       0.40000000      -0.40000000       0.21911674 </v>
   <v>      -0.26666667      -0.13333333       0.26837554 </v>
   <v>       0.13333333       0.26666667       0.26837554 </v>
   <v>       0.33333333      -0.33333333       0.26837554 </v>
   <v>      -0.46666667       0.46666667       0.16985794 </v>
   <v>      -0.20000000       0.40000000       0.21911674 </v>
   <v>      -0.40000000       0.20000000       0.21911674 </v>
   <v>      -0.06666667       0.46666667       0.26837554 </v>
   <v>      -0.20000000      -0.20000000       0.21911674 </v>
   <v>      -0.46666667       0.06666667       0.26837554 </v>
   <v>      -0.46666667       0.46666667      -0.39190859 </v>
   <v>      -0.06666667      -0.13333333       0.26837554 </v>
   <v>      -0.40000000      -0.20000000       0.21911674 </v>
   <v>       0.20000000       0.20000000       0.21911674 </v>
   <v>       0.20000000       0.40000000       0.21911674 </v>
   <v>       0.13333333       0.06666667       0.26837554 </v>
   <v>      -0.26666667       0.46666667       0.16985794 </v>
   <v>      -0.46666667      -0.13333333       0.26837554 </v>
   <v>      -0.46666667       0.26666667       0.16985794 </v>
   <v>      -0.26666667      -0.33333333       0.16985794 </v>
   <v>       0.13333333       0.46666667       0.26837554 </v>
   <v>       0.33333333       0.26666667       0.16985794 </v>
   <v>      -0.46666667      -0.33333333       0.16985794 </v>
   <v>       0.33333333       0.46666667       0.16985794 </v>
   <v>      -0.26666667       0.46666667      -0.39190859 </v>
   <v>      -0.46666667       0.26666667      -0.39190859 </v>
   <v>      -0.26666667      -0.33333333      -0.39190859 </v>
   <v>       0.33333333       0.26666667      -0.39190859 </v>
   <v>      -0.46666667      -0.33333333      -0.39190859 </v>
   <v>       0.33333333       0.46666667      -0.39190859 </v>
   <v>       0.00000000      -0.40000000       0.21911674 </v>
   <v>       0.00000000      -0.20000000       0.21911674 </v>
   <v>       0.40000000       0.00000000       0.21911674 </v>
   <v>       0.20000000       0.00000000       0.21911674 </v>
   <v>      -0.26666667       0.26666667       0.16985794 </v>
   <v>       0.40000000      -0.20000000       0.21911674 </v>
   <v>      -0.06666667      -0.33333333       0.16985794 </v>
   <v>       0.20000000      -0.40000000       0.21911674 </v>
   <v>       0.33333333       0.06666667       0.16985794 </v>
   <v>      -0.20000000       0.20000000       0.21911674 </v>
   <v>      -0.26666667      -0.13333333       0.16985794 </v>
   <v>      -0.26666667       0.26666667      -0.39190859 </v>
   <v>      -0.06666667       0.26666667       0.26837554 </v>
   <v>      -0.06666667      -0.33333333      -0.39190859 </v>
   <v>       0.13333333      -0.33333333       0.26837554 </v>
   <v>      -0.40000000       0.40000000      -0.34264978 </v>
   <v>      -0.26666667       0.06666667       0.26837554 </v>
   <v>       0.13333333       0.26666667       0.16985794 </v>
   <v>       0.13333333      -0.13333333       0.26837554 </v>
   <v>      -0.40000000      -0.40000000      -0.34264978 </v>
   <v>       0.33333333      -0.33333333       0.16985794 </v>
   <v>       0.33333333       0.06666667      -0.39190859 </v>
   <v>       0.40000000       0.40000000      -0.34264978 </v>
   <v>       0.33333333      -0.13333333       0.26837554 </v>
   <v>      -0.20000000       0.00000000       0.21911674 </v>
   <v>      -0.26666667      -0.13333333      -0.39190859 </v>
   <v>      -0.06666667       0.06666667       0.26837554 </v>
   <v>      -0.06666667       0.46666667       0.16985794 </v>
   <v>       0.13333333       0.26666667      -0.39190859 </v>
   <v>       0.33333333      -0.33333333      -0.39190859 </v>
   <v>       0.00000000       0.20000000       0.21911674 </v>
   <v>      -0.46666667       0.06666667       0.16985794 </v>
   <v>      -0.06666667      -0.13333333       0.16985794 </v>
   <v>       0.00000000       0.40000000       0.21911674 </v>
   <v>      -0.06666667       0.46666667      -0.39190859 </v>
   <v>      -0.40000000       0.00000000       0.21911674 </v>
   <v>      -0.20000000      -0.40000000      -0.34264978 </v>
   <v>       0.13333333       0.06666667       0.16985794 </v>
   <v>      -0.46666667       0.06666667      -0.39190859 </v>
   <v>       0.40000000       0.20000000      -0.34264978 </v>
   <v>      -0.46666667      -0.13333333       0.16985794 </v>
   <v>       0.00000000       0.00000000       0.21911674 </v>
   <v>      -0.06666667      -0.13333333      -0.39190859 </v>
   <v>       0.13333333       0.46666667       0.16985794 </v>
   <v>       0.40000000      -0.40000000      -0.34264978 </v>
   <v>       0.13333333       0.06666667      -0.39190859 </v>
   <v>      -0.46666667      -0.13333333      -0.39190859 </v>
   <v>       0.13333333       0.46666667      -0.39190859 </v>
   <v>      -0.20000000       0.40000000      -0.34264978 </v>
   <v>      -0.40000000       0.20000000      -0.34264978 </v>
   <v>      -0.20000000      -0.20000000      -0.34264978 </v>
   <v>      -0.40000000      -0.20000000      -0.34264978 </v>
   <v>       0.20000000       0.20000000      -0.34264978 </v>
   <v>       0.20000000       0.40000000      -0.34264978 </v>
   <v>       0.20000000      -0.20000000       0.21911674 </v>
   <v>      -0.46666667       0.46666667      -0.29339098 </v>
   <v>      -0.06666667       0.26666667       0.16985794 </v>
   <v>       0.13333333      -0.33333333       0.16985794 </v>
   <v>      -0.26666667       0.06666667       0.16985794 </v>
   <v>       0.13333333      -0.13333333       0.16985794 </v>
   <v>      -0.26666667       0.46666667      -0.29339098 </v>
   <v>       0.33333333      -0.13333333       0.16985794 </v>
   <v>      -0.46666667       0.26666667      -0.29339098 </v>
   <v>      -0.06666667       0.26666667      -0.39190859 </v>
   <v>       0.00000000      -0.40000000      -0.34264978 </v>
   <v>      -0.26666667      -0.33333333      -0.29339098 </v>
   <v>       0.13333333      -0.33333333      -0.39190859 </v>
   <v>      -0.26666667       0.06666667      -0.39190859 </v>
   <v>      -0.06666667       0.06666667       0.16985794 </v>
   <v>       0.00000000      -0.20000000      -0.34264978 </v>
   <v>       0.33333333       0.26666667      -0.29339098 </v>
   <v>       0.13333333      -0.13333333      -0.39190859 </v>
   <v>      -0.46666667      -0.33333333      -0.29339098 </v>
   <v>       0.40000000       0.00000000      -0.34264978 </v>
   <v>       0.33333333       0.46666667      -0.29339098 </v>
   <v>       0.33333333      -0.13333333      -0.39190859 </v>
   <v>       0.20000000       0.00000000      -0.34264978 </v>
   <v>      -0.06666667       0.06666667      -0.39190859 </v>
   <v>       0.40000000      -0.20000000      -0.34264978 </v>
   <v>       0.20000000      -0.40000000      -0.34264978 </v>
   <v>      -0.20000000       0.20000000      -0.34264978 </v>
   <v>      -0.20000000       0.00000000      -0.34264978 </v>
   <v>       0.00000000       0.20000000      -0.34264978 </v>
   <v>      -0.26666667       0.26666667      -0.29339098 </v>
   <v>      -0.06666667      -0.33333333      -0.29339098 </v>
   <v>       0.00000000       0.40000000      -0.34264978 </v>
   <v>      -0.40000000       0.00000000      -0.34264978 </v>
   <v>       0.33333333       0.06666667      -0.29339098 </v>
   <v>      -0.26666667      -0.13333333      -0.29339098 </v>
   <v>       0.00000000       0.00000000      -0.34264978 </v>
   <v>       0.13333333       0.26666667      -0.29339098 </v>
   <v>       0.33333333      -0.33333333      -0.29339098 </v>
   <v>      -0.06666667       0.46666667      -0.29339098 </v>
   <v>      -0.46666667       0.06666667      -0.29339098 </v>
   <v>      -0.06666667      -0.13333333      -0.29339098 </v>
   <v>       0.13333333       0.06666667      -0.29339098 </v>
   <v>      -0.46666667      -0.13333333      -0.29339098 </v>
   <v>       0.13333333       0.46666667      -0.29339098 </v>
   <v>       0.20000000      -0.20000000      -0.34264978 </v>
   <v>      -0.06666667       0.26666667      -0.29339098 </v>
   <v>       0.13333333      -0.33333333      -0.29339098 </v>
   <v>      -0.26666667       0.06666667      -0.29339098 </v>
   <v>       0.13333333      -0.13333333      -0.29339098 </v>
   <v>       0.33333333      -0.13333333      -0.29339098 </v>
   <v>      -0.06666667       0.06666667      -0.29339098 </v>
  </varray>
 </structure>
 <varray name="primitive_index" >
  <v type="int" >        1 </v>
  <v type="int" >       18 </v>
  <v type="int" >        2 </v>
  <v type="int" >        3 </v>
  <v type="int" >       11 </v>
  <v type="int" >       17 </v>
  <v type="int" >       19 </v>
  <v type="int" >        5 </v>
  <v type="int" >        4 </v>
  <v type="int" >       12 </v>
  <v type="int" >       20 </v>
  <v type="int" >       10 </v>
  <v type="int" >        6 </v>
  <v type="int" >      151 </v>
  <v type="int" >       21 </v>
  <v type="int" >       14 </v>
  <v type="int" >        9 </v>
  <v type="int" >        8 </v>
  <v type="int" >        7 </v>
  <v type="int" >       16 </v>
  <v type="int" >       13 </v>
  <v type="int" >       90 </v>
  <v type="int" >      155 </v>
  <v type="int" >      102 </v>
  <v type="int" >      114 </v>
  <v type="int" >       15 </v>
  <v type="int" >      147 </v>
  <v type="int" >      141 </v>
  <v type="int" >       40 </v>
  <v type="int" >       35 </v>
  <v type="int" >       42 </v>
  <v type="int" >       67 </v>
  <v type="int" >       78 </v>
  <v type="int" >      107 </v>
  <v type="int" >       39 </v>
  <v type="int" >      118 </v>
  <v type="int" >       36 </v>
  <v type="int" >       94 </v>
  <v type="int" >      134 </v>
  <v type="int" >      167 </v>
  <v type="int" >      150 </v>
  <v type="int" >       68 </v>
  <v type="int" >       45 </v>
  <v type="int" >       79 </v>
  <v type="int" >       58 </v>
  <v type="int" >      159 </v>
  <v type="int" >      148 </v>
  <v type="int" >       89 </v>
  <v type="int" >       25 </v>
  <v type="int" >       32 </v>
  <v type="int" >       28 </v>
  <v type="int" >      138 </v>
  <v type="int" >       91 </v>
  <v type="int" >      143 </v>
  <v type="int" >      154 </v>
  <v type="int" >      100 </v>
  <v type="int" >      130 </v>
  <v type="int" >      113 </v>
  <v type="int" >      146 </v>
  <v type="int" >      142 </v>
  <v type="int" >      105 </v>
  <v type="int" >      152 </v>
  <v type="int" >       97 </v>
  <v type="int" >      140 </v>
  <v type="int" >      144 </v>
  <v type="int" >      168 </v>
  <v type="int" >       64 </v>
  <v type="int" >       70 </v>
  <v type="int" >       51 </v>
  <v type="int" >       54 </v>
  <v type="int" >       77 </v>
  <v type="int" >       49 </v>
  <v type="int" >      109 </v>
  <v type="int" >       26 </v>
  <v type="int" >      117 </v>
  <v type="int" >       52 </v>
  <v type="int" >       92 </v>
  <v type="int" >       73 </v>
  <v type="int" >      104 </v>
  <v type="int" >       76 </v>
  <v type="int" >      139 </v>
  <v type="int" >       38 </v>
  <v type="int" >       86 </v>
  <v type="int" >      133 </v>
  <v type="int" >      122 </v>
  <v type="int" >       22 </v>
  <v type="int" >      166 </v>
  <v type="int" >      115 </v>
  <v type="int" >       44 </v>
  <v type="int" >      163 </v>
  <v type="int" >       29 </v>
  <v type="int" >       96 </v>
  <v type="int" >      108 </v>
  <v type="int" >       95 </v>
  <v type="int" >      131 </v>
  <v type="int" >      164 </v>
  <v type="int" >       59 </v>
  <v type="int" >      158 </v>
  <v type="int" >       83 </v>
  <v type="int" >       62 </v>
  <v type="int" >      101 </v>
  <v type="int" >       50 </v>
  <v type="int" >       61 </v>
  <v type="int" >      137 </v>
  <v type="int" >      156 </v>
  <v type="int" >       41 </v>
  <v type="int" >      112 </v>
  <v type="int" >       55 </v>
  <v type="int" >      171 </v>
  <v type="int" >      129 </v>
  <v type="int" >       47 </v>
  <v type="int" >      135 </v>
  <v type="int" >      110 </v>
  <v type="int" >      127 </v>
  <v type="int" >       65 </v>
  <v type="int" >       43 </v>
  <v type="int" >       56 </v>
  <v type="int" >       27 </v>
  <v type="int" >       30 </v>
  <v type="int" >       34 </v>
  <v type="int" >       23 </v>
  <v type="int" >      149 </v>
  <v type="int" >       87 </v>
  <v type="int" >      126 </v>
  <v type="int" >       84 </v>
  <v type="int" >      121 </v>
  <v type="int" >      106 </v>
  <v type="int" >      162 </v>
  <v type="int" >      153 </v>
  <v type="int" >      103 </v>
  <v type="int" >       66 </v>
  <v type="int" >       98 </v>
  <v type="int" >      123 </v>
  <v type="int" >       80 </v>
  <v type="int" >       72 </v>
  <v type="int" >       69 </v>
  <v type="int" >      125 </v>
  <v type="int" >      119 </v>
  <v type="int" >      145 </v>
  <v type="int" >       37 </v>
  <v type="int" >      169 </v>
  <v type="int" >      160 </v>
  <v type="int" >       53 </v>
  <v type="int" >       85 </v>
  <v type="int" >       46 </v>
  <v type="int" >       24 </v>
  <v type="int" >       71 </v>
  <v type="int" >       31 </v>
  <v type="int" >       60 </v>
  <v type="int" >       74 </v>
  <v type="int" >       75 </v>
  <v type="int" >       63 </v>
  <v type="int" >       48 </v>
  <v type="int" >      116 </v>
  <v type="int" >       93 </v>
  <v type="int" >       57 </v>
  <v type="int" >      132 </v>
  <v type="int" >      165 </v>
  <v type="int" >       99 </v>
  <v type="int" >      111 </v>
  <v type="int" >      157 </v>
  <v type="int" >      136 </v>
  <v type="int" >      170 </v>
  <v type="int" >      128 </v>
  <v type="int" >       33 </v>
  <v type="int" >       88 </v>
  <v type="int" >      124 </v>
  <v type="int" >       81 </v>
  <v type="int" >      120 </v>
  <v type="int" >      161 </v>
  <v type="int" >       82 </v>
 </varray>
 <kpoints>
  <varray name="kpointlist" >
   <v>       0.00000000       0.00000000       0.00000000 </v>
  </varray>
  <varray name="weights" >
   <v>       1.00000000 </v>
  </varray>
 </kpoints>
 <parameters>
  <separator name="general" >
   <i type="string" name="SYSTEM">basalPlane</i>
   <i type="logical" name="LCOMPAT"> F  </i>
  </separator>
  <separator name="electronic" >
   <i type="string" name="PREC">accura</i>
   <i name="ENMAX">    400.00000000</i>
   <i name="ENAUG">    645.00000000</i>
   <i name="EDIFF">      0.00010000</i>
   <i type="int" name="IALGO">    38</i>
   <i type="int" name="IWAVPR">    11</i>
   <i type="int" name="NBANDS">   585</i>
   <i name="NELECT">    956.00000000</i>
   <i type="int" name="TURBO">     0</i>
   <i type="int" name="IRESTART">     0</i>
   <i type="int" name="NREBOOT">     0</i>
   <i type="int" name="NMIN">     0</i>
   <i name="EREF">      0.00000000</i>
   <separator name="electronic smearing" >
    <i type="int" name="ISMEAR">     0</i>
    <i name="SIGMA">      0.10000000</i>
    <i name="KSPACING">      0.50000000</i>
    <i type="logical" name="KGAMMA"> T  </i>
   </separator>
   <separator name="electronic projectors" >
    <i type="logical" name="LREAL"> T  </i>
    <v name="ROPT">     -0.00025000     -0.00025000     -0.00025000     -0.00025000     -0.00025000</v>
    <i type="int" name="LMAXPAW">  -100</i>
    <i type="int" name="LMAXMIX">     2</i>
    <i type="logical" name="NLSPLINE"> F  </i>
   </separator>
   <separator name="electronic startup" >
    <i type="int" name="ISTART">     0</i>
    <i type="int" name="ICHARG">     2</i>
    <i type="int" name="INIWAV">     1</i>
   </separator>
   <separator name="electronic spin" >
    <i type="int" name="ISPIN">     1</i>
    <i type="logical" name="LNONCOLLINEAR"> F  </i>
    <v name="MAGMOM">      1.00000000      1.00000000      1.00000000      1.00000000      1.00000000      1.00000000      1.00000000      1.00000000      1.00000000      1.00000000      1.00000000      1.00000000      1.00000000      1.00000000      1.00000000      1.00000000      1.00000000      1.00000000      1.00000000      1.00000000
      1.00000000      1.00000000      1.00000000      1.00000000      1.00000000      1.00000000      1.00000000      1.00000000      1.00000000      1.00000000      1.00000000      1.00000000      1.00000000      1.00000000      1.00000000      1.00000000      1.00000000      1.00000000      1.00000000      1.00000000
      1.00000000      1.00000000      1.00000000      1.00000000      1.00000000      1.00000000      1.00000000      1.00000000      1.00000000      1.00000000      1.00000000      1.00000000      1.00000000      1.00000000      1.00000000      1.00000000      1.00000000      1.00000000      1.00000000      1.00000000
      1.00000000      1.00000000      1.00000000      1.00000000      1.00000000      1.00000000      1.00000000      1.00000000      1.00000000      1.00000000      1.00000000      1.00000000      1.00000000      1.00000000      1.00000000      1.00000000      1.00000000      1.00000000      1.00000000      1.00000000
      1.00000000      1.00000000      1.00000000      1.00000000      1.00000000      1.00000000      1.00000000      1.00000000      1.00000000      1.00000000      1.00000000      1.00000000      1.00000000      1.00000000      1.00000000      1.00000000      1.00000000      1.00000000      1.00000000      1.00000000
      1.00000000      1.00000000      1.00000000      1.00000000      1.00000000      1.00000000      1.00000000      1.00000000      1.00000000      1.00000000      1.00000000      1.00000000      1.00000000      1.00000000      1.00000000      1.00000000      1.00000000      1.00000000      1.00000000      1.00000000
      1.00000000      1.00000000      1.00000000      1.00000000      1.00000000      1.00000000      1.00000000      1.00000000      1.00000000      1.00000000      1.00000000      1.00000000      1.00000000      1.00000000      1.00000000      1.00000000      1.00000000      1.00000000      1.00000000      1.00000000
      1.00000000      1.00000000      1.00000000      1.00000000      1.00000000      1.00000000      1.00000000      1.00000000      1.00000000      1.00000000      1.00000000      1.00000000      1.00000000      1.00000000      1.00000000      1.00000000      1.00000000      1.00000000      1.00000000      1.00000000
      1.00000000      1.00000000      1.00000000      1.00000000      1.00000000      1.00000000      1.00000000      1.00000000      1.00000000      1.00000000      1.00000000</v>
    <i name="NUPDOWN">     -1.00000000</i>
    <i type="logical" name="LSORBIT"> F  </i>
    <v name="SAXIS">      0.00000000      0.00000000      1.00000000</v>
    <i type="logical" name="LSPIRAL"> F  </i>
    <v name="QSPIRAL">      0.00000000      0.00000000      0.00000000</v>
    <i type="logical" name="LZEROZ"> F  </i>
   </separator>
   <separator name="electronic exchange-correlation" >
    <i type="logical" name="LASPH"> F  </i>
    <i type="logical" name="LMETAGGA"> F  </i>
   </separator>
   <separator name="electronic convergence" >
    <i type="int" name="NELM">   200</i>
    <i type="int" name="NELMDL">    -5</i>
    <i type="int" name="NELMIN">     2</i>
    <i name="ENINI">    400.00000000</i>
    <separator name="electronic convergence detail" >
     <i type="logical" name="LDIAG"> T  </i>
     <i type="logical" name="LSUBROT"> F  </i>
     <i name="WEIMIN">      0.00100000</i>
     <i name="EBREAK">      0.00000004</i>
     <i name="DEPER">      0.30000000</i>
     <i type="int" name="NRMM">     4</i>
     <i name="TIME">      0.40000000</i>
    </separator>
   </separator>
   <separator name="electronic mixer" >
    <i name="AMIX">      0.40000000</i>
    <i name="BMIX">      1.00000000</i>
    <i name="AMIN">      0.10000000</i>
    <i name="AMIX_MAG">      1.60000000</i>
    <i name="BMIX_MAG">      1.00000000</i>
    <separator name="electronic mixer details" >
     <i type="int" name="IMIX">     4</i>
     <i type="logical" name="MIXFIRST"> F  </i>
     <i type="int" name="MAXMIX">   -45</i>
     <i name="WC">    100.00000000</i>
     <i type="int" name="INIMIX">     1</i>
     <i type="int" name="MIXPRE">     1</i>
     <i type="int" name="MREMOVE">     5</i>
    </separator>
   </separator>
   <separator name="electronic dipolcorrection" >
    <i type="logical" name="LDIPOL"> F  </i>
    <i type="logical" name="LMONO"> F  </i>
    <i type="int" name="IDIPOL">     0</i>
    <i name="EPSILON">      1.00000000</i>
    <v name="DIPOL">   -100.00000000   -100.00000000   -100.00000000</v>
    <i name="EFIELD">      0.00000000</i>
   </separator>
  </separator>
  <separator name="grids" >
   <i type="int" name="NGX">   108</i>
   <i type="int" name="NGY">   108</i>
   <i type="int" name="NGZ">   216</i>
   <i type="int" name="NGXF">   216</i>
   <i type="int" name="NGYF">   216</i>
   <i type="int" name="NGZF">   432</i>
   <i type="logical" name="ADDGRID"> F  </i>
  </separator>
  <separator name="ionic" >
   <i type="int" name="NSW"> 10000</i>
   <i type="int" name="IBRION">     2</i>
   <i type="int" name="MDALGO">     0</i>
   <i type="int" name="ISIF">     2</i>
   <i name="PSTRESS">      0.00000000</i>
   <i name="EDIFFG">     -0.02000000</i>
   <i type="int" name="NFREE">     1</i>
   <i name="POTIM">      0.50000000</i>
   <i name="SMASS">     -3.00000000</i>
   <i name="SCALEE">      1.00000000</i>
  </separator>
  <separator name="ionic md" >
   <i name="TEBEG">      0.00010000</i>
   <i name="TEEND">      0.00010000</i>
   <i type="int" name="NBLOCK">     1</i>
   <i type="int" name="KBLOCK"> 10000</i>
   <i type="int" name="NPACO">   256</i>
   <i name="APACO">     16.00000000</i>
  </separator>
  <separator name="symmetry" >
   <i type="int" name="ISYM">     2</i>
   <i name="SYMPREC">      0.00001000</i>
  </separator>
  <separator name="dos" >
   <i type="int" name="LORBIT">     0</i>
   <v name="RWIGS">     -1.00000000     -1.00000000     -1.00000000     -1.00000000     -1.00000000</v>
   <i type="int" name="NEDOS">   301</i>
   <i name="EMIN">     10.00000000</i>
   <i name="EMAX">    -10.00000000</i>
   <i name="EFERMI">      0.00000000</i>
  </separator>
  <separator name="writing" >
   <i type="int" name="NWRITE">     2</i>
   <i type="logical" name="LWAVE"> F  </i>
   <i type="logical" name="LDOWNSAMPLE"> F  </i>
   <i type="logical" name="LCHARG"> F  </i>
   <i type="logical" name="LPARD"> F  </i>
   <i type="logical" name="LVTOT"> F  </i>
   <i type="logical" name="LVHAR"> F  </i>
   <i type="logical" name="LELF"> F  </i>
   <i type="logical" name="LOPTICS"> F  </i>
   <v name="STM">      0.00000000      0.00000000      0.00000000      0.00000000      0.00000000      0.00000000      0.00000000</v>
  </separator>
  <separator name="performance" >
   <i type="int" name="NPAR">    13</i>
   <i type="int" name="NSIM">     4</i>
   <i type="int" name="NBLK">    -1</i>
   <i type="logical" name="LPLANE"> T  </i>
   <i type="logical" name="LSCALAPACK"> T  </i>
   <i type="logical" name="LSCAAWARE"> F  </i>
   <i type="logical" name="LSCALU"> F  </i>
   <i type="logical" name="LASYNC"> F  </i>
   <i type="logical" name="LORBITALREAL"> F  </i>
  </separator>
  <separator name="miscellaneous" >
   <i type="int" name="IDIOT">     3</i>
   <i type="int" name="ISPECIAL">     0</i>
   <i type="logical" name="LMUSIC"> F  </i>
   <v name="POMASS">     12.01100000     51.99600000      1.00000000     95.94000000     32.06600000</v>
   <v name="DARWINR">      0.00000000      0.00000000      0.00000000      0.00000000      0.00000000</v>
   <v name="DARWINV">      1.00000000      1.00000000      1.00000000      1.00000000      1.00000000</v>
   <i type="logical" name="LCORR"> T  </i>
  </separator>
  <i type="logical" name="GGA_COMPAT"> T  </i>
  <i type="logical" name="LBERRY"> F  </i>
  <i type="int" name="ICORELEVEL">     0</i>
  <i type="logical" name="LDAU"> F  </i>
  <i type="int" name="I_CONSTRAINED_M">     0</i>
  <separator name="electronic exchange-correlation" >
   <i type="string" name="GGA">--</i>
   <i type="int" name="VOSKOWN">     0</i>
   <i type="logical" name="LHFCALC"> F  </i>
   <i type="string" name="PRECFOCK"></i>
   <i type="logical" name="LSYMGRAD"> F  </i>
   <i type="logical" name="LHFONE"> F  </i>
   <i type="logical" name="LRHFCALC"> F  </i>
   <i type="logical" name="LTHOMAS"> F  </i>
   <i type="logical" name="LMODELHF"> F  </i>
   <i name="ENCUT4O">     -1.00000000</i>
   <i type="int" name="EXXOEP">     0</i>
   <i type="int" name="FOURORBIT">     0</i>
   <i name="AEXX">      0.00000000</i>
   <i name="HFALPHA">      0.00000000</i>
   <i name="MCALPHA">      0.00000000</i>
   <i name="ALDAX">      1.00000000</i>
   <i name="AGGAX">      1.00000000</i>
   <i name="ALDAC">      1.00000000</i>
   <i name="AGGAC">      1.00000000</i>
   <i type="int" name="NKREDX">     1</i>
   <i type="int" name="NKREDY">     1</i>
   <i type="int" name="NKREDZ">     1</i>
   <i type="logical" name="SHIFTRED"> F  </i>
   <i type="logical" name="ODDONLY"> F  </i>
   <i type="logical" name="EVENONLY"> F  </i>
   <i type="int" name="LMAXFOCK">     0</i>
   <i type="int" name="NMAXFOCKAE">     0</i>
   <i type="logical" name="LFOCKAEDFT"> F  </i>
   <i name="HFSCREEN">      0.00000000</i>
   <i name="HFSCREENC">      0.00000000</i>
   <i type="int" name="NBANDSGWLOW">     0</i>
  </separator>
  <separator name="vdW DFT" >
   <i type="logical" name="LUSE_VDW"> F  </i>
   <i name="Zab_VDW">     -0.84910000</i>
   <i name="PARAM1">      0.12340000</i>
   <i name="PARAM2">      1.00000000</i>
   <i name="PARAM3">      0.00000000</i>
  </separator>
  <separator name="model GW" >
   <i type="int" name="MODEL_GW">     0</i>
   <i name="MODEL_EPS0">     24.87464347</i>
   <i name="MODEL_ALPHA">      1.00000000</i>
  </separator>
  <separator name="linear response parameters" >
   <i type="logical" name="LEPSILON"> F  </i>
   <i type="logical" name="LRPA"> F  </i>
   <i type="logical" name="LNABLA"> F  </i>
   <i type="logical" name="LVEL"> F  </i>
   <i type="int" name="KINTER">     0</i>
   <i name="CSHIFT">      0.10000000</i>
   <i name="OMEGAMAX">     -1.00000000</i>
   <i name="DEG_THRESHOLD">      0.00200000</i>
   <i name="RTIME">     -0.10000000</i>
   <i name="WPLASMAI">      0.00000000</i>
   <v name="DFIELD">      0.00000000      0.00000000      0.00000000</v>
   <v name="WPLASMA">      0.00000000      0.00000000      0.00000000      0.00000000      0.00000000      0.00000000      0.00000000      0.00000000      0.00000000</v>
  </separator>
  <separator name="orbital magnetization" >
   <i type="logical" name="NUCIND"> F  </i>
   <v name="MAGPOS">      0.00000000      0.00000000      0.00000000</v>
   <i type="logical" name="LNICSALL"> T  </i>
   <i type="logical" name="ORBITALMAG"> F  </i>
   <i type="logical" name="LMAGBLOCH"> F  </i>
   <i type="logical" name="LCHIMAG"> F  </i>
   <i type="logical" name="LGAUGE"> T  </i>
   <i type="int" name="MAGATOM">     0</i>
   <v name="MAGDIPOL">      0.00000000      0.00000000      0.00000000</v>
   <v name="AVECCONST">      0.00000000      0.00000000      0.00000000</v>
  </separator>
  <separator name="response functions" >
   <i type="logical" name="LADDER"> F  </i>
   <i type="logical" name="LRPAFORCE"> F  </i>
   <i type="logical" name="LFXC"> F  </i>
   <i type="logical" name="LHARTREE"> T  </i>
   <i type="int" name="IBSE">     0</i>
   <v type="int" name="KPOINT">    -1     0     0     0</v>
   <i type="logical" name="LTCTE"> F  </i>
   <i type="logical" name="LTETE"> F  </i>
   <i type="logical" name="LTRIPLET"> F  </i>
   <i type="logical" name="LFXCEPS"> F  </i>
   <i type="logical" name="LFXHEG"> F  </i>
   <i type="int" name="NATURALO">     2</i>
   <i type="logical" name="L2ORDER"> F  </i>
   <i type="logical" name="LMP2LT"> F  </i>
   <i type="logical" name="LUSEW"> F  </i>
   <i name="ENCUTGW">     -2.00000000</i>
   <i name="ENCUTGWSOFT">     -2.00000000</i>
   <i name="ENCUTLF">     -1.00000000</i>
   <i type="int" name="LMAXMP2">    -1</i>
   <i name="SCISSOR">      0.00000000</i>
   <i type="int" name="NOMEGA">     0</i>
   <i type="int" name="NOMEGAR">     0</i>
   <i type="int" name="NBANDSGW">    -1</i>
   <i type="int" name="NBANDSO">    -1</i>
   <i type="int" name="NBANDSV">    -1</i>
   <i type="int" name="NELM">   200</i>
   <i type="int" name="NELMHF">     1</i>
   <i type="int" name="DIM">     3</i>
   <i type="int" name="ANTIRES">     0</i>
   <i name="OMEGAMAX">    -30.00000000</i>
   <i name="OMEGAMIN">    -30.00000000</i>
   <i name="OMEGATL">   -200.00000000</i>
   <i type="int" name="OMEGAGRID">   140</i>
   <i name="CSHIFT">     -0.10000000</i>
   <i type="logical" name="SELFENERGY"> F  </i>
   <i type="logical" name="LSPECTRAL"> F  </i>
   <i type="logical" name="LSPECTRALGW"> F  </i>
   <i type="logical" name="LSINGLES"> F  </i>
   <i type="logical" name="LFERMIGW"> F  </i>
   <i type="logical" name="ODDONLYGW"> F  </i>
   <i type="logical" name="EVENONLYGW"> F  </i>
   <i type="int" name="NKREDLFX">     1</i>
   <i type="int" name="NKREDLFY">     1</i>
   <i type="int" name="NKREDLFZ">     1</i>
   <i type="int" name="MAXMEM">  2800</i>
   <i type="int" name="TELESCOPE">     0</i>
   <i type="int" name="TAUPAR">     1</i>
   <i type="int" name="OMEGAPAR">    -1</i>
   <i name="LAMBDA">      1.00000000</i>
  </separator>
  <separator name="External order field" >
   <i name="OFIELD_KAPPA">      0.00000000</i>
   <v name="OFIELD_K">      0.00000000      0.00000000      0.00000000</v>
   <i name="OFIELD_Q6_NEAR">      0.00000000</i>
   <i name="OFIELD_Q6_FAR">      0.00000000</i>
   <i name="OFIELD_A">      0.00000000</i>
  </separator>
 </parameters>
 <atominfo>
  <atoms>     171 </atoms>
  <types>       5 </types>
  <array name="atoms" >
   <dimension dim="1">ion</dimension>
   <field type="string">element</field>
   <field type="int">atomtype</field>
   <set>
    <rc><c>C </c><c>   1</c></rc>
    <rc><c>C </c><c>   1</c></rc>
    <rc><c>C </c><c>   1</c></rc>
    <rc><c>C </c><c>   1</c></rc>
    <rc><c>C </c><c>   1</c></rc>
    <rc><c>C </c><c>   1</c></rc>
    <rc><c>C </c><c>   1</c></rc>
    <rc><c>C </c><c>   1</c></rc>
    <rc><c>C </c><c>   1</c></rc>
    <rc><c>C </c><c>   1</c></rc>
    <rc><c>Cr</c><c>   2</c></rc>
    <rc><c>H </c><c>   3</c></rc>
    <rc><c>H </c><c>   3</c></rc>
    <rc><c>H </c><c>   3</c></rc>
    <rc><c>H </c><c>   3</c></rc>
    <rc><c>H </c><c>   3</c></rc>
    <rc><c>H </c><c>   3</c></rc>
    <rc><c>H </c><c>   3</c></rc>
    <rc><c>H </c><c>   3</c></rc>
    <rc><c>H </c><c>   3</c></rc>
    <rc><c>H </c><c>   3</c></rc>
    <rc><c>Mo</c><c>   4</c></rc>
    <rc><c>Mo</c><c>   4</c></rc>
    <rc><c>Mo</c><c>   4</c></rc>
    <rc><c>Mo</c><c>   4</c></rc>
    <rc><c>Mo</c><c>   4</c></rc>
    <rc><c>Mo</c><c>   4</c></rc>
    <rc><c>Mo</c><c>   4</c></rc>
    <rc><c>Mo</c><c>   4</c></rc>
    <rc><c>Mo</c><c>   4</c></rc>
    <rc><c>Mo</c><c>   4</c></rc>
    <rc><c>Mo</c><c>   4</c></rc>
    <rc><c>Mo</c><c>   4</c></rc>
    <rc><c>Mo</c><c>   4</c></rc>
    <rc><c>Mo</c><c>   4</c></rc>
    <rc><c>Mo</c><c>   4</c></rc>
    <rc><c>Mo</c><c>   4</c></rc>
    <rc><c>Mo</c><c>   4</c></rc>
    <rc><c>Mo</c><c>   4</c></rc>
    <rc><c>Mo</c><c>   4</c></rc>
    <rc><c>Mo</c><c>   4</c></rc>
    <rc><c>Mo</c><c>   4</c></rc>
    <rc><c>Mo</c><c>   4</c></rc>
    <rc><c>Mo</c><c>   4</c></rc>
    <rc><c>Mo</c><c>   4</c></rc>
    <rc><c>Mo</c><c>   4</c></rc>
    <rc><c>Mo</c><c>   4</c></rc>
    <rc><c>Mo</c><c>   4</c></rc>
    <rc><c>Mo</c><c>   4</c></rc>
    <rc><c>Mo</c><c>   4</c></rc>
    <rc><c>Mo</c><c>   4</c></rc>
    <rc><c>Mo</c><c>   4</c></rc>
    <rc><c>Mo</c><c>   4</c></rc>
    <rc><c>Mo</c><c>   4</c></rc>
    <rc><c>Mo</c><c>   4</c></rc>
    <rc><c>Mo</c><c>   4</c></rc>
    <rc><c>Mo</c><c>   4</c></rc>
    <rc><c>Mo</c><c>   4</c></rc>
    <rc><c>Mo</c><c>   4</c></rc>
    <rc><c>Mo</c><c>   4</c></rc>
    <rc><c>Mo</c><c>   4</c></rc>
    <rc><c>Mo</c><c>   4</c></rc>
    <rc><c>Mo</c><c>   4</c></rc>
    <rc><c>Mo</c><c>   4</c></rc>
    <rc><c>Mo</c><c>   4</c></rc>
    <rc><c>Mo</c><c>   4</c></rc>
    <rc><c>Mo</c><c>   4</c></rc>
    <rc><c>Mo</c><c>   4</c></rc>
    <rc><c>Mo</c><c>   4</c></rc>
    <rc><c>Mo</c><c>   4</c></rc>
    <rc><c>Mo</c><c>   4</c></rc>
    <rc><c>S </c><c>   5</c></rc>
    <rc><c>S </c><c>   5</c></rc>
    <rc><c>S </c><c>   5</c></rc>
    <rc><c>S </c><c>   5</c></rc>
    <rc><c>S </c><c>   5</c></rc>
    <rc><c>S </c><c>   5</c></rc>
    <rc><c>S </c><c>   5</c></rc>
    <rc><c>S </c><c>   5</c></rc>
    <rc><c>S </c><c>   5</c></rc>
    <rc><c>S </c><c>   5</c></rc>
    <rc><c>S </c><c>   5</c></rc>
    <rc><c>S </c><c>   5</c></rc>
    <rc><c>S </c><c>   5</c></rc>
    <rc><c>S </c><c>   5</c></rc>
    <rc><c>S </c><c>   5</c></rc>
    <rc><c>S </c><c>   5</c></rc>
    <rc><c>S </c><c>   5</c></rc>
    <rc><c>S </c><c>   5</c></rc>
    <rc><c>S </c><c>   5</c></rc>
    <rc><c>S </c><c>   5</c></rc>
    <rc><c>S </c><c>   5</c></rc>
    <rc><c>S </c><c>   5</c></rc>
    <rc><c>S </c><c>   5</c></rc>
    <rc><c>S </c><c>   5</c></rc>
    <rc><c>S </c><c>   5</c></rc>
    <rc><c>S </c><c>   5</c></rc>
    <rc><c>S </c><c>   5</c></rc>
    <rc><c>S </c><c>   5</c></rc>
    <rc><c>S </c><c>   5</c></rc>
    <rc><c>S </c><c>   5</c></rc>
    <rc><c>S </c><c>   5</c></rc>
    <rc><c>S </c><c>   5</c></rc>
    <rc><c>S </c><c>   5</c></rc>
    <rc><c>S </c><c>   5</c></rc>
    <rc><c>S </c><c>   5</c></rc>
    <rc><c>S </c><c>   5</c></rc>
    <rc><c>S </c><c>   5</c></rc>
    <rc><c>S </c><c>   5</c></rc>
    <rc><c>S </c><c>   5</c></rc>
    <rc><c>S </c><c>   5</c></rc>
    <rc><c>S </c><c>   5</c></rc>
    <rc><c>S </c><c>   5</c></rc>
    <rc><c>S </c><c>   5</c></rc>
    <rc><c>S </c><c>   5</c></rc>
    <rc><c>S </c><c>   5</c></rc>
    <rc><c>S </c><c>   5</c></rc>
    <rc><c>S </c><c>   5</c></rc>
    <rc><c>S </c><c>   5</c></rc>
    <rc><c>S </c><c>   5</c></rc>
    <rc><c>S </c><c>   5</c></rc>
    <rc><c>S </c><c>   5</c></rc>
    <rc><c>S </c><c>   5</c></rc>
    <rc><c>S </c><c>   5</c></rc>
    <rc><c>S </c><c>   5</c></rc>
    <rc><c>S </c><c>   5</c></rc>
    <rc><c>S </c><c>   5</c></rc>
    <rc><c>S </c><c>   5</c></rc>
    <rc><c>S </c><c>   5</c></rc>
    <rc><c>S </c><c>   5</c></rc>
    <rc><c>S </c><c>   5</c></rc>
    <rc><c>S </c><c>   5</c></rc>
    <rc><c>S </c><c>   5</c></rc>
    <rc><c>S </c><c>   5</c></rc>
    <rc><c>S </c><c>   5</c></rc>
    <rc><c>S </c><c>   5</c></rc>
    <rc><c>S </c><c>   5</c></rc>
    <rc><c>S </c><c>   5</c></rc>
    <rc><c>S </c><c>   5</c></rc>
    <rc><c>S </c><c>   5</c></rc>
    <rc><c>S </c><c>   5</c></rc>
    <rc><c>S </c><c>   5</c></rc>
    <rc><c>S </c><c>   5</c></rc>
    <rc><c>S </c><c>   5</c></rc>
    <rc><c>S </c><c>   5</c></rc>
    <rc><c>S </c><c>   5</c></rc>
    <rc><c>S </c><c>   5</c></rc>
    <rc><c>S </c><c>   5</c></rc>
    <rc><c>S </c><c>   5</c></rc>
    <rc><c>S </c><c>   5</c></rc>
    <rc><c>S </c><c>   5</c></rc>
    <rc><c>S </c><c>   5</c></rc>
    <rc><c>S </c><c>   5</c></rc>
    <rc><c>S </c><c>   5</c></rc>
    <rc><c>S </c><c>   5</c></rc>
    <rc><c>S </c><c>   5</c></rc>
    <rc><c>S </c><c>   5</c></rc>
    <rc><c>S </c><c>   5</c></rc>
    <rc><c>S </c><c>   5</c></rc>
    <rc><c>S </c><c>   5</c></rc>
    <rc><c>S </c><c>   5</c></rc>
    <rc><c>S </c><c>   5</c></rc>
    <rc><c>S </c><c>   5</c></rc>
    <rc><c>S </c><c>   5</c></rc>
    <rc><c>S </c><c>   5</c></rc>
    <rc><c>S </c><c>   5</c></rc>
    <rc><c>S </c><c>   5</c></rc>
    <rc><c>S </c><c>   5</c></rc>
    <rc><c>S </c><c>   5</c></rc>
    <rc><c>S </c><c>   5</c></rc>
    <rc><c>S </c><c>   5</c></rc>
   </set>
  </array>
  <array name="atomtypes" >
   <dimension dim="1">type</dimension>
   <field type="int">atomspertype</field>
   <field type="string">element</field>
   <field>mass</field>
   <field>valence</field>
   <field type="string">pseudopotential</field>
   <set>
    <rc><c>  10</c><c>C </c><c>     12.01100000</c><c>      4.00000000</c><c>  PAW_PBE C 08Apr2002                   </c></rc>
    <rc><c>   1</c><c>Cr</c><c>     51.99600000</c><c>      6.00000000</c><c>  PAW_PBE Cr 06Sep2000                  </c></rc>
    <rc><c>  10</c><c>H </c><c>      1.00000000</c><c>      1.00000000</c><c>  PAW_PBE H 15Jun2001                   </c></rc>
    <rc><c>  50</c><c>Mo</c><c>     95.94000000</c><c>      6.00000000</c><c>  PAW_PBE Mo 08Apr2002                  </c></rc>
    <rc><c> 100</c><c>S </c><c>     32.06600000</c><c>      6.00000000</c><c>  PAW_PBE S 06Sep2000                   </c></rc>
   </set>
  </array>
 </atominfo>
 <structure name="initialpos" >
  <crystal>
   <varray name="basis" >
    <v>      15.90000000       0.00000000       0.00000000 </v>
    <v>      -7.95000000      13.76980392       0.00000000 </v>
    <v>       0.00000000       0.00000000      32.38000000 </v>
   </varray>
   <i name="volume">   7089.27338987 </i>
   <varray name="rec_basis" >
    <v>       0.06289308       0.03631134       0.00000000 </v>
    <v>       0.00000000       0.07262268       0.00000000 </v>
    <v>       0.00000000       0.00000000       0.03088326 </v>
   </varray>
  </crystal>
  <varray name="positions" >
   <v>       0.55102116       0.46320607       0.38446043 </v>
   <v>       0.59808749       0.45656634       0.42064827 </v>
   <v>       0.52124844       0.53306569       0.39153600 </v>
   <v>       0.55048848       0.57083785       0.43272052 </v>
   <v>       0.59826258       0.52269299       0.45079074 </v>
   <v>       0.36236612       0.27374240       0.45268011 </v>
   <v>       0.34979214       0.39591113       0.48661716 </v>
   <v>       0.39024283       0.33292403       0.48951924 </v>
   <v>       0.29754474       0.37557172       0.44871357 </v>
   <v>       0.30518588       0.30100478       0.42772156 </v>
   <v>       0.45151254       0.42187640       0.43762887 </v>
   <v>       0.63006233       0.53534346       0.48148684 </v>
   <v>       0.43181228       0.32876290       0.51530181 </v>
   <v>       0.37950795       0.21716916       0.44550273 </v>
   <v>       0.35868000       0.45062328       0.50906846 </v>
   <v>       0.26238147       0.41429240       0.43680163 </v>
   <v>       0.62595191       0.40715343       0.42516044 </v>
   <v>       0.53604025       0.41892639       0.35684994 </v>
   <v>       0.48261535       0.55344962       0.36966425 </v>
   <v>       0.54109685       0.62747041       0.44702900 </v>
   <v>       0.27501242       0.27181059       0.39744457 </v>
   <v>       0.60000000       0.60000000       0.65735022 </v>
   <v>       0.20000000       0.80000000       0.21911674 </v>
   <v>       0.20000000       0.60000000       0.65735022 </v>
   <v>       0.60000000       0.80000000       0.21911674 </v>
   <v>       0.20000000       0.60000000       0.21911674 </v>
   <v>       0.60000000       0.80000000       0.65735022 </v>
   <v>       0.20000000       0.40000000       0.21911674 </v>
   <v>       0.80000000       0.00000000       0.21911674 </v>
   <v>       0.20000000       0.20000000       0.65735022 </v>
   <v>       0.80000000       0.00000000       0.65735022 </v>
   <v>       0.20000000       0.20000000       0.21911674 </v>
   <v>       0.20000000       0.80000000       0.65735022 </v>
   <v>       0.20000000       0.40000000       0.65735022 </v>
   <v>       0.60000000       0.60000000       0.21911674 </v>
   <v>       0.40000000       0.60000000       0.21911674 </v>
   <v>       0.40000000       0.00000000       0.65735022 </v>
   <v>       0.60000000       0.40000000       0.65735022 </v>
   <v>       0.40000000       0.20000000       0.21911674 </v>
   <v>       0.60000000       0.40000000       0.21911674 </v>
   <v>       0.40000000       0.20000000       0.65735022 </v>
   <v>       0.40000000       0.40000000       0.21911674 </v>
   <v>       0.60000000       0.20000000       0.65735022 </v>
   <v>       0.40000000       0.40000000       0.65735022 </v>
   <v>       0.60000000       0.20000000       0.21911674 </v>
   <v>       0.40000000       0.80000000       0.65735022 </v>
   <v>       0.40000000       0.60000000       0.65735022 </v>
   <v>       0.60000000       0.00000000       0.65735022 </v>
   <v>       0.40000000       0.80000000       0.21911674 </v>
   <v>       0.60000000       0.00000000       0.21911674 </v>
   <v>       0.40000000       0.00000000       0.21911674 </v>
   <v>       0.80000000       0.20000000       0.21911674 </v>
   <v>       0.20000000       0.00000000       0.65735022 </v>
   <v>       0.20000000       0.00000000       0.21911674 </v>
   <v>       0.00000000       0.00000000       0.21911674 </v>
   <v>       0.80000000       0.80000000       0.65735022 </v>
   <v>       0.00000000       0.00000000       0.65735022 </v>
   <v>       0.80000000       0.80000000       0.21911674 </v>
   <v>       0.00000000       0.20000000       0.21911674 </v>
   <v>       0.00000000       0.20000000       0.65735022 </v>
   <v>       0.80000000       0.60000000       0.65735022 </v>
   <v>       0.00000000       0.40000000       0.21911674 </v>
   <v>       0.00000000       0.40000000       0.65735022 </v>
   <v>       0.00000000       0.60000000       0.21911674 </v>
   <v>       0.80000000       0.40000000       0.65735022 </v>
   <v>       0.00000000       0.60000000       0.65735022 </v>
   <v>       0.80000000       0.60000000       0.21911674 </v>
   <v>       0.80000000       0.40000000       0.21911674 </v>
   <v>       0.00000000       0.80000000       0.65735022 </v>
   <v>       0.00000000       0.80000000       0.21911674 </v>
   <v>       0.80000000       0.20000000       0.65735022 </v>
   <v>       0.93333333       0.06666667       0.16985794 </v>
   <v>       0.73333333       0.26666667       0.60809141 </v>
   <v>       0.73333333       0.26666667       0.70660902 </v>
   <v>       0.93333333       0.66666667       0.70660902 </v>
   <v>       0.93333333       0.66666667       0.60809141 </v>
   <v>       0.73333333       0.26666667       0.16985794 </v>
   <v>       0.73333333       0.26666667       0.26837554 </v>
   <v>       0.93333333       0.46666667       0.26837554 </v>
   <v>       0.73333333       0.06666667       0.60809141 </v>
   <v>       0.73333333       0.06666667       0.70660902 </v>
   <v>       0.93333333       0.06666667       0.70660902 </v>
   <v>       0.93333333       0.86666667       0.16985794 </v>
   <v>       0.73333333       0.06666667       0.16985794 </v>
   <v>       0.93333333       0.06666667       0.60809141 </v>
   <v>       0.73333333       0.06666667       0.26837554 </v>
   <v>       0.93333333       0.26666667       0.16985794 </v>
   <v>       0.93333333       0.26666667       0.70660902 </v>
   <v>       0.93333333       0.86666667       0.26837554 </v>
   <v>       0.73333333       0.46666667       0.26837554 </v>
   <v>       0.73333333       0.46666667       0.16985794 </v>
   <v>       0.73333333       0.86666667       0.16985794 </v>
   <v>       0.73333333       0.86666667       0.70660902 </v>
   <v>       0.73333333       0.86666667       0.26837554 </v>
   <v>       0.93333333       0.46666667       0.16985794 </v>
   <v>       0.73333333       0.86666667       0.60809141 </v>
   <v>       0.73333333       0.66666667       0.60809141 </v>
   <v>       0.73333333       0.66666667       0.70660902 </v>
   <v>       0.93333333       0.46666667       0.70660902 </v>
   <v>       0.73333333       0.66666667       0.16985794 </v>
   <v>       0.93333333       0.46666667       0.60809141 </v>
   <v>       0.73333333       0.66666667       0.26837554 </v>
   <v>       0.93333333       0.26666667       0.60809141 </v>
   <v>       0.93333333       0.26666667       0.26837554 </v>
   <v>       0.73333333       0.46666667       0.60809141 </v>
   <v>       0.73333333       0.46666667       0.70660902 </v>
   <v>       0.93333333       0.66666667       0.26837554 </v>
   <v>       0.93333333       0.06666667       0.26837554 </v>
   <v>       0.93333333       0.66666667       0.16985794 </v>
   <v>       0.53333333       0.86666667       0.60809141 </v>
   <v>       0.53333333       0.06666667       0.70660902 </v>
   <v>       0.53333333       0.86666667       0.16985794 </v>
   <v>       0.33333333       0.26666667       0.16985794 </v>
   <v>       0.33333333       0.26666667       0.26837554 </v>
   <v>       0.33333333       0.06666667       0.60809141 </v>
   <v>       0.33333333       0.06666667       0.70660902 </v>
   <v>       0.33333333       0.06666667       0.16985794 </v>
   <v>       0.33333333       0.06666667       0.26837554 </v>
   <v>       0.13333333       0.86666667       0.60809141 </v>
   <v>       0.13333333       0.86666667       0.70660902 </v>
   <v>       0.13333333       0.86666667       0.16985794 </v>
   <v>       0.13333333       0.86666667       0.26837554 </v>
   <v>       0.13333333       0.66666667       0.60809141 </v>
   <v>       0.13333333       0.66666667       0.70660902 </v>
   <v>       0.33333333       0.26666667       0.70660902 </v>
   <v>       0.13333333       0.66666667       0.16985794 </v>
   <v>       0.13333333       0.46666667       0.60809141 </v>
   <v>       0.13333333       0.46666667       0.70660902 </v>
   <v>       0.13333333       0.46666667       0.16985794 </v>
   <v>       0.13333333       0.46666667       0.26837554 </v>
   <v>       0.13333333       0.26666667       0.60809141 </v>
   <v>       0.13333333       0.26666667       0.70660902 </v>
   <v>       0.13333333       0.26666667       0.16985794 </v>
   <v>       0.13333333       0.26666667       0.26837554 </v>
   <v>       0.13333333       0.06666667       0.60809141 </v>
   <v>       0.13333333       0.06666667       0.70660902 </v>
   <v>       0.13333333       0.06666667       0.16985794 </v>
   <v>       0.13333333       0.06666667       0.26837554 </v>
   <v>       0.13333333       0.66666667       0.26837554 </v>
   <v>       0.33333333       0.26666667       0.60809141 </v>
   <v>       0.33333333       0.46666667       0.26837554 </v>
   <v>       0.33333333       0.46666667       0.16985794 </v>
   <v>       0.53333333       0.86666667       0.26837554 </v>
   <v>       0.53333333       0.66666667       0.60809141 </v>
   <v>       0.53333333       0.66666667       0.70660902 </v>
   <v>       0.53333333       0.66666667       0.16985794 </v>
   <v>       0.53333333       0.66666667       0.26837554 </v>
   <v>       0.53333333       0.46666667       0.60809141 </v>
   <v>       0.53333333       0.46666667       0.70660902 </v>
   <v>       0.53333333       0.46666667       0.16985794 </v>
   <v>       0.53333333       0.46666667       0.26837554 </v>
   <v>       0.53333333       0.26666667       0.60809141 </v>
   <v>       0.53333333       0.26666667       0.70660902 </v>
   <v>       0.53333333       0.26666667       0.16985794 </v>
   <v>       0.53333333       0.26666667       0.26837554 </v>
   <v>       0.53333333       0.06666667       0.60809141 </v>
   <v>       0.93333333       0.86666667       0.70660902 </v>
   <v>       0.53333333       0.06666667       0.16985794 </v>
   <v>       0.53333333       0.06666667       0.26837554 </v>
   <v>       0.33333333       0.86666667       0.60809141 </v>
   <v>       0.33333333       0.86666667       0.70660902 </v>
   <v>       0.33333333       0.86666667       0.16985794 </v>
   <v>       0.33333333       0.86666667       0.26837554 </v>
   <v>       0.33333333       0.66666667       0.60809141 </v>
   <v>       0.33333333       0.66666667       0.70660902 </v>
   <v>       0.33333333       0.66666667       0.16985794 </v>
   <v>       0.33333333       0.66666667       0.26837554 </v>
   <v>       0.33333333       0.46666667       0.60809141 </v>
   <v>       0.33333333       0.46666667       0.70660902 </v>
   <v>       0.53333333       0.86666667       0.70660902 </v>
   <v>       0.93333333       0.86666667       0.60809141 </v>
  </varray>
  <varray name="selective"  type="logical" >
   <v type="logical" >  T  T  F </v>
   <v type="logical" >  T  T  F </v>
   <v type="logical" >  T  T  F </v>
   <v type="logical" >  T  T  F </v>
   <v type="logical" >  T  T  F </v>
   <v type="logical" >  T  T  F </v>
   <v type="logical" >  T  T  F </v>
   <v type="logical" >  T  T  F </v>
   <v type="logical" >  T  T  F </v>
   <v type="logical" >  T  T  F </v>
   <v type="logical" >  T  T  F </v>
   <v type="logical" >  T  T  F </v>
   <v type="logical" >  T  T  F </v>
   <v type="logical" >  T  T  F </v>
   <v type="logical" >  T  T  F </v>
   <v type="logical" >  T  T  F </v>
   <v type="logical" >  T  T  F </v>
   <v type="logical" >  T  T  F </v>
   <v type="logical" >  T  T  F </v>
   <v type="logical" >  T  T  F </v>
   <v type="logical" >  T  T  F </v>
   <v type="logical" >  T  T  F </v>
   <v type="logical" >  F  F  F </v>
   <v type="logical" >  T  T  F </v>
   <v type="logical" >  F  F  F </v>
   <v type="logical" >  F  F  F </v>
   <v type="logical" >  T  T  F </v>
   <v type="logical" >  F  F  F </v>
   <v type="logical" >  F  F  F </v>
   <v type="logical" >  T  T  F </v>
   <v type="logical" >  T  T  F </v>
   <v type="logical" >  F  F  F </v>
   <v type="logical" >  T  T  F </v>
   <v type="logical" >  T  T  F </v>
   <v type="logical" >  F  F  F </v>
   <v type="logical" >  F  F  F </v>
   <v type="logical" >  T  T  F </v>
   <v type="logical" >  T  T  F </v>
   <v type="logical" >  F  F  F </v>
   <v type="logical" >  F  F  F </v>
   <v type="logical" >  T  T  F </v>
   <v type="logical" >  F  F  F </v>
   <v type="logical" >  T  T  F </v>
   <v type="logical" >  T  T  F </v>
   <v type="logical" >  F  F  F </v>
   <v type="logical" >  T  T  F </v>
   <v type="logical" >  T  T  F </v>
   <v type="logical" >  T  T  F </v>
   <v type="logical" >  F  F  F </v>
   <v type="logical" >  F  F  F </v>
   <v type="logical" >  F  F  F </v>
   <v type="logical" >  F  F  F </v>
   <v type="logical" >  T  T  F </v>
   <v type="logical" >  F  F  F </v>
   <v type="logical" >  F  F  F </v>
   <v type="logical" >  T  T  F </v>
   <v type="logical" >  T  T  F </v>
   <v type="logical" >  F  F  F </v>
   <v type="logical" >  F  F  F </v>
   <v type="logical" >  T  T  F </v>
   <v type="logical" >  T  T  F </v>
   <v type="logical" >  F  F  F </v>
   <v type="logical" >  T  T  F </v>
   <v type="logical" >  F  F  F </v>
   <v type="logical" >  T  T  F </v>
   <v type="logical" >  T  T  F </v>
   <v type="logical" >  F  F  F </v>
   <v type="logical" >  F  F  F </v>
   <v type="logical" >  T  T  F </v>
   <v type="logical" >  F  F  F </v>
   <v type="logical" >  T  T  F </v>
   <v type="logical" >  F  F  F </v>
   <v type="logical" >  T  T  F </v>
   <v type="logical" >  T  T  F </v>
   <v type="logical" >  T  T  F </v>
   <v type="logical" >  T  T  F </v>
   <v type="logical" >  F  F  F </v>
   <v type="logical" >  F  F  F </v>
   <v type="logical" >  F  F  F </v>
   <v type="logical" >  T  T  F </v>
   <v type="logical" >  T  T  F </v>
   <v type="logical" >  T  T  F </v>
   <v type="logical" >  F  F  F </v>
   <v type="logical" >  F  F  F </v>
   <v type="logical" >  T  T  F </v>
   <v type="logical" >  F  F  F </v>
   <v type="logical" >  F  F  F </v>
   <v type="logical" >  T  T  F </v>
   <v type="logical" >  F  F  F </v>
   <v type="logical" >  F  F  F </v>
   <v type="logical" >  F  F  F </v>
   <v type="logical" >  F  F  F </v>
   <v type="logical" >  T  T  F </v>
   <v type="logical" >  F  F  F </v>
   <v type="logical" >  F  F  F </v>
   <v type="logical" >  T  T  F </v>
   <v type="logical" >  T  T  F </v>
   <v type="logical" >  T  T  F </v>
   <v type="logical" >  T  T  F </v>
   <v type="logical" >  F  F  F </v>
   <v type="logical" >  T  T  F </v>
   <v type="logical" >  F  F  F </v>
   <v type="logical" >  T  T  F </v>
   <v type="logical" >  F  F  F </v>
   <v type="logical" >  T  T  F </v>
   <v type="logical" >  T  T  F </v>
   <v type="logical" >  F  F  F </v>
   <v type="logical" >  F  F  F </v>
   <v type="logical" >  F  F  F </v>
   <v type="logical" >  T  T  F </v>
   <v type="logical" >  T  T  F </v>
   <v type="logical" >  F  F  F </v>
   <v type="logical" >  F  F  F </v>
   <v type="logical" >  F  F  F </v>
   <v type="logical" >  T  T  F </v>
   <v type="logical" >  T  T  F </v>
   <v type="logical" >  F  F  F </v>
   <v type="logical" >  F  F  F </v>
   <v type="logical" >  T  T  F </v>
   <v type="logical" >  T  T  F </v>
   <v type="logical" >  F  F  F </v>
   <v type="logical" >  F  F  F </v>
   <v type="logical" >  T  T  F </v>
   <v type="logical" >  T  T  F </v>
   <v type="logical" >  T  T  F </v>
   <v type="logical" >  F  F  F </v>
   <v type="logical" >  T  T  F </v>
   <v type="logical" >  T  T  F </v>
   <v type="logical" >  F  F  F </v>
   <v type="logical" >  F  F  F </v>
   <v type="logical" >  T  T  F </v>
   <v type="logical" >  T  T  F </v>
   <v type="logical" >  F  F  F </v>
   <v type="logical" >  F  F  F </v>
   <v type="logical" >  T  T  F </v>
   <v type="logical" >  T  T  F </v>
   <v type="logical" >  F  F  F </v>
   <v type="logical" >  F  F  F </v>
   <v type="logical" >  F  F  F </v>
   <v type="logical" >  T  T  F </v>
   <v type="logical" >  F  F  F </v>
   <v type="logical" >  F  F  F </v>
   <v type="logical" >  F  F  F </v>
   <v type="logical" >  T  T  F </v>
   <v type="logical" >  T  T  F </v>
   <v type="logical" >  F  F  F </v>
   <v type="logical" >  F  F  F </v>
   <v type="logical" >  T  T  F </v>
   <v type="logical" >  T  T  F </v>
   <v type="logical" >  F  F  F </v>
   <v type="logical" >  F  F  F </v>
   <v type="logical" >  T  T  F </v>
   <v type="logical" >  T  T  F </v>
   <v type="logical" >  F  F  F </v>
   <v type="logical" >  F  F  F </v>
   <v type="logical" >  T  T  F </v>
   <v type="logical" >  T  T  F </v>
   <v type="logical" >  F  F  F </v>
   <v type="logical" >  F  F  F </v>
   <v type="logical" >  T  T  F </v>
   <v type="logical" >  T  T  F </v>
   <v type="logical" >  F  F  F </v>
   <v type="logical" >  F  F  F </v>
   <v type="logical" >  T  T  F </v>
   <v type="logical" >  T  T  F </v>
   <v type="logical" >  F  F  F </v>
   <v type="logical" >  F  F  F </v>
   <v type="logical" >  T  T  F </v>
   <v type="logical" >  T  T  F </v>
   <v type="logical" >  T  T  F </v>
   <v type="logical" >  T  T  F </v>
  </varray>
  <nose>
   <v>      -3.00000000       0.00000000       0.00010000       0.00010000 </v>
  </nose>
 </structure>
 <calculation>
  <scstep>
   <time name="dav">   11.24   11.40</time>
   <time name="total">   11.65   12.09</time>
   <energy>
    <i name="alphaZ">   1150.89500911 </i>
    <i name="ewald">  87082.00971388 </i>
    <i name="hartreedc">-125055.60953401 </i>
    <i name="XCdc">  -1684.52464818 </i>
    <i name="pawpsdc">  36411.78182824 </i>
    <i name="pawaedc"> -32520.45026120 </i>
    <i name="eentropy">     -0.30822992 </i>
    <i name="bandstr">   1820.48482983 </i>
    <i name="atom">  40430.53995508 </i>
    <i name="e_fr_energy">   7634.81866283 </i>
    <i name="e_wo_entrp">   7635.12689275 </i>
    <i name="e_0_energy">   7634.97277779 </i>
   </energy>
  </scstep>
  <scstep>
   <time name="dav">   13.42   13.56</time>
   <time name="total">   13.42   13.56</time>
   <energy>
    <i name="e_fr_energy">   -272.93275467 </i>
    <i name="e_wo_entrp">   -272.82744539 </i>
    <i name="e_0_energy">   -272.88010003 </i>
   </energy>
  </scstep>
  <scstep>
   <time name="dav">   11.87   12.31</time>
   <time name="total">   11.87   12.31</time>
   <energy>
    <i name="e_fr_energy">  -1261.65637659 </i>
    <i name="e_wo_entrp">  -1261.65637608 </i>
    <i name="e_0_energy">  -1261.65637634 </i>
   </energy>
  </scstep>
  <scstep>
   <time name="dav">   14.57   15.68</time>
   <time name="total">   14.57   15.68</time>
   <energy>
    <i name="e_fr_energy">  -1320.88073349 </i>
    <i name="e_wo_entrp">  -1320.88073349 </i>
    <i name="e_0_energy">  -1320.88073349 </i>
   </energy>
  </scstep>
  <scstep>
   <time name="dav">   15.05   15.64</time>
   <time name="total">   16.08   16.70</time>
   <energy>
    <i name="e_fr_energy">  -1323.12275082 </i>
    <i name="e_wo_entrp">  -1323.12275082 </i>
    <i name="e_0_energy">  -1323.12275082 </i>
   </energy>
  </scstep>
  <scstep>
   <time name="dav">   13.23   13.33</time>
   <time name="total">   14.68   14.95</time>
   <energy>
    <i name="e_fr_energy">  -1276.50285163 </i>
    <i name="e_wo_entrp">  -1276.38978952 </i>
    <i name="e_0_energy">  -1276.44632057 </i>
   </energy>
  </scstep>
  <scstep>
   <time name="dav">   14.27   14.39</time>
   <time name="total">   15.83   16.47</time>
   <energy>
    <i name="e_fr_energy">  -1297.57512963 </i>
    <i name="e_wo_entrp">  -1297.14532490 </i>
    <i name="e_0_energy">  -1297.36022727 </i>
   </energy>
  </scstep>
  <scstep>
   <time name="dav">   12.66   12.78</time>
   <time name="total">   14.19   14.95</time>
   <energy>
    <i name="e_fr_energy">  -1233.92745295 </i>
    <i name="e_wo_entrp">  -1233.70608664 </i>
    <i name="e_0_energy">  -1233.81676980 </i>
   </energy>
  </scstep>
  <scstep>
   <time name="dav">   13.87   13.98</time>
   <time name="total">   15.32   17.87</time>
   <energy>
    <i name="e_fr_energy">  -1242.27146018 </i>
    <i name="e_wo_entrp">  -1242.06561340 </i>
    <i name="e_0_energy">  -1242.16853679 </i>
   </energy>
  </scstep>
  <scstep>
   <time name="dav">   14.87   15.00</time>
   <time name="total">   16.73   17.42</time>
   <energy>
    <i name="e_fr_energy">  -1222.16679980 </i>
    <i name="e_wo_entrp">  -1222.15623808 </i>
    <i name="e_0_energy">  -1222.16151894 </i>
   </energy>
  </scstep>
  <scstep>
   <time name="dav">   14.31   14.43</time>
   <time name="total">   15.79   15.93</time>
   <energy>
    <i name="e_fr_energy">  -1224.92826760 </i>
    <i name="e_wo_entrp">  -1224.92411495 </i>
    <i name="e_0_energy">  -1224.92619128 </i>
   </energy>
  </scstep>
  <scstep>
   <time name="dav">   14.06   14.18</time>
   <time name="total">   15.54   16.03</time>
   <energy>
    <i name="e_fr_energy">  -1224.45150048 </i>
    <i name="e_wo_entrp">  -1224.35200086 </i>
    <i name="e_0_energy">  -1224.40175067 </i>
   </energy>
  </scstep>
  <scstep>
   <time name="dav">   13.58   13.70</time>
   <time name="total">   15.07   15.78</time>
   <energy>
    <i name="e_fr_energy">  -1223.64483861 </i>
    <i name="e_wo_entrp">  -1223.60961351 </i>
    <i name="e_0_energy">  -1223.62722606 </i>
   </energy>
  </scstep>
  <scstep>
   <time name="dav">   14.02   14.15</time>
   <time name="total">   15.78   16.33</time>
   <energy>
    <i name="e_fr_energy">  -1223.94565441 </i>
    <i name="e_wo_entrp">  -1223.83494300 </i>
    <i name="e_0_energy">  -1223.89029871 </i>
   </energy>
  </scstep>
  <scstep>
   <time name="dav">   13.89   14.00</time>
   <time name="total">   15.36   15.62</time>
   <energy>
    <i name="e_fr_energy">  -1224.43381649 </i>
    <i name="e_wo_entrp">  -1224.35599336 </i>
    <i name="e_0_energy">  -1224.39490493 </i>
   </energy>
  </scstep>
  <scstep>
   <time name="dav">   14.14   14.25</time>
   <time name="total">   15.61   15.82</time>
   <energy>
    <i name="e_fr_energy">  -1228.02302181 </i>
    <i name="e_wo_entrp">  -1227.97356376 </i>
    <i name="e_0_energy">  -1227.99829279 </i>
   </energy>
  </scstep>
  <scstep>
   <time name="dav">   12.38   12.48</time>
   <time name="total">   14.00   15.28</time>
   <energy>
    <i name="e_fr_energy">  -1227.95325897 </i>
    <i name="e_wo_entrp">  -1227.89762271 </i>
    <i name="e_0_energy">  -1227.92544084 </i>
   </energy>
  </scstep>
  <scstep>
   <time name="dav">   13.93   14.06</time>
   <time name="total">   15.59   16.52</time>
   <energy>
    <i name="e_fr_energy">  -1229.08711012 </i>
    <i name="e_wo_entrp">  -1228.86917935 </i>
    <i name="e_0_energy">  -1228.97814473 </i>
   </energy>
  </scstep>
  <scstep>
   <time name="dav">   13.80   13.91</time>
   <time name="total">   15.39   15.89</time>
   <energy>
    <i name="e_fr_energy">  -1230.22970756 </i>
    <i name="e_wo_entrp">  -1230.16322072 </i>
    <i name="e_0_energy">  -1230.19646414 </i>
   </energy>
  </scstep>
  <scstep>
   <time name="dav">   13.83   13.95</time>
   <time name="total">   15.28   15.57</time>
   <energy>
    <i name="e_fr_energy">  -1231.32961017 </i>
    <i name="e_wo_entrp">  -1231.21802276 </i>
    <i name="e_0_energy">  -1231.27381646 </i>
   </energy>
  </scstep>
  <scstep>
   <time name="dav">   13.46   13.62</time>
   <time name="total">   15.21   16.91</time>
   <energy>
    <i name="e_fr_energy">  -1237.76135059 </i>
    <i name="e_wo_entrp">  -1237.75942109 </i>
    <i name="e_0_energy">  -1237.76038584 </i>
   </energy>
  </scstep>
  <scstep>
   <time name="dav">   13.94   14.06</time>
   <time name="total">   15.87   16.73</time>
   <energy>
    <i name="e_fr_energy">  -1240.31505469 </i>
    <i name="e_wo_entrp">  -1240.25284731 </i>
    <i name="e_0_energy">  -1240.28395100 </i>
   </energy>
  </scstep>
  <scstep>
   <time name="dav">   14.09   14.22</time>
   <time name="total">   15.88   17.98</time>
   <energy>
    <i name="e_fr_energy">  -1242.70990172 </i>
    <i name="e_wo_entrp">  -1242.69463533 </i>
    <i name="e_0_energy">  -1242.70226853 </i>
   </energy>
  </scstep>
  <scstep>
   <time name="dav">   14.43   14.56</time>
   <time name="total">   16.19   16.77</time>
   <energy>
    <i name="e_fr_energy">  -1244.35856732 </i>
    <i name="e_wo_entrp">  -1244.33616750 </i>
    <i name="e_0_energy">  -1244.34736741 </i>
   </energy>
  </scstep>
  <scstep>
   <time name="dav">   14.92   15.04</time>
   <time name="total">   16.46   16.96</time>
   <energy>
    <i name="e_fr_energy">  -1250.24577373 </i>
    <i name="e_wo_entrp">  -1250.23815440 </i>
    <i name="e_0_energy">  -1250.24196407 </i>
   </energy>
  </scstep>
  <scstep>
   <time name="dav">   14.69   14.81</time>
   <time name="total">   16.24   16.66</time>
   <energy>
    <i name="e_fr_energy">  -1268.09011223 </i>
    <i name="e_wo_entrp">  -1267.95499401 </i>
    <i name="e_0_energy">  -1268.02255312 </i>
   </energy>
  </scstep>
  <scstep>
   <time name="dav">   12.86   12.97</time>
   <time name="total">   14.51   15.37</time>
   <energy>
    <i name="e_fr_energy">  -1266.72911384 </i>
    <i name="e_wo_entrp">  -1266.58772324 </i>
    <i name="e_0_energy">  -1266.65841854 </i>
   </energy>
  </scstep>
  <scstep>
   <time name="dav">   15.29   15.41</time>
   <time name="total">   16.87   17.59</time>
   <energy>
    <i name="e_fr_energy">  -1267.55855531 </i>
    <i name="e_wo_entrp">  -1267.39773288 </i>
    <i name="e_0_energy">  -1267.47814409 </i>
   </energy>
  </scstep>
  <scstep>
   <time name="dav">   14.41   14.52</time>
   <time name="total">   16.20   18.58</time>
   <energy>
    <i name="e_fr_energy">  -1257.60631205 </i>
    <i name="e_wo_entrp">  -1257.55967561 </i>
    <i name="e_0_energy">  -1257.58299383 </i>
   </energy>
  </scstep>
  <scstep>
   <time name="dav">   13.67   13.79</time>
   <time name="total">   15.21   15.62</time>
   <energy>
    <i name="e_fr_energy">  -1264.18055834 </i>
    <i name="e_wo_entrp">  -1264.17779893 </i>
    <i name="e_0_energy">  -1264.17917864 </i>
   </energy>
  </scstep>
  <scstep>
   <time name="dav">   13.75   13.86</time>
   <time name="total">   15.41   16.28</time>
   <energy>
    <i name="e_fr_energy">  -1261.89583438 </i>
    <i name="e_wo_entrp">  -1261.88585353 </i>
    <i name="e_0_energy">  -1261.89084395 </i>
   </energy>
  </scstep>
  <scstep>
   <time name="dav">   14.82   14.94</time>
   <time name="total">   16.36   17.05</time>
   <energy>
    <i name="e_fr_energy">  -1258.44982784 </i>
    <i name="e_wo_entrp">  -1258.44466828 </i>
    <i name="e_0_energy">  -1258.44724806 </i>
   </energy>
  </scstep>
  <scstep>
   <time name="dav">   14.72   14.86</time>
   <time name="total">   16.30   16.76</time>
   <energy>
    <i name="e_fr_energy">  -1251.33654347 </i>
    <i name="e_wo_entrp">  -1251.32844234 </i>
    <i name="e_0_energy">  -1251.33249291 </i>
   </energy>
  </scstep>
  <scstep>
   <time name="dav">   14.37   14.48</time>
   <time name="total">   15.93   17.62</time>
   <energy>
    <i name="e_fr_energy">  -1229.09646919 </i>
    <i name="e_wo_entrp">  -1228.87103350 </i>
    <i name="e_0_energy">  -1228.98375135 </i>
   </energy>
  </scstep>
  <scstep>
   <time name="dav">   13.77   13.88</time>
   <time name="total">   15.47   16.91</time>
   <energy>
    <i name="e_fr_energy">  -1227.62716695 </i>
    <i name="e_wo_entrp">  -1227.45020563 </i>
    <i name="e_0_energy">  -1227.53868629 </i>
   </energy>
  </scstep>
  <scstep>
   <time name="dav">   14.92   15.04</time>
   <time name="total">   16.47   17.08</time>
   <energy>
    <i name="e_fr_energy">  -1226.39915157 </i>
    <i name="e_wo_entrp">  -1226.13607649 </i>
    <i name="e_0_energy">  -1226.26761403 </i>
   </energy>
  </scstep>
  <scstep>
   <time name="dav">   12.54   12.64</time>
   <time name="total">   14.08   14.95</time>
   <energy>
    <i name="e_fr_energy">  -1226.61323985 </i>
    <i name="e_wo_entrp">  -1226.36706057 </i>
    <i name="e_0_energy">  -1226.49015021 </i>
   </energy>
  </scstep>
  <scstep>
   <time name="dav">   12.77   12.88</time>
   <time name="total">   14.33   15.02</time>
   <energy>
    <i name="e_fr_energy">  -1226.29775650 </i>
    <i name="e_wo_entrp">  -1226.10933471 </i>
    <i name="e_0_energy">  -1226.20354561 </i>
   </energy>
  </scstep>
  <scstep>
   <time name="dav">   13.85   13.97</time>
   <time name="total">   15.40   15.53</time>
   <energy>
    <i name="e_fr_energy">  -1227.79010982 </i>
    <i name="e_wo_entrp">  -1227.53857809 </i>
    <i name="e_0_energy">  -1227.66434396 </i>
   </energy>
  </scstep>
  <scstep>
   <time name="dav">   11.63   11.73</time>
   <time name="total">   13.18   14.23</time>
   <energy>
    <i name="e_fr_energy">  -1227.64694247 </i>
    <i name="e_wo_entrp">  -1227.41504660 </i>
    <i name="e_0_energy">  -1227.53099453 </i>
   </energy>
  </scstep>
  <scstep>
   <time name="dav">   13.02   13.12</time>
   <time name="total">   14.57   14.69</time>
   <energy>
    <i name="e_fr_energy">  -1227.64256003 </i>
    <i name="e_wo_entrp">  -1227.40152282 </i>
    <i name="e_0_energy">  -1227.52204143 </i>
   </energy>
  </scstep>
  <scstep>
   <time name="dav">   14.26   14.37</time>
   <time name="total">   16.20   16.96</time>
   <energy>
    <i name="e_fr_energy">  -1226.41269576 </i>
    <i name="e_wo_entrp">  -1226.18964095 </i>
    <i name="e_0_energy">  -1226.30116835 </i>
   </energy>
  </scstep>
  <scstep>
   <time name="dav">   14.30   14.42</time>
   <time name="total">   16.05   18.65</time>
   <energy>
    <i name="e_fr_energy">  -1226.32015641 </i>
    <i name="e_wo_entrp">  -1226.10107350 </i>
    <i name="e_0_energy">  -1226.21061496 </i>
   </energy>
  </scstep>
  <scstep>
   <time name="dav">   13.44   13.55</time>
   <time name="total">   15.25   15.99</time>
   <energy>
    <i name="e_fr_energy">  -1226.50871778 </i>
    <i name="e_wo_entrp">  -1226.29068762 </i>
    <i name="e_0_energy">  -1226.39970270 </i>
   </energy>
  </scstep>
  <scstep>
   <time name="dav">   13.89   14.01</time>
   <time name="total">   15.45   15.73</time>
   <energy>
    <i name="e_fr_energy">  -1226.86533444 </i>
    <i name="e_wo_entrp">  -1226.64847085 </i>
    <i name="e_0_energy">  -1226.75690265 </i>
   </energy>
  </scstep>
  <scstep>
   <time name="dav">   13.77   13.91</time>
   <time name="total">   15.33   15.53</time>
   <energy>
    <i name="e_fr_energy">  -1227.41814731 </i>
    <i name="e_wo_entrp">  -1227.14397108 </i>
    <i name="e_0_energy">  -1227.28105920 </i>
   </energy>
  </scstep>
  <scstep>
   <time name="dav">   12.80   12.91</time>
   <time name="total">   14.36   15.25</time>
   <energy>
    <i name="e_fr_energy">  -1227.02499023 </i>
    <i name="e_wo_entrp">  -1226.80746408 </i>
    <i name="e_0_energy">  -1226.91622716 </i>
   </energy>
  </scstep>
  <scstep>
   <time name="dav">   13.18   13.29</time>
   <time name="total">   14.74   15.43</time>
   <energy>
    <i name="e_fr_energy">  -1226.26653689 </i>
    <i name="e_wo_entrp">  -1226.04899145 </i>
    <i name="e_0_energy">  -1226.15776417 </i>
   </energy>
  </scstep>
  <scstep>
   <time name="dav">   12.73   12.85</time>
   <time name="total">   14.55   15.17</time>
   <energy>
    <i name="e_fr_energy">  -1224.73126727 </i>
    <i name="e_wo_entrp">  -1224.50647110 </i>
    <i name="e_0_energy">  -1224.61886919 </i>
   </energy>
  </scstep>
  <scstep>
   <time name="dav">   14.10   14.21</time>
   <time name="total">   15.67   15.87</time>
   <energy>
    <i name="e_fr_energy">  -1224.02800066 </i>
    <i name="e_wo_entrp">  -1223.68945511 </i>
    <i name="e_0_energy">  -1223.85872788 </i>
   </energy>
  </scstep>
  <scstep>
   <time name="dav">   14.08   14.20</time>
   <time name="total">   15.65   15.88</time>
   <energy>
    <i name="e_fr_energy">  -1227.37490494 </i>
    <i name="e_wo_entrp">  -1227.00109783 </i>
    <i name="e_0_energy">  -1227.18800138 </i>
   </energy>
  </scstep>
  <scstep>
   <time name="dav">   12.07   12.17</time>
   <time name="total">   14.08   14.72</time>
   <energy>
    <i name="e_fr_energy">  -1227.44921168 </i>
    <i name="e_wo_entrp">  -1227.07203143 </i>
    <i name="e_0_energy">  -1227.26062156 </i>
   </energy>
  </scstep>
  <scstep>
   <time name="dav">   12.77   12.88</time>
   <time name="total">   14.58   15.68</time>
   <energy>
    <i name="e_fr_energy">  -1227.52565845 </i>
    <i name="e_wo_entrp">  -1227.14900496 </i>
    <i name="e_0_energy">  -1227.33733170 </i>
   </energy>
  </scstep>
  <scstep>
   <time name="dav">   13.05   13.17</time>
   <time name="total">   14.61   14.90</time>
   <energy>
    <i name="e_fr_energy">  -1225.12545111 </i>
    <i name="e_wo_entrp">  -1224.69370085 </i>
    <i name="e_0_energy">  -1224.90957598 </i>
   </energy>
  </scstep>
  <scstep>
   <time name="dav">   12.91   13.02</time>
   <time name="total">   14.48   14.78</time>
   <energy>
    <i name="e_fr_energy">  -1224.93838018 </i>
    <i name="e_wo_entrp">  -1224.50235717 </i>
    <i name="e_0_energy">  -1224.72036868 </i>
   </energy>
  </scstep>
  <scstep>
   <time name="dav">   12.50   12.60</time>
   <time name="total">   14.08   15.58</time>
   <energy>
    <i name="e_fr_energy">  -1225.04507890 </i>
    <i name="e_wo_entrp">  -1224.61236815 </i>
    <i name="e_0_energy">  -1224.82872353 </i>
   </energy>
  </scstep>
  <scstep>
   <time name="dav">   13.12   13.23</time>
   <time name="total">   14.67   14.79</time>
   <energy>
    <i name="e_fr_energy">  -1223.62349838 </i>
    <i name="e_wo_entrp">  -1223.49483208 </i>
    <i name="e_0_energy">  -1223.55916523 </i>
   </energy>
  </scstep>
  <scstep>
   <time name="dav">   13.17   13.31</time>
   <time name="total">   14.78   15.86</time>
   <energy>
    <i name="e_fr_energy">  -1223.45600923 </i>
    <i name="e_wo_entrp">  -1223.40608672 </i>
    <i name="e_0_energy">  -1223.43104797 </i>
   </energy>
  </scstep>
  <scstep>
   <time name="dav">   11.83   11.92</time>
   <time name="total">   13.41   14.11</time>
   <energy>
    <i name="e_fr_energy">  -1223.36038343 </i>
    <i name="e_wo_entrp">  -1223.26791706 </i>
    <i name="e_0_energy">  -1223.31415024 </i>
   </energy>
  </scstep>
  <scstep>
   <time name="dav">   14.62   14.73</time>
   <time name="total">   16.14   16.27</time>
   <energy>
    <i name="e_fr_energy">  -1223.23572294 </i>
    <i name="e_wo_entrp">  -1223.22677915 </i>
    <i name="e_0_energy">  -1223.23125104 </i>
   </energy>
  </scstep>
  <scstep>
   <time name="dav">   14.65   14.78</time>
   <time name="total">   16.43   17.28</time>
   <energy>
    <i name="e_fr_energy">  -1223.15765326 </i>
    <i name="e_wo_entrp">  -1223.07985787 </i>
    <i name="e_0_energy">  -1223.11875556 </i>
   </energy>
  </scstep>
  <scstep>
   <time name="dav">   13.04   13.15</time>
   <time name="total">   14.51   14.68</time>
   <energy>
    <i name="e_fr_energy">  -1223.16961982 </i>
    <i name="e_wo_entrp">  -1223.11974199 </i>
    <i name="e_0_energy">  -1223.14468090 </i>
   </energy>
  </scstep>
  <scstep>
   <time name="dav">   13.75   13.86</time>
   <time name="total">   15.25   16.56</time>
   <energy>
    <i name="e_fr_energy">  -1223.13051515 </i>
    <i name="e_wo_entrp">  -1223.08915538 </i>
    <i name="e_0_energy">  -1223.10983526 </i>
   </energy>
  </scstep>
  <scstep>
   <time name="dav">   14.27   14.38</time>
   <time name="total">   15.78   15.91</time>
   <energy>
    <i name="e_fr_energy">  -1222.96588970 </i>
    <i name="e_wo_entrp">  -1222.88366421 </i>
    <i name="e_0_energy">  -1222.92477696 </i>
   </energy>
  </scstep>
  <scstep>
   <time name="dav">   13.79   13.91</time>
   <time name="total">   15.30   15.69</time>
   <energy>
    <i name="e_fr_energy">  -1222.88908423 </i>
    <i name="e_wo_entrp">  -1222.77994348 </i>
    <i name="e_0_energy">  -1222.83451386 </i>
   </energy>
  </scstep>
  <scstep>
   <time name="dav">   12.78   12.90</time>
   <time name="total">   14.29   14.48</time>
   <energy>
    <i name="e_fr_energy">  -1222.87178708 </i>
    <i name="e_wo_entrp">  -1222.76559893 </i>
    <i name="e_0_energy">  -1222.81869301 </i>
   </energy>
  </scstep>
  <scstep>
   <time name="dav">   13.85   14.00</time>
   <time name="total">   15.33   16.07</time>
   <energy>
    <i name="e_fr_energy">  -1222.91457597 </i>
    <i name="e_wo_entrp">  -1222.81860154 </i>
    <i name="e_0_energy">  -1222.86658875 </i>
   </energy>
  </scstep>
  <scstep>
   <time name="dav">   12.94   13.05</time>
   <time name="total">   14.41   15.21</time>
   <energy>
    <i name="e_fr_energy">  -1222.89952120 </i>
    <i name="e_wo_entrp">  -1222.77228977 </i>
    <i name="e_0_energy">  -1222.83590549 </i>
   </energy>
  </scstep>
  <scstep>
   <time name="dav">   14.23   14.35</time>
   <time name="total">   15.71   17.12</time>
   <energy>
    <i name="e_fr_energy">  -1222.99732836 </i>
    <i name="e_wo_entrp">  -1222.93010204 </i>
    <i name="e_0_energy">  -1222.96371520 </i>
   </energy>
  </scstep>
  <scstep>
   <time name="dav">   13.52   13.63</time>
   <time name="total">   15.04   15.99</time>
   <energy>
    <i name="e_fr_energy">  -1222.98467278 </i>
    <i name="e_wo_entrp">  -1222.86893395 </i>
    <i name="e_0_energy">  -1222.92680337 </i>
   </energy>
  </scstep>
  <scstep>
   <time name="dav">   14.00   14.11</time>
   <time name="total">   15.50   15.65</time>
   <energy>
    <i name="e_fr_energy">  -1222.90417103 </i>
    <i name="e_wo_entrp">  -1222.78986840 </i>
    <i name="e_0_energy">  -1222.84701971 </i>
   </energy>
  </scstep>
  <scstep>
   <time name="dav">   13.52   13.63</time>
   <time name="total">   14.99   15.12</time>
   <energy>
    <i name="e_fr_energy">  -1222.90841448 </i>
    <i name="e_wo_entrp">  -1222.79657235 </i>
    <i name="e_0_energy">  -1222.85249341 </i>
   </energy>
  </scstep>
  <scstep>
   <time name="dav">   12.64   12.77</time>
[...]
       <r>    -0.6032     0.0000   952.0000 </r>
       <r>    -0.5321     0.0000   952.0000 </r>
       <r>    -0.4610     0.0000   952.0000 </r>
       <r>    -0.3899     0.0000   952.0000 </r>
       <r>    -0.3187     0.0007   952.0001 </r>
       <r>    -0.2476     0.0330   952.0024 </r>
       <r>    -0.1765     0.5626   952.0424 </r>
       <r>    -0.1054     3.7092   952.3062 </r>
       <r>    -0.0343     9.6658   952.9936 </r>
       <r>     0.0369    11.2079   953.7907 </r>
       <r>     0.1080    12.3014   954.6656 </r>
       <r>     0.1791    22.1765   956.2428 </r>
       <r>     0.2502    41.8306   959.2178 </r>
       <r>     0.3213    97.9085   966.1811 </r>
       <r>     0.3925   163.2934   977.7945 </r>
       <r>     0.4636   219.1575   993.3810 </r>
       <r>     0.5347   298.1643  1014.5865 </r>
       <r>     0.6058   288.1773  1035.0817 </r>
       <r>     0.6769   184.1942  1048.1816 </r>
       <r>     0.7481    81.0151  1053.9434 </r>
       <r>     0.8192    98.4953  1060.9483 </r>
       <r>     0.8903   270.1568  1080.1619 </r>
       <r>     0.9614   385.5089  1107.5793 </r>
       <r>     1.0325   307.3296  1129.4366 </r>
       <r>     1.1037   199.4536  1143.6218 </r>
       <r>     1.1748   136.0445  1153.2973 </r>
       <r>     1.2459   120.9231  1161.8973 </r>
       <r>     1.3170    83.5255  1167.8377 </r>
       <r>     1.3881    26.7149  1169.7376 </r>
       <r>     1.4593     3.5029  1169.9868 </r>
       <r>     1.5304     0.1824  1169.9997 </r>
       <r>     1.6015     0.0037  1170.0000 </r>
       <r>     1.6726     0.0000  1170.0000 </r>
       <r>     1.7437     0.0000  1170.0000 </r>
       <r>     1.8149     0.0000  1170.0000 </r>
       <r>     1.8860     0.0000  1170.0000 </r>
       <r>     1.9571     0.0000  1170.0000 </r>
       <r>     2.0282     0.0000  1170.0000 </r>
       <r>     2.0993     0.0000  1170.0000 </r>
       <r>     2.1705     0.0000  1170.0000 </r>
       <r>     2.2416     0.0000  1170.0000 </r>
      </set>
     </set>
    </array>
   </total>
  </dos>
 </calculation>
 <structure name="finalpos" >
  <crystal>
   <varray name="basis" >
    <v>      15.90000000       0.00000000       0.00000000 </v>
    <v>      -7.95000000      13.76980392       0.00000000 </v>
    <v>       0.00000000       0.00000000      32.38000000 </v>
   </varray>
   <i name="volume">   7089.27338987 </i>
   <varray name="rec_basis" >
    <v>       0.06289308       0.03631134       0.00000000 </v>
    <v>       0.00000000       0.07262268       0.00000000 </v>
    <v>       0.00000000       0.00000000       0.03088326 </v>
   </varray>
  </crystal>
  <varray name="positions" >
   <v>       0.55127770       0.46336178       0.38446043 </v>
   <v>       0.59817161       0.45663258       0.42064827 </v>
   <v>       0.52135092       0.53308417       0.39153600 </v>
   <v>       0.55051921       0.57080120       0.43272052 </v>
   <v>       0.59830388       0.52268862       0.45079074 </v>
   <v>       0.36231837       0.27378187       0.45268011 </v>
   <v>       0.34962674       0.39583727       0.48661716 </v>
   <v>       0.39024017       0.33299941       0.48951924 </v>
   <v>       0.29739135       0.37540426       0.44871357 </v>
   <v>       0.30504402       0.30091923       0.42772156 </v>
   <v>       0.45153252       0.42182182       0.43762887 </v>
   <v>       0.63002521       0.53527864       0.48148684 </v>
   <v>       0.43188298       0.32887221       0.51530181 </v>
   <v>       0.37954621       0.21728412       0.44550273 </v>
   <v>       0.35868014       0.45064631       0.50906846 </v>
   <v>       0.26237153       0.41420769       0.43680163 </v>
   <v>       0.62592003       0.40714519       0.42516044 </v>
   <v>       0.53602330       0.41900253       0.35684994 </v>
   <v>       0.48263544       0.55343122       0.36966425 </v>
   <v>       0.54108151       0.62738932       0.44702900 </v>
   <v>       0.27503924       0.27180630       0.39744457 </v>
   <v>       0.60001473       0.60002156       0.65735022 </v>
   <v>       0.20000000       0.80000000       0.21911674 </v>
   <v>       0.20000612       0.59999727       0.65735022 </v>
   <v>       0.60000000       0.80000000       0.21911674 </v>
   <v>       0.20000000       0.60000000       0.21911674 </v>
   <v>       0.60001006       0.80001010       0.65735022 </v>
   <v>       0.20000000       0.40000000       0.21911674 </v>
   <v>       0.80000000       0.00000000       0.21911674 </v>
   <v>       0.20001629       0.20001410       0.65735022 </v>
   <v>       0.80000371       0.00000574       0.65735022 </v>
   <v>       0.20000000       0.20000000       0.21911674 </v>
   <v>       0.19999657       0.80000035       0.65735022 </v>
   <v>       0.19998769       0.39997321       0.65735022 </v>
   <v>       0.60000000       0.60000000       0.21911674 </v>
   <v>       0.40000000       0.60000000       0.21911674 </v>
   <v>       0.39998741       0.00000776       0.65735022 </v>
   <v>       0.60000444       0.39999559       0.65735022 </v>
   <v>       0.40000000       0.20000000       0.21911674 </v>
   <v>       0.60000000       0.40000000       0.21911674 </v>
   <v>       0.39996990       0.20001195       0.65735022 </v>
   <v>       0.40000000       0.40000000       0.21911674 </v>
   <v>       0.60001057       0.20000453       0.65735022 </v>
   <v>       0.39996095       0.39994360       0.65735022 </v>
   <v>       0.60000000       0.20000000       0.21911674 </v>
   <v>       0.40000126       0.79999749       0.65735022 </v>
   <v>       0.40000678       0.60000691       0.65735022 </v>
   <v>       0.60002691       0.00000183       0.65735022 </v>
   <v>       0.40000000       0.80000000       0.21911674 </v>
   <v>       0.60000000       0.00000000       0.21911674 </v>
   <v>       0.40000000       0.00000000       0.21911674 </v>
   <v>       0.80000000       0.20000000       0.21911674 </v>
   <v>       0.19999893       0.00001417       0.65735022 </v>
   <v>       0.20000000       0.00000000       0.21911674 </v>
   <v>       0.00000000       0.00000000       0.21911674 </v>
   <v>       0.80000319       0.80000357       0.65735022 </v>
   <v>      -0.00000070       0.00000059       0.65735022 </v>
   <v>       0.80000000       0.80000000       0.21911674 </v>
   <v>       0.00000000       0.20000000       0.21911674 </v>
   <v>      -0.00000038       0.20000472       0.65735022 </v>
   <v>       0.80000275       0.60000920       0.65735022 </v>
   <v>       0.00000000       0.40000000       0.21911674 </v>
   <v>      -0.00000703       0.39997154       0.65735022 </v>
   <v>       0.00000000       0.60000000       0.21911674 </v>
   <v>       0.79998998       0.39998934       0.65735022 </v>
   <v>      -0.00000503       0.60001762       0.65735022 </v>
   <v>       0.80000000       0.60000000       0.21911674 </v>
   <v>       0.80000000       0.40000000       0.21911674 </v>
   <v>      -0.00000835       0.79999617       0.65735022 </v>
   <v>       0.00000000       0.80000000       0.21911674 </v>
   <v>       0.80001004       0.19999538       0.65735022 </v>
   <v>       0.93333333       0.06666667       0.16985794 </v>
   <v>       0.73334060       0.26666243       0.60809141 </v>
   <v>       0.73333165       0.26666264       0.70660902 </v>
   <v>       0.93333213       0.66666925       0.70660902 </v>
   <v>       0.93333701       0.66667353       0.60809141 </v>
   <v>       0.73333333       0.26666667       0.16985794 </v>
   <v>       0.73333333       0.26666667       0.26837554 </v>
   <v>       0.93333333       0.46666667       0.26837554 </v>
   <v>       0.73334171       0.06666803       0.60809141 </v>
   <v>       0.73333672       0.06666766       0.70660902 </v>
   <v>       0.93333445       0.06666843       0.70660902 </v>
   <v>       0.93333333       0.86666667       0.16985794 </v>
   <v>       0.73333333       0.06666667       0.16985794 </v>
   <v>       0.93334462       0.06667399       0.60809141 </v>
   <v>       0.73333333       0.06666667       0.26837554 </v>
   <v>       0.93333333       0.26666667       0.16985794 </v>
   <v>       0.93333355       0.26666440       0.70660902 </v>
   <v>       0.93333333       0.86666667       0.26837554 </v>
   <v>       0.73333333       0.46666667       0.26837554 </v>
   <v>       0.73333333       0.46666667       0.16985794 </v>
   <v>       0.73333333       0.86666667       0.16985794 </v>
   <v>       0.73333424       0.86666759       0.70660902 </v>
   <v>       0.73333333       0.86666667       0.26837554 </v>
   <v>       0.93333333       0.46666667       0.16985794 </v>
   <v>       0.73334273       0.86667623       0.60809141 </v>
   <v>       0.73333518       0.66666656       0.60809141 </v>
   <v>       0.73333156       0.66666869       0.70660902 </v>
   <v>       0.93333234       0.46666372       0.70660902 </v>
   <v>       0.73333333       0.66666667       0.16985794 </v>
   <v>       0.93333464       0.46666504       0.60809141 </v>
   <v>       0.73333333       0.66666667       0.26837554 </v>
   <v>       0.93333921       0.26666035       0.60809141 </v>
   <v>       0.93333333       0.26666667       0.26837554 </v>
   <v>       0.73333640       0.46667358       0.60809141 </v>
   <v>       0.73333135       0.46666565       0.70660902 </v>
   <v>       0.93333333       0.66666667       0.26837554 </v>
   <v>       0.93333333       0.06666667       0.26837554 </v>
   <v>       0.93333333       0.66666667       0.16985794 </v>
   <v>       0.53334051       0.86667367       0.60809141 </v>
   <v>       0.53333923       0.06667089       0.70660902 </v>
   <v>       0.53333333       0.86666667       0.16985794 </v>
   <v>       0.33333333       0.26666667       0.16985794 </v>
   <v>       0.33333333       0.26666667       0.26837554 </v>
   <v>       0.33331965       0.06667143       0.60809141 </v>
   <v>       0.33333130       0.06667005       0.70660902 </v>
   <v>       0.33333333       0.06666667       0.16985794 </v>
   <v>       0.33333333       0.06666667       0.26837554 </v>
   <v>       0.13333210       0.86667517       0.60809141 </v>
   <v>       0.13333270       0.86666879       0.70660902 </v>
   <v>       0.13333333       0.86666667       0.16985794 </v>
   <v>       0.13333333       0.86666667       0.26837554 </v>
   <v>       0.13332851       0.66666727       0.60809141 </v>
   <v>       0.13333069       0.66666653       0.70660902 </v>
   <v>       0.33333437       0.26667048       0.70660902 </v>
   <v>       0.13333333       0.66666667       0.16985794 </v>
   <v>       0.13332838       0.46665446       0.60809141 </v>
   <v>       0.13333188       0.46665829       0.70660902 </v>
   <v>       0.13333333       0.46666667       0.16985794 </v>
   <v>       0.13333333       0.46666667       0.26837554 </v>
   <v>       0.13333630       0.26665553       0.60809141 </v>
   <v>       0.13333343       0.26666392       0.70660902 </v>
   <v>       0.13333333       0.26666667       0.16985794 </v>
   <v>       0.13333333       0.26666667       0.26837554 </v>
   <v>       0.13333615       0.06667657       0.60809141 </v>
   <v>       0.13333388       0.06667304       0.70660902 </v>
   <v>       0.13333333       0.06666667       0.16985794 </v>
   <v>       0.13333333       0.06666667       0.26837554 </v>
   <v>       0.13333333       0.66666667       0.26837554 </v>
   <v>       0.33332481       0.26665424       0.60809141 </v>
   <v>       0.33333333       0.46666667       0.26837554 </v>
   <v>       0.33333333       0.46666667       0.16985794 </v>
   <v>       0.53333333       0.86666667       0.26837554 </v>
   <v>       0.53334051       0.66666800       0.60809141 </v>
   <v>       0.53333962       0.66666919       0.70660902 </v>
   <v>       0.53333333       0.66666667       0.16985794 </v>
   <v>       0.53333333       0.66666667       0.26837554 </v>
   <v>       0.53330993       0.46663123       0.60809141 </v>
   <v>       0.53332556       0.46666000       0.70660902 </v>
   <v>       0.53333333       0.46666667       0.16985794 </v>
   <v>       0.53333333       0.46666667       0.26837554 </v>
   <v>       0.53330321       0.26667906       0.60809141 </v>
   <v>       0.53333003       0.26666738       0.70660902 </v>
   <v>       0.53333333       0.26666667       0.16985794 </v>
   <v>       0.53333333       0.26666667       0.26837554 </v>
   <v>       0.53333543       0.06666452       0.60809141 </v>
   <v>       0.93333246       0.86666662       0.70660902 </v>
   <v>       0.53333333       0.06666667       0.16985794 </v>
   <v>       0.53333333       0.06666667       0.26837554 </v>
   <v>       0.33332989       0.86667309       0.60809141 </v>
   <v>       0.33333298       0.86666930       0.70660902 </v>
   <v>       0.33333333       0.86666667       0.16985794 </v>
   <v>       0.33333333       0.86666667       0.26837554 </v>
   <v>       0.33332892       0.66666481       0.60809141 </v>
   <v>       0.33333596       0.66666600       0.70660902 </v>
   <v>       0.33333333       0.66666667       0.16985794 </v>
   <v>       0.33333333       0.66666667       0.26837554 </v>
   <v>       0.33333209       0.46665489       0.60809141 </v>
   <v>       0.33333179       0.46665738       0.70660902 </v>
   <v>       0.53333830       0.86666854       0.70660902 </v>
   <v>       0.93334281       0.86667614       0.60809141 </v>
  </varray>
  <varray name="selective"  type="logical" >
   <v type="logical" >  T  T  F </v>
   <v type="logical" >  T  T  F </v>
   <v type="logical" >  T  T  F </v>
   <v type="logical" >  T  T  F </v>
   <v type="logical" >  T  T  F </v>
   <v type="logical" >  T  T  F </v>
   <v type="logical" >  T  T  F </v>
   <v type="logical" >  T  T  F </v>
   <v type="logical" >  T  T  F </v>
   <v type="logical" >  T  T  F </v>
   <v type="logical" >  T  T  F </v>
   <v type="logical" >  T  T  F </v>
   <v type="logical" >  T  T  F </v>
   <v type="logical" >  T  T  F </v>
   <v type="logical" >  T  T  F </v>
   <v type="logical" >  T  T  F </v>
   <v type="logical" >  T  T  F </v>
   <v type="logical" >  T  T  F </v>
   <v type="logical" >  T  T  F </v>
   <v type="logical" >  T  T  F </v>
   <v type="logical" >  T  T  F </v>
   <v type="logical" >  T  T  F </v>
   <v type="logical" >  F  F  F </v>
   <v type="logical" >  T  T  F </v>
   <v type="logical" >  F  F  F </v>
   <v type="logical" >  F  F  F </v>
   <v type="logical" >  T  T  F </v>
   <v type="logical" >  F  F  F </v>
   <v type="logical" >  F  F  F </v>
   <v type="logical" >  T  T  F </v>
   <v type="logical" >  T  T  F </v>
   <v type="logical" >  F  F  F </v>
   <v type="logical" >  T  T  F </v>
   <v type="logical" >  T  T  F </v>
   <v type="logical" >  F  F  F </v>
   <v type="logical" >  F  F  F </v>
   <v type="logical" >  T  T  F </v>
   <v type="logical" >  T  T  F </v>
   <v type="logical" >  F  F  F </v>
   <v type="logical" >  F  F  F </v>
   <v type="logical" >  T  T  F </v>
   <v type="logical" >  F  F  F </v>
   <v type="logical" >  T  T  F </v>
   <v type="logical" >  T  T  F </v>
   <v type="logical" >  F  F  F </v>
   <v type="logical" >  T  T  F </v>
   <v type="logical" >  T  T  F </v>
   <v type="logical" >  T  T  F </v>
   <v type="logical" >  F  F  F </v>
   <v type="logical" >  F  F  F </v>
   <v type="logical" >  F  F  F </v>
   <v type="logical" >  F  F  F </v>
   <v type="logical" >  T  T  F </v>
   <v type="logical" >  F  F  F </v>
   <v type="logical" >  F  F  F </v>
   <v type="logical" >  T  T  F </v>
   <v type="logical" >  T  T  F </v>
   <v type="logical" >  F  F  F </v>
   <v type="logical" >  F  F  F </v>
   <v type="logical" >  T  T  F </v>
   <v type="logical" >  T  T  F </v>
   <v type="logical" >  F  F  F </v>
   <v type="logical" >  T  T  F </v>
   <v type="logical" >  F  F  F </v>
   <v type="logical" >  T  T  F </v>
   <v type="logical" >  T  T  F </v>
   <v type="logical" >  F  F  F </v>
   <v type="logical" >  F  F  F </v>
   <v type="logical" >  T  T  F </v>
   <v type="logical" >  F  F  F </v>
   <v type="logical" >  T  T  F </v>
   <v type="logical" >  F  F  F </v>
   <v type="logical" >  T  T  F </v>
   <v type="logical" >  T  T  F </v>
   <v type="logical" >  T  T  F </v>
   <v type="logical" >  T  T  F </v>
   <v type="logical" >  F  F  F </v>
   <v type="logical" >  F  F  F </v>
   <v type="logical" >  F  F  F </v>
   <v type="logical" >  T  T  F </v>
   <v type="logical" >  T  T  F </v>
   <v type="logical" >  T  T  F </v>
   <v type="logical" >  F  F  F </v>
   <v type="logical" >  F  F  F </v>
   <v type="logical" >  T  T  F </v>
   <v type="logical" >  F  F  F </v>
   <v type="logical" >  F  F  F </v>
   <v type="logical" >  T  T  F </v>
   <v type="logical" >  F  F  F </v>
   <v type="logical" >  F  F  F </v>
   <v type="logical" >  F  F  F </v>
   <v type="logical" >  F  F  F </v>
   <v type="logical" >  T  T  F </v>
   <v type="logical" >  F  F  F </v>
   <v type="logical" >  F  F  F </v>
   <v type="logical" >  T  T  F </v>
   <v type="logical" >  T  T  F </v>
   <v type="logical" >  T  T  F </v>
   <v type="logical" >  T  T  F </v>
   <v type="logical" >  F  F  F </v>
   <v type="logical" >  T  T  F </v>
   <v type="logical" >  F  F  F </v>
   <v type="logical" >  T  T  F </v>
   <v type="logical" >  F  F  F </v>
   <v type="logical" >  T  T  F </v>
   <v type="logical" >  T  T  F </v>
   <v type="logical" >  F  F  F </v>
   <v type="logical" >  F  F  F </v>
   <v type="logical" >  F  F  F </v>
   <v type="logical" >  T  T  F </v>
   <v type="logical" >  T  T  F </v>
   <v type="logical" >  F  F  F </v>
   <v type="logical" >  F  F  F </v>
   <v type="logical" >  F  F  F </v>
   <v type="logical" >  T  T  F </v>
   <v type="logical" >  T  T  F </v>
   <v type="logical" >  F  F  F </v>
   <v type="logical" >  F  F  F </v>
   <v type="logical" >  T  T  F </v>
   <v type="logical" >  T  T  F </v>
   <v type="logical" >  F  F  F </v>
   <v type="logical" >  F  F  F </v>
   <v type="logical" >  T  T  F </v>
   <v type="logical" >  T  T  F </v>
   <v type="logical" >  T  T  F </v>
   <v type="logical" >  F  F  F </v>
   <v type="logical" >  T  T  F </v>
   <v type="logical" >  T  T  F </v>
   <v type="logical" >  F  F  F </v>
   <v type="logical" >  F  F  F </v>
   <v type="logical" >  T  T  F </v>
   <v type="logical" >  T  T  F </v>
   <v type="logical" >  F  F  F </v>
   <v type="logical" >  F  F  F </v>
   <v type="logical" >  T  T  F </v>
   <v type="logical" >  T  T  F </v>
   <v type="logical" >  F  F  F </v>
   <v type="logical" >  F  F  F </v>
   <v type="logical" >  F  F  F </v>
   <v type="logical" >  T  T  F </v>
   <v type="logical" >  F  F  F </v>
   <v type="logical" >  F  F  F </v>
   <v type="logical" >  F  F  F </v>
   <v type="logical" >  T  T  F </v>
   <v type="logical" >  T  T  F </v>
   <v type="logical" >  F  F  F </v>
   <v type="logical" >  F  F  F </v>
   <v type="logical" >  T  T  F </v>
   <v type="logical" >  T  T  F </v>
   <v type="logical" >  F  F  F </v>
   <v type="logical" >  F  F  F </v>
   <v type="logical" >  T  T  F </v>
   <v type="logical" >  T  T  F </v>
   <v type="logical" >  F  F  F </v>
   <v type="logical" >  F  F  F </v>
   <v type="logical" >  T  T  F </v>
   <v type="logical" >  T  T  F </v>
   <v type="logical" >  F  F  F </v>
   <v type="logical" >  F  F  F </v>
   <v type="logical" >  T  T  F </v>
   <v type="logical" >  T  T  F </v>
   <v type="logical" >  F  F  F </v>
   <v type="logical" >  F  F  F </v>
   <v type="logical" >  T  T  F </v>
   <v type="logical" >  T  T  F </v>
   <v type="logical" >  F  F  F </v>
   <v type="logical" >  F  F  F </v>
   <v type="logical" >  T  T  F </v>
   <v type="logical" >  T  T  F </v>
   <v type="logical" >  T  T  F </v>
   <v type="logical" >  T  T  F </v>
  </varray>
  <nose>
   <v>      -3.00000000       0.00000000       0.00010000       0.00010000 </v>
  </nose>
 </structure>
</modeling>
