basalPlane                              
           1
    15.900000    0.000000    0.000000
    -7.950000   13.769804    0.000000
     0.000000    0.000000   32.380000
   C    Cr   H    Mo   S 
  10   1  10  50 100
Direct configuration=     1
   0.55102116  0.46320607  0.38446043
   0.59808749  0.45656634  0.42064827
   0.52124844  0.53306569  0.39153600
   0.55048848  0.57083785  0.43272052
   0.59826258  0.52269299  0.45079074
   0.36236612  0.27374240  0.45268011
   0.34979214  0.39591113  0.48661716
   0.39024283  0.33292403  0.48951924
   0.29754474  0.37557172  0.44871357
   0.30518588  0.30100478  0.42772156
   0.45151254  0.42187640  0.43762887
   0.63006233  0.53534346  0.48148684
   0.43181228  0.32876290  0.51530181
   0.37950795  0.21716916  0.44550273
   0.35868000  0.45062328  0.50906846
   0.26238147  0.41429240  0.43680163
   0.62595191  0.40715343  0.42516044
   0.53604025  0.41892639  0.35684994
   0.48261535  0.55344962  0.36966425
   0.54109685  0.62747041  0.44702900
   0.27501242  0.27181059  0.39744457
   0.60000000  0.60000000  0.65735022
   0.20000000  0.80000000  0.21911674
   0.20000000  0.60000000  0.65735022
   0.60000000  0.80000000  0.21911674
   0.20000000  0.60000000  0.21911674
   0.60000000  0.80000000  0.65735022
   0.20000000  0.40000000  0.21911674
   0.80000000  0.00000000  0.21911674
   0.20000000  0.20000000  0.65735022
   0.80000000  0.00000000  0.65735022
   0.20000000  0.20000000  0.21911674
   0.20000000  0.80000000  0.65735022
   0.20000000  0.40000000  0.65735022
   0.60000000  0.60000000  0.21911674
   0.40000000  0.60000000  0.21911674
   0.40000000  0.00000000  0.65735022
   0.60000000  0.40000000  0.65735022
   0.40000000  0.20000000  0.21911674
   0.60000000  0.40000000  0.21911674
   0.40000000  0.20000000  0.65735022
   0.40000000  0.40000000  0.21911674
   0.60000000  0.20000000  0.65735022
   0.40000000  0.40000000  0.65735022
   0.60000000  0.20000000  0.21911674
   0.40000000  0.80000000  0.65735022
   0.40000000  0.60000000  0.65735022
   0.60000000  0.00000000  0.65735022
   0.40000000  0.80000000  0.21911674
   0.60000000  0.00000000  0.21911674
   0.40000000  0.00000000  0.21911674
   0.80000000  0.20000000  0.21911674
   0.20000000  0.00000000  0.65735022
   0.20000000  0.00000000  0.21911674
   0.00000000  0.00000000  0.21911674
   0.80000000  0.80000000  0.65735022
   0.00000000  0.00000000  0.65735022
   0.80000000  0.80000000  0.21911674
   0.00000000  0.20000000  0.21911674
   0.00000000  0.20000000  0.65735022
   0.80000000  0.60000000  0.65735022
   0.00000000  0.40000000  0.21911674
   0.00000000  0.40000000  0.65735022
   0.00000000  0.60000000  0.21911674
   0.80000000  0.40000000  0.65735022
   0.00000000  0.60000000  0.65735022
   0.80000000  0.60000000  0.21911674
   0.80000000  0.40000000  0.21911674
   0.00000000  0.80000000  0.65735022
   0.00000000  0.80000000  0.21911674
   0.80000000  0.20000000  0.65735022
   0.93333333  0.06666667  0.16985794
   0.73333333  0.26666667  0.60809141
   0.73333333  0.26666667  0.70660902
   0.93333333  0.66666667  0.70660902
   0.93333333  0.66666667  0.60809141
   0.73333333  0.26666667  0.16985794
   0.73333333  0.26666667  0.26837554
   0.93333333  0.46666667  0.26837554
   0.73333333  0.06666667  0.60809141
   0.73333333  0.06666667  0.70660902
   0.93333333  0.06666667  0.70660902
   0.93333333  0.86666667  0.16985794
   0.73333333  0.06666667  0.16985794
   0.93333333  0.06666667  0.60809141
   0.73333333  0.06666667  0.26837554
   0.93333333  0.26666667  0.16985794
   0.93333333  0.26666667  0.70660902
   0.93333333  0.86666667  0.26837554
   0.73333333  0.46666667  0.26837554
   0.73333333  0.46666667  0.16985794
   0.73333333  0.86666667  0.16985794
   0.73333333  0.86666667  0.70660902
   0.73333333  0.86666667  0.26837554
   0.93333333  0.46666667  0.16985794
   0.73333333  0.86666667  0.60809141
   0.73333333  0.66666667  0.60809141
   0.73333333  0.66666667  0.70660902
   0.93333333  0.46666667  0.70660902
   0.73333333  0.66666667  0.16985794
   0.93333333  0.46666667  0.60809141
   0.73333333  0.66666667  0.26837554
   0.93333333  0.26666667  0.60809141
   0.93333333  0.26666667  0.26837554
   0.73333333  0.46666667  0.60809141
   0.73333333  0.46666667  0.70660902
   0.93333333  0.66666667  0.26837554
   0.93333333  0.06666667  0.26837554
   0.93333333  0.66666667  0.16985794
   0.53333333  0.86666667  0.60809141
   0.53333333  0.06666667  0.70660902
   0.53333333  0.86666667  0.16985794
   0.33333333  0.26666667  0.16985794
   0.33333333  0.26666667  0.26837554
   0.33333333  0.06666667  0.60809141
   0.33333333  0.06666667  0.70660902
   0.33333333  0.06666667  0.16985794
   0.33333333  0.06666667  0.26837554
   0.13333333  0.86666667  0.60809141
   0.13333333  0.86666667  0.70660902
   0.13333333  0.86666667  0.16985794
   0.13333333  0.86666667  0.26837554
   0.13333333  0.66666667  0.60809141
   0.13333333  0.66666667  0.70660902
   0.33333333  0.26666667  0.70660902
   0.13333333  0.66666667  0.16985794
   0.13333333  0.46666667  0.60809141
   0.13333333  0.46666667  0.70660902
   0.13333333  0.46666667  0.16985794
   0.13333333  0.46666667  0.26837554
   0.13333333  0.26666667  0.60809141
   0.13333333  0.26666667  0.70660902
   0.13333333  0.26666667  0.16985794
   0.13333333  0.26666667  0.26837554
   0.13333333  0.06666667  0.60809141
   0.13333333  0.06666667  0.70660902
   0.13333333  0.06666667  0.16985794
   0.13333333  0.06666667  0.26837554
   0.13333333  0.66666667  0.26837554
   0.33333333  0.26666667  0.60809141
   0.33333333  0.46666667  0.26837554
   0.33333333  0.46666667  0.16985794
   0.53333333  0.86666667  0.26837554
   0.53333333  0.66666667  0.60809141
   0.53333333  0.66666667  0.70660902
   0.53333333  0.66666667  0.16985794
   0.53333333  0.66666667  0.26837554
   0.53333333  0.46666667  0.60809141
   0.53333333  0.46666667  0.70660902
   0.53333333  0.46666667  0.16985794
   0.53333333  0.46666667  0.26837554
   0.53333333  0.26666667  0.60809141
   0.53333333  0.26666667  0.70660902
   0.53333333  0.26666667  0.16985794
   0.53333333  0.26666667  0.26837554
   0.53333333  0.06666667  0.60809141
   0.93333333  0.86666667  0.70660902
   0.53333333  0.06666667  0.16985794
   0.53333333  0.06666667  0.26837554
   0.33333333  0.86666667  0.60809141
   0.33333333  0.86666667  0.70660902
   0.33333333  0.86666667  0.16985794
   0.33333333  0.86666667  0.26837554
   0.33333333  0.66666667  0.60809141
   0.33333333  0.66666667  0.70660902
   0.33333333  0.66666667  0.16985794
   0.33333333  0.66666667  0.26837554
   0.33333333  0.46666667  0.60809141
   0.33333333  0.46666667  0.70660902
   0.53333333  0.86666667  0.70660902
   0.93333333  0.86666667  0.60809141
Direct configuration=     2
   0.55123241  0.46359209  0.38446043
   0.59761063  0.45631181  0.42064827
   0.52108244  0.53272699  0.39153600
   0.55027346  0.57039805  0.43272052
   0.59786506  0.52252886  0.45079074
   0.36271420  0.27422364  0.45268011
   0.34970382  0.39554257  0.48661716
   0.39036885  0.33336203  0.48951924
   0.29788810  0.37574362  0.44871357
   0.30538104  0.30125879  0.42772156
   0.45163623  0.42173919  0.43762887
   0.63002678  0.53527965  0.48148684
   0.43180359  0.32878929  0.51530181
   0.37950544  0.21722785  0.44550273
   0.35869911  0.45064970  0.50906846
   0.26234921  0.41420611  0.43680163
   0.62598885  0.40719228  0.42516044
   0.53598647  0.41890556  0.35684994
   0.48265719  0.55347351  0.36966425
   0.54107721  0.62740205  0.44702900
   0.27503245  0.27183328  0.39744457
   0.60001967  0.60002753  0.65735022
   0.20000000  0.80000000  0.21911674
   0.20000916  0.59999914  0.65735022
   0.60000000  0.80000000  0.21911674
   0.20000000  0.60000000  0.21911674
   0.60000696  0.80000641  0.65735022
   0.20000000  0.40000000  0.21911674
   0.80000000  0.00000000  0.21911674
   0.20000689  0.20000893  0.65735022
   0.80000047  0.00000412  0.65735022
   0.20000000  0.20000000  0.21911674
   0.19999923  0.80000101  0.65735022
   0.19998091  0.39997646  0.65735022
   0.60000000  0.60000000  0.21911674
   0.40000000  0.60000000  0.21911674
   0.39998866  0.00000608  0.65735022
   0.60000501  0.39999419  0.65735022
   0.40000000  0.20000000  0.21911674
   0.60000000  0.40000000  0.21911674
   0.39998146  0.20000568  0.65735022
   0.40000000  0.40000000  0.21911674
   0.60001279  0.20000169  0.65735022
   0.39997309  0.39995579  0.65735022
   0.60000000  0.20000000  0.21911674
   0.40000166  0.79999279  0.65735022
   0.40000619  0.60001566  0.65735022
   0.60002311  0.00000274  0.65735022
   0.40000000  0.80000000  0.21911674
   0.60000000  0.00000000  0.21911674
   0.40000000  0.00000000  0.21911674
   0.80000000  0.20000000  0.21911674
   0.20000298  0.00001217  0.65735022
   0.20000000  0.00000000  0.21911674
   0.00000000  0.00000000  0.21911674
   0.79999901  0.80000110  0.65735022
   0.00000062  0.00000218  0.65735022
   0.80000000  0.80000000  0.21911674
   0.00000000  0.20000000  0.21911674
   0.00000182  0.20000500  0.65735022
   0.80000126  0.60000628  0.65735022
   0.00000000  0.40000000  0.21911674
  -0.00000281  0.39997646  0.65735022
   0.00000000  0.60000000  0.21911674
   0.79999112  0.39999033  0.65735022
  -0.00000385  0.60001428  0.65735022
   0.80000000  0.60000000  0.21911674
   0.80000000  0.40000000  0.21911674
  -0.00000671  0.79999630  0.65735022
   0.00000000  0.80000000  0.21911674
   0.80000498  0.19999583  0.65735022
   0.93333333  0.06666667  0.16985794
   0.73333762  0.26666434  0.60809141
   0.73333187  0.26666564  0.70660902
   0.93333443  0.66666732  0.70660902
   0.93333836  0.66667026  0.60809141
   0.73333333  0.26666667  0.16985794
   0.73333333  0.26666667  0.26837554
   0.93333333  0.46666667  0.26837554
   0.73333648  0.06666690  0.60809141
   0.73333355  0.06666663  0.70660902
   0.93333371  0.06666679  0.70660902
   0.93333333  0.86666667  0.16985794
   0.73333333  0.06666667  0.16985794
   0.93333758  0.06666907  0.60809141
   0.73333333  0.06666667  0.26837554
   0.93333333  0.26666667  0.16985794
   0.93333443  0.26666731  0.70660902
   0.93333333  0.86666667  0.26837554
   0.73333333  0.46666667  0.26837554
   0.73333333  0.46666667  0.16985794
   0.73333333  0.86666667  0.16985794
   0.73333347  0.86666643  0.70660902
   0.73333333  0.86666667  0.26837554
   0.93333333  0.46666667  0.16985794
   0.73333874  0.86667263  0.60809141
   0.73333484  0.66666622  0.60809141
   0.73333160  0.66666614  0.70660902
   0.93333363  0.46666595  0.70660902
   0.73333333  0.66666667  0.16985794
   0.93333525  0.46666676  0.60809141
   0.73333333  0.66666667  0.26837554
   0.93333597  0.26666454  0.60809141
   0.93333333  0.26666667  0.26837554
   0.73333612  0.46667037  0.60809141
   0.73333196  0.46666565  0.70660902
   0.93333333  0.66666667  0.26837554
   0.93333333  0.06666667  0.26837554
   0.93333333  0.66666667  0.16985794
   0.53333691  0.86667149  0.60809141
   0.53333530  0.06666911  0.70660902
   0.53333333  0.86666667  0.16985794
   0.33333333  0.26666667  0.16985794
   0.33333333  0.26666667  0.26837554
   0.33332767  0.06666594  0.60809141
   0.33333425  0.06666744  0.70660902
   0.33333333  0.06666667  0.16985794
   0.33333333  0.06666667  0.26837554
   0.13333271  0.86666942  0.60809141
   0.13333355  0.86666716  0.70660902
   0.13333333  0.86666667  0.16985794
   0.13333333  0.86666667  0.26837554
   0.13333113  0.66666731  0.60809141
   0.13333252  0.66666651  0.70660902
   0.33333557  0.26666932  0.70660902
   0.13333333  0.66666667  0.16985794
   0.13332951  0.46666250  0.60809141
   0.13333320  0.46666427  0.70660902
   0.13333333  0.46666667  0.16985794
   0.13333333  0.46666667  0.26837554
   0.13333320  0.26666097  0.60809141
   0.13333552  0.26666755  0.70660902
   0.13333333  0.26666667  0.16985794
   0.13333333  0.26666667  0.26837554
   0.13333406  0.06666898  0.60809141
   0.13333452  0.06666862  0.70660902
   0.13333333  0.06666667  0.16985794
   0.13333333  0.06666667  0.26837554
   0.13333333  0.66666667  0.26837554
   0.33332589  0.26665533  0.60809141
   0.33333333  0.46666667  0.26837554
   0.33333333  0.46666667  0.16985794
   0.53333333  0.86666667  0.26837554
   0.53333641  0.66666692  0.60809141
   0.53333515  0.66666530  0.70660902
   0.53333333  0.66666667  0.16985794
   0.53333333  0.66666667  0.26837554
   0.53332788  0.46665331  0.60809141
   0.53333135  0.46666479  0.70660902
   0.53333333  0.46666667  0.16985794
   0.53333333  0.46666667  0.26837554
   0.53332115  0.26667243  0.60809141
   0.53333335  0.26666790  0.70660902
   0.53333333  0.26666667  0.16985794
   0.53333333  0.26666667  0.26837554
   0.53333372  0.06666452  0.60809141
   0.93333352  0.86666674  0.70660902
   0.53333333  0.06666667  0.16985794
   0.53333333  0.06666667  0.26837554
   0.33333233  0.86666974  0.60809141
   0.33333407  0.86666795  0.70660902
   0.33333333  0.86666667  0.16985794
   0.33333333  0.86666667  0.26837554
   0.33333038  0.66666731  0.60809141
   0.33333406  0.66666630  0.70660902
   0.33333333  0.66666667  0.16985794
   0.33333333  0.66666667  0.26837554
   0.33333495  0.46666729  0.60809141
   0.33333458  0.46666441  0.70660902
   0.53333534  0.86666750  0.70660902
   0.93333900  0.86667174  0.60809141
Direct configuration=     3
   0.55109904  0.46334839  0.38446043
   0.59791168  0.45647250  0.42064827
   0.52118724  0.53294082  0.39153600
   0.55040920  0.57067570  0.43272052
   0.59811602  0.52263248  0.45079074
   0.36249445  0.27391983  0.45268011
   0.34975958  0.39577525  0.48661716
   0.39028929  0.33308552  0.48951924
   0.29767133  0.37563510  0.44871357
   0.30525784  0.30109843  0.42772156
   0.45155814  0.42182581  0.43762887
   0.63004922  0.53531993  0.48148684
   0.43180907  0.32877263  0.51530181
   0.37950702  0.21719080  0.44550273
   0.35868705  0.45063302  0.50906846
   0.26236958  0.41426059  0.43680163
   0.62596553  0.40716776  0.42516044
   0.53602042  0.41891871  0.35684994
   0.48263078  0.55345843  0.36966425
   0.54108961  0.62744521  0.44702900
   0.27501980  0.27181896  0.39744457
   0.60000725  0.60001015  0.65735022
   0.20000000  0.80000000  0.21911674
   0.20000338  0.59999968  0.65735022
   0.60000000  0.80000000  0.21911674
   0.20000000  0.60000000  0.21911674
   0.60000257  0.80000236  0.65735022
   0.20000000  0.40000000  0.21911674
   0.80000000  0.00000000  0.21911674
   0.20000254  0.20000329  0.65735022
   0.80000017  0.00000152  0.65735022
   0.20000000  0.20000000  0.21911674
   0.19999971  0.80000037  0.65735022
   0.19999296  0.39999132  0.65735022
   0.60000000  0.60000000  0.21911674
   0.40000000  0.60000000  0.21911674
   0.39999582  0.00000224  0.65735022
   0.60000185  0.39999786  0.65735022
   0.40000000  0.20000000  0.21911674
   0.60000000  0.40000000  0.21911674
   0.39999316  0.20000209  0.65735022
   0.40000000  0.40000000  0.21911674
   0.60000471  0.20000062  0.65735022
   0.39999008  0.39998370  0.65735022
   0.60000000  0.20000000  0.21911674
   0.40000061  0.79999734  0.65735022
   0.40000228  0.60000577  0.65735022
   0.60000852  0.00000101  0.65735022
   0.40000000  0.80000000  0.21911674
   0.60000000  0.00000000  0.21911674
   0.40000000  0.00000000  0.21911674
   0.80000000  0.20000000  0.21911674
   0.20000110  0.00000449  0.65735022
   0.20000000  0.00000000  0.21911674
   0.00000000  0.00000000  0.21911674
   0.79999964  0.80000041  0.65735022
   0.00000023  0.00000080  0.65735022
   0.80000000  0.80000000  0.21911674
   0.00000000  0.20000000  0.21911674
   0.00000067  0.20000184  0.65735022
   0.80000046  0.60000231  0.65735022
   0.00000000  0.40000000  0.21911674
  -0.00000104  0.39999132  0.65735022
   0.00000000  0.60000000  0.21911674
   0.79999673  0.39999644  0.65735022
  -0.00000142  0.60000527  0.65735022
   0.80000000  0.60000000  0.21911674
   0.80000000  0.40000000  0.21911674
  -0.00000247  0.79999863  0.65735022
   0.00000000  0.80000000  0.21911674
   0.80000184  0.19999846  0.65735022
   0.93333333  0.06666667  0.16985794
   0.73333491  0.26666581  0.60809141
   0.73333279  0.26666629  0.70660902
   0.93333374  0.66666691  0.70660902
   0.93333519  0.66666799  0.60809141
   0.73333333  0.26666667  0.16985794
   0.73333333  0.26666667  0.26837554
   0.93333333  0.46666667  0.26837554
   0.73333449  0.06666675  0.60809141
   0.73333341  0.06666665  0.70660902
   0.93333347  0.06666671  0.70660902
   0.93333333  0.86666667  0.16985794
   0.73333333  0.06666667  0.16985794
   0.93333490  0.06666755  0.60809141
   0.73333333  0.06666667  0.26837554
   0.93333333  0.26666667  0.16985794
   0.93333374  0.26666690  0.70660902
   0.93333333  0.86666667  0.26837554
   0.73333333  0.46666667  0.26837554
   0.73333333  0.46666667  0.16985794
   0.73333333  0.86666667  0.16985794
   0.73333338  0.86666658  0.70660902
   0.73333333  0.86666667  0.26837554
   0.93333333  0.46666667  0.16985794
   0.73333533  0.86666887  0.60809141
   0.73333389  0.66666650  0.60809141
   0.73333269  0.66666647  0.70660902
   0.93333344  0.46666640  0.70660902
   0.73333333  0.66666667  0.16985794
   0.93333404  0.46666670  0.60809141
   0.73333333  0.66666667  0.26837554
   0.93333431  0.26666588  0.60809141
   0.93333333  0.26666667  0.26837554
   0.73333436  0.46666803  0.60809141
   0.73333283  0.46666629  0.70660902
   0.93333333  0.66666667  0.26837554
   0.93333333  0.06666667  0.26837554
   0.93333333  0.66666667  0.16985794
   0.53333465  0.86666844  0.60809141
   0.53333406  0.06666757  0.70660902
   0.53333333  0.86666667  0.16985794
   0.33333333  0.26666667  0.16985794
   0.33333333  0.26666667  0.26837554
   0.33333125  0.06666640  0.60809141
   0.33333367  0.06666695  0.70660902
   0.33333333  0.06666667  0.16985794
   0.33333333  0.06666667  0.26837554
   0.13333310  0.86666768  0.60809141
   0.13333341  0.86666685  0.70660902
   0.13333333  0.86666667  0.16985794
   0.13333333  0.86666667  0.26837554
   0.13333252  0.66666690  0.60809141
   0.13333303  0.66666661  0.70660902
   0.33333416  0.26666764  0.70660902
   0.13333333  0.66666667  0.16985794
   0.13333192  0.46666513  0.60809141
   0.13333328  0.46666578  0.70660902
   0.13333333  0.46666667  0.16985794
   0.13333333  0.46666667  0.26837554
   0.13333328  0.26666456  0.60809141
   0.13333414  0.26666699  0.70660902
   0.13333333  0.26666667  0.16985794
   0.13333333  0.26666667  0.26837554
   0.13333360  0.06666752  0.60809141
   0.13333377  0.06666739  0.70660902
   0.13333333  0.06666667  0.16985794
   0.13333333  0.06666667  0.26837554
   0.13333333  0.66666667  0.26837554
   0.33333059  0.26666249  0.60809141
   0.33333333  0.46666667  0.26837554
   0.33333333  0.46666667  0.16985794
   0.53333333  0.86666667  0.26837554
   0.53333447  0.66666676  0.60809141
   0.53333400  0.66666616  0.70660902
   0.53333333  0.66666667  0.16985794
   0.53333333  0.66666667  0.26837554
   0.53333132  0.46666174  0.60809141
   0.53333260  0.46666598  0.70660902
   0.53333333  0.46666667  0.16985794
   0.53333333  0.46666667  0.26837554
   0.53332884  0.26666879  0.60809141
   0.53333334  0.26666712  0.70660902
   0.53333333  0.26666667  0.16985794
   0.53333333  0.26666667  0.26837554
   0.53333348  0.06666587  0.60809141
   0.93333340  0.86666669  0.70660902
   0.53333333  0.06666667  0.16985794
   0.53333333  0.06666667  0.26837554
   0.33333296  0.86666780  0.60809141
   0.33333361  0.86666714  0.70660902
   0.33333333  0.86666667  0.16985794
   0.33333333  0.86666667  0.26837554
   0.33333224  0.66666690  0.60809141
   0.33333360  0.66666653  0.70660902
   0.33333333  0.66666667  0.16985794
   0.33333333  0.66666667  0.26837554
   0.33333393  0.46666690  0.60809141
   0.33333379  0.46666584  0.70660902
   0.53333407  0.86666697  0.70660902
   0.93333542  0.86666854  0.60809141
Direct configuration=     4
   0.55106608  0.46328816  0.38446043
   0.59798608  0.45651221  0.42064827
   0.52121314  0.53299367  0.39153600
   0.55044275  0.57074432  0.43272052
   0.59817805  0.52265809  0.45079074
   0.36244014  0.27384474  0.45268011
   0.34977336  0.39583276  0.48661716
   0.39026962  0.33301717  0.48951924
   0.29761776  0.37560827  0.44871357
   0.30522738  0.30105879  0.42772156
   0.45153884  0.42184722  0.43762887
   0.63005477  0.53532989  0.48148684
   0.43181043  0.32876851  0.51530181
   0.37950741  0.21718164  0.44550273
   0.35868407  0.45062890  0.50906846
   0.26237461  0.41427405  0.43680163
   0.62595977  0.40716170  0.42516044
   0.53602882  0.41892196  0.35684994
   0.48262425  0.55345470  0.36966425
   0.54109267  0.62745587  0.44702900
   0.27501668  0.27181542  0.39744457
   0.60000418  0.60000585  0.65735022
   0.20000000  0.80000000  0.21911674
   0.20000195  0.59999982  0.65735022
   0.60000000  0.80000000  0.21911674
   0.20000000  0.60000000  0.21911674
   0.60000148  0.80000136  0.65735022
   0.20000000  0.40000000  0.21911674
   0.80000000  0.00000000  0.21911674
   0.20000146  0.20000190  0.65735022
   0.80000010  0.00000088  0.65735022
   0.20000000  0.20000000  0.21911674
   0.19999984  0.80000021  0.65735022
   0.19999594  0.39999499  0.65735022
   0.60000000  0.60000000  0.21911674
   0.40000000  0.60000000  0.21911674
   0.39999759  0.00000129  0.65735022
   0.60000106  0.39999876  0.65735022
   0.40000000  0.20000000  0.21911674
   0.60000000  0.40000000  0.21911674
   0.39999606  0.20000121  0.65735022
   0.40000000  0.40000000  0.21911674
   0.60000272  0.20000036  0.65735022
   0.39999428  0.39999060  0.65735022
   0.60000000  0.20000000  0.21911674
   0.40000035  0.79999847  0.65735022
   0.40000132  0.60000333  0.65735022
   0.60000491  0.00000058  0.65735022
   0.40000000  0.80000000  0.21911674
   0.60000000  0.00000000  0.21911674
   0.40000000  0.00000000  0.21911674
   0.80000000  0.20000000  0.21911674
   0.20000063  0.00000259  0.65735022
   0.20000000  0.00000000  0.21911674
   0.00000000  0.00000000  0.21911674
   0.79999979  0.80000023  0.65735022
   0.00000013  0.00000046  0.65735022
   0.80000000  0.80000000  0.21911674
   0.00000000  0.20000000  0.21911674
   0.00000039  0.20000106  0.65735022
   0.80000027  0.60000133  0.65735022
   0.00000000  0.40000000  0.21911674
  -0.00000060  0.39999499  0.65735022
   0.00000000  0.60000000  0.21911674
   0.79999811  0.39999794  0.65735022
  -0.00000082  0.60000304  0.65735022
   0.80000000  0.60000000  0.21911674
   0.80000000  0.40000000  0.21911674
  -0.00000143  0.79999921  0.65735022
   0.00000000  0.80000000  0.21911674
   0.80000106  0.19999911  0.65735022
   0.93333333  0.06666667  0.16985794
   0.73333424  0.26666617  0.60809141
   0.73333302  0.26666645  0.70660902
   0.93333357  0.66666681  0.70660902
   0.93333440  0.66666743  0.60809141
   0.73333333  0.26666667  0.16985794
   0.73333333  0.26666667  0.26837554
   0.93333333  0.46666667  0.26837554
   0.73333400  0.06666672  0.60809141
   0.73333338  0.06666666  0.70660902
   0.93333341  0.06666669  0.70660902
   0.93333333  0.86666667  0.16985794
   0.73333333  0.06666667  0.16985794
   0.93333424  0.06666718  0.60809141
   0.73333333  0.06666667  0.26837554
   0.93333333  0.26666667  0.16985794
   0.93333357  0.26666680  0.70660902
   0.93333333  0.86666667  0.26837554
   0.73333333  0.46666667  0.26837554
   0.73333333  0.46666667  0.16985794
   0.73333333  0.86666667  0.16985794
   0.73333336  0.86666662  0.70660902
   0.73333333  0.86666667  0.26837554
   0.93333333  0.46666667  0.16985794
   0.73333448  0.86666793  0.60809141
   0.73333365  0.66666657  0.60809141
   0.73333296  0.66666655  0.70660902
   0.93333340  0.46666651  0.70660902
   0.73333333  0.66666667  0.16985794
   0.93333374  0.46666669  0.60809141
   0.73333333  0.66666667  0.26837554
   0.93333390  0.26666622  0.60809141
   0.93333333  0.26666667  0.26837554
   0.73333393  0.46666745  0.60809141
   0.73333304  0.46666645  0.70660902
   0.93333333  0.66666667  0.26837554
   0.93333333  0.06666667  0.26837554
   0.93333333  0.66666667  0.16985794
   0.53333409  0.86666769  0.60809141
   0.53333375  0.06666719  0.70660902
   0.53333333  0.86666667  0.16985794
   0.33333333  0.26666667  0.16985794
   0.33333333  0.26666667  0.26837554
   0.33333213  0.06666651  0.60809141
   0.33333353  0.06666683  0.70660902
   0.33333333  0.06666667  0.16985794
   0.33333333  0.06666667  0.26837554
   0.13333320  0.86666725  0.60809141
   0.13333338  0.86666677  0.70660902
   0.13333333  0.86666667  0.16985794
   0.13333333  0.86666667  0.26837554
   0.13333286  0.66666680  0.60809141
   0.13333316  0.66666663  0.70660902
   0.33333381  0.26666723  0.70660902
   0.13333333  0.66666667  0.16985794
   0.13333252  0.46666578  0.60809141
   0.13333330  0.46666616  0.70660902
   0.13333333  0.46666667  0.16985794
   0.13333333  0.46666667  0.26837554
   0.13333330  0.26666545  0.60809141
   0.13333380  0.26666685  0.70660902
   0.13333333  0.26666667  0.16985794
   0.13333333  0.26666667  0.26837554
   0.13333349  0.06666716  0.60809141
   0.13333359  0.06666708  0.70660902
   0.13333333  0.06666667  0.16985794
   0.13333333  0.06666667  0.26837554
   0.13333333  0.66666667  0.26837554
   0.33333175  0.26666426  0.60809141
   0.33333333  0.46666667  0.26837554
   0.33333333  0.46666667  0.16985794
   0.53333333  0.86666667  0.26837554
   0.53333399  0.66666672  0.60809141
   0.53333372  0.66666638  0.70660902
   0.53333333  0.66666667  0.16985794
   0.53333333  0.66666667  0.26837554
   0.53333217  0.46666383  0.60809141
   0.53333291  0.46666627  0.70660902
   0.53333333  0.46666667  0.16985794
   0.53333333  0.46666667  0.26837554
   0.53333074  0.26666789  0.60809141
   0.53333334  0.26666693  0.70660902
   0.53333333  0.26666667  0.16985794
   0.53333333  0.26666667  0.26837554
   0.53333342  0.06666621  0.60809141
   0.93333337  0.86666668  0.70660902
   0.53333333  0.06666667  0.16985794
   0.53333333  0.06666667  0.26837554
   0.33333312  0.86666732  0.60809141
   0.33333349  0.86666694  0.70660902
   0.33333333  0.86666667  0.16985794
   0.33333333  0.86666667  0.26837554
   0.33333270  0.66666680  0.60809141
   0.33333349  0.66666659  0.70660902
   0.33333333  0.66666667  0.16985794
   0.33333333  0.66666667  0.26837554
   0.33333368  0.46666680  0.60809141
   0.33333360  0.46666619  0.70660902
   0.53333376  0.86666684  0.70660902
   0.93333454  0.86666775  0.60809141
Direct configuration=     5
   0.55104352  0.46324693  0.38446043
   0.59803702  0.45653940  0.42064827
   0.52123087  0.53302985  0.39153600
   0.55046572  0.57079130  0.43272052
   0.59822051  0.52267562  0.45079074
   0.36240296  0.27379333  0.45268011
   0.34978280  0.39587212  0.48661716
   0.39025616  0.33297039  0.48951924
   0.29758108  0.37558991  0.44871357
   0.30520654  0.30103166  0.42772156
   0.45152563  0.42186187  0.43762887
   0.63005857  0.53533670  0.48148684
   0.43181136  0.32876569  0.51530181
   0.37950768  0.21717537  0.44550273
   0.35868202  0.45062608  0.50906846
   0.26237806  0.41428327  0.43680163
   0.62595582  0.40715755  0.42516044
   0.53603456  0.41892419  0.35684994
   0.48261978  0.55345215  0.36966425
   0.54109477  0.62746318  0.44702900
   0.27501454  0.27181300  0.39744457
   0.60000208  0.60000291  0.65735022
   0.20000000  0.80000000  0.21911674
   0.20000097  0.59999991  0.65735022
   0.60000000  0.80000000  0.21911674
   0.20000000  0.60000000  0.21911674
   0.60000074  0.80000068  0.65735022
   0.20000000  0.40000000  0.21911674
   0.80000000  0.00000000  0.21911674
   0.20000073  0.20000094  0.65735022
   0.80000005  0.00000044  0.65735022
   0.20000000  0.20000000  0.21911674
   0.19999992  0.80000011  0.65735022
   0.19999798  0.39999751  0.65735022
   0.60000000  0.60000000  0.21911674
   0.40000000  0.60000000  0.21911674
   0.39999880  0.00000064  0.65735022
   0.60000053  0.39999939  0.65735022
   0.40000000  0.20000000  0.21911674
   0.60000000  0.40000000  0.21911674
   0.39999804  0.20000060  0.65735022
   0.40000000  0.40000000  0.21911674
   0.60000135  0.20000018  0.65735022
   0.39999715  0.39999532  0.65735022
   0.60000000  0.20000000  0.21911674
   0.40000018  0.79999924  0.65735022
   0.40000066  0.60000166  0.65735022
   0.60000245  0.00000029  0.65735022
   0.40000000  0.80000000  0.21911674
   0.60000000  0.00000000  0.21911674
   0.40000000  0.00000000  0.21911674
   0.80000000  0.20000000  0.21911674
   0.20000031  0.00000129  0.65735022
   0.20000000  0.00000000  0.21911674
   0.00000000  0.00000000  0.21911674
   0.79999990  0.80000012  0.65735022
   0.00000007  0.00000023  0.65735022
   0.80000000  0.80000000  0.21911674
   0.00000000  0.20000000  0.21911674
   0.00000019  0.20000053  0.65735022
   0.80000013  0.60000066  0.65735022
   0.00000000  0.40000000  0.21911674
  -0.00000030  0.39999751  0.65735022
   0.00000000  0.60000000  0.21911674
   0.79999906  0.39999898  0.65735022
  -0.00000041  0.60000151  0.65735022
   0.80000000  0.60000000  0.21911674
   0.80000000  0.40000000  0.21911674
  -0.00000071  0.79999961  0.65735022
   0.00000000  0.80000000  0.21911674
   0.80000053  0.19999956  0.65735022
   0.93333333  0.06666667  0.16985794
   0.73333379  0.26666642  0.60809141
   0.73333318  0.26666656  0.70660902
   0.93333345  0.66666674  0.70660902
   0.93333387  0.66666705  0.60809141
   0.73333333  0.26666667  0.16985794
   0.73333333  0.26666667  0.26837554
   0.93333333  0.46666667  0.26837554
   0.73333367  0.06666669  0.60809141
   0.73333336  0.06666666  0.70660902
   0.93333337  0.06666668  0.70660902
   0.93333333  0.86666667  0.16985794
   0.73333333  0.06666667  0.16985794
   0.93333378  0.06666692  0.60809141
   0.73333333  0.06666667  0.26837554
   0.93333333  0.26666667  0.16985794
   0.93333345  0.26666673  0.70660902
   0.93333333  0.86666667  0.26837554
   0.73333333  0.46666667  0.26837554
   0.73333333  0.46666667  0.16985794
   0.73333333  0.86666667  0.16985794
   0.73333335  0.86666664  0.70660902
   0.73333333  0.86666667  0.26837554
   0.93333333  0.46666667  0.16985794
   0.73333391  0.86666730  0.60809141