 171 171   0   0
  0.4145774E+02  0.1590000E-08  0.1590000E-08  0.3238000E-08  0.5000000E-15
  1.000000000000000E-004
  CAR 
 basalPlane                              
      2.33085535    -19.06485690  301      0.25378774      1.00000000
    -19.065  0.0000E+00  0.0000E+00
    -18.994  0.0000E+00  0.0000E+00
    -18.922  0.0000E+00  0.0000E+00
    -18.851  0.0000E+00  0.0000E+00
    -18.780  0.0000E+00  0.0000E+00
    -18.708  0.0000E+00  0.0000E+00
    -18.637  0.7783E-18  0.5551E-19
    -18.566  0.1993E-14  0.1422E-15
    -18.494  0.1755E-11  0.1253E-12
    -18.423  0.5718E-09  0.4090E-10
    -18.352  0.6939E-07  0.4990E-08
    -18.280  0.3166E-05  0.2308E-06
    -18.209  0.5490E-04  0.4146E-05
    -18.138  0.3665E-03  0.3029E-04
    -18.066  0.9532E-03  0.9827E-04
    -17.995  0.9726E-03  0.1676E-03
    -17.924  0.3913E-03  0.1955E-03
    -17.852  0.9988E-04  0.2027E-03
    -17.781  0.3017E-03  0.2242E-03
    -17.710  0.8830E-03  0.2872E-03
    -17.638  0.1026E-02  0.3603E-03
    -17.567  0.4676E-03  0.3936E-03
    -17.496  0.8320E-04  0.3996E-03
    -17.425  0.5712E-05  0.4000E-03
    -17.353  0.1494E-06  0.4000E-03
    -17.282  0.1472E-08  0.4000E-03
    -17.211  0.5408E-11  0.4000E-03
    -17.139  0.7361E-14  0.4000E-03
    -17.068  0.3736E-17  0.4000E-03
    -16.997  0.0000E+00  0.4000E-03
    -16.925  0.0000E+00  0.4000E-03
    -16.854  0.0000E+00  0.4000E-03
    -16.783  0.0000E+00  0.4000E-03
    -16.711  0.0000E+00  0.4000E-03
    -16.640  0.0000E+00  0.4000E-03
    -16.569  0.0000E+00  0.4000E-03
    -16.497  0.0000E+00  0.4000E-03
    -16.426  0.0000E+00  0.4000E-03
    -16.355  0.0000E+00  0.4000E-03
    -16.283  0.0000E+00  0.4000E-03
    -16.212  0.3113E-18  0.4000E-03
    -16.141  0.6014E-15  0.4000E-03
    -16.069  0.6820E-12  0.4000E-03
    -15.998  0.2859E-09  0.4000E-03
    -15.927  0.4458E-07  0.4000E-03
    -15.856  0.2608E-05  0.4002E-03
    -15.784  0.5784E-04  0.4043E-03
    -15.713  0.4926E-03  0.4394E-03
    -15.642  0.1630E-02  0.5557E-03
    -15.570  0.2115E-02  0.7066E-03
    -15.499  0.1078E-02  0.7835E-03
    -15.428  0.2148E-03  0.7988E-03
    -15.356  0.1925E-04  0.8002E-03
    -15.285  0.9412E-04  0.8069E-03
    -15.214  0.1237E-02  0.8951E-03
    -15.142  0.6322E-02  0.1346E-02
    -15.071  0.1263E-01  0.2247E-02
    -15.000  0.9922E-02  0.2954E-02
    -14.928  0.3058E-02  0.3173E-02
    -14.857  0.3668E-03  0.3199E-02
    -14.786  0.1691E-04  0.3200E-02
    -14.714  0.3213E-06  0.3200E-02
    -14.643  0.1668E-05  0.3200E-02
    -14.572  0.4188E-04  0.3203E-02
    -14.500  0.4147E-03  0.3233E-02
    -14.429  0.1839E-02  0.3364E-02
    -14.358  0.5211E-02  0.3735E-02
    -14.286  0.1188E-01  0.4583E-02
    -14.215  0.1797E-01  0.5864E-02
    -14.144  0.1978E-01  0.7275E-02
    -14.073  0.1958E-01  0.8671E-02
    -14.001  0.1715E-01  0.9895E-02
    -13.930  0.1005E-01  0.1061E-01
    -13.859  0.5114E-02  0.1098E-01
    -13.787  0.1118E-01  0.1177E-01
    -13.716  0.2435E-01  0.1351E-01
    -13.645  0.3256E-01  0.1583E-01
    -13.573  0.2632E-01  0.1771E-01
    -13.502  0.1875E-01  0.1905E-01
    -13.431  0.1739E-01  0.2029E-01
    -13.359  0.1007E-01  0.2100E-01
    -13.288  0.2493E-02  0.2118E-01
    -13.217  0.2457E-03  0.2120E-01
    -13.145  0.9390E-05  0.2120E-01
    -13.074  0.1368E-06  0.2120E-01
    -13.003  0.7495E-09  0.2120E-01
    -12.931  0.1531E-11  0.2120E-01
    -12.860  0.1160E-14  0.2120E-01
    -12.789  0.0000E+00  0.2120E-01
    -12.717  0.0000E+00  0.2120E-01
    -12.646  0.0000E+00  0.2120E-01
    -12.575  0.0000E+00  0.2120E-01
    -12.504  0.0000E+00  0.2120E-01
    -12.432  0.0000E+00  0.2120E-01
    -12.361  0.0000E+00  0.2120E-01
    -12.290  0.0000E+00  0.2120E-01
    -12.218  0.0000E+00  0.2120E-01
    -12.147  0.0000E+00  0.2120E-01
    -12.076  0.0000E+00  0.2120E-01
    -12.004  0.0000E+00  0.2120E-01
    -11.933  0.0000E+00  0.2120E-01
    -11.862  0.0000E+00  0.2120E-01
    -11.790  0.0000E+00  0.2120E-01
    -11.719  0.0000E+00  0.2120E-01
    -11.648  0.0000E+00  0.2120E-01
    -11.576  0.0000E+00  0.2120E-01
    -11.505  0.0000E+00  0.2120E-01
    -11.434  0.0000E+00  0.2120E-01
    -11.362  0.0000E+00  0.2120E-01
    -11.291  0.0000E+00  0.2120E-01
    -11.220  0.0000E+00  0.2120E-01
    -11.148  0.0000E+00  0.2120E-01
    -11.077  0.0000E+00  0.2120E-01
    -11.006  0.0000E+00  0.2120E-01
    -10.934  0.0000E+00  0.2120E-01
    -10.863  0.0000E+00  0.2120E-01
    -10.792  0.0000E+00  0.2120E-01
    -10.721  0.0000E+00  0.2120E-01
    -10.649  0.0000E+00  0.2120E-01
    -10.578  0.0000E+00  0.2120E-01
    -10.507  0.0000E+00  0.2120E-01
    -10.435  0.0000E+00  0.2120E-01
    -10.364  0.0000E+00  0.2120E-01
    -10.293  0.0000E+00  0.2120E-01
    -10.221  0.0000E+00  0.2120E-01
    -10.150  0.0000E+00  0.2120E-01
    -10.079  0.0000E+00  0.2120E-01
    -10.007  0.0000E+00  0.2120E-01
     -9.936  0.2335E-16  0.2120E-01
     -9.865  0.3706E-13  0.2120E-01
     -9.793  0.2168E-10  0.2120E-01
     -9.722  0.4721E-08  0.2120E-01
     -9.651  0.3872E-06  0.2120E-01
     -9.579  0.1219E-04  0.2120E-01
     -9.508  0.1519E-03  0.2121E-01
     -9.437  0.7855E-03  0.2127E-01
     -9.365  0.1813E-02  0.2140E-01
     -9.294  0.2235E-02  0.2156E-01
     -9.223  0.2418E-02  0.2173E-01
     -9.152  0.2762E-02  0.2193E-01
     -9.080  0.2253E-02  0.2209E-01
     -9.009  0.1201E-02  0.2217E-01
     -8.938  0.4635E-03  0.2221E-01
     -8.866  0.6021E-03  0.2225E-01
     -8.795  0.1066E-02  0.2232E-01
     -8.724  0.7988E-03  0.2238E-01
     -8.652  0.2350E-03  0.2240E-01
     -8.581  0.2685E-04  0.2240E-01
     -8.510  0.1177E-05  0.2240E-01
     -8.438  0.1954E-07  0.2240E-01
     -8.367  0.1216E-09  0.2240E-01
     -8.296  0.2813E-12  0.2240E-01
     -8.224  0.2404E-15  0.2240E-01
     -8.153  0.0000E+00  0.2240E-01
     -8.082  0.0000E+00  0.2240E-01
     -8.010  0.0000E+00  0.2240E-01
     -7.939  0.0000E+00  0.2240E-01
     -7.868  0.0000E+00  0.2240E-01
     -7.796  0.0000E+00  0.2240E-01
     -7.725  0.4670E-18  0.2240E-01
     -7.654  0.1340E-14  0.2240E-01
     -7.582  0.1377E-11  0.2240E-01
     -7.511  0.5283E-09  0.2240E-01
     -7.440  0.7708E-07  0.2240E-01
     -7.369  0.4432E-05  0.2240E-01
     -7.297  0.1065E-03  0.2241E-01
     -7.226  0.1145E-02  0.2249E-01
     -7.155  0.5730E-02  0.2290E-01
     -7.083  0.1309E-01  0.2383E-01
     -7.012  0.1296E-01  0.2476E-01
     -6.941  0.5445E-02  0.2514E-01
     -6.869  0.2729E-02  0.2534E-01
     -6.798  0.1037E-01  0.2608E-01
     -6.727  0.2551E-01  0.2790E-01
     -6.655  0.3427E-01  0.3034E-01
     -6.584  0.3304E-01  0.3270E-01
     -6.513  0.2143E-01  0.3423E-01
     -6.441  0.6995E-02  0.3473E-01
     -6.370  0.9867E-03  0.3480E-01
     -6.299  0.1419E-03  0.3481E-01
     -6.227  0.1139E-02  0.3489E-01
     -6.156  0.6063E-02  0.3532E-01
     -6.085  0.1305E-01  0.3625E-01
     -6.013  0.1144E-01  0.3707E-01
     -5.942  0.4431E-02  0.3738E-01
     -5.871  0.2663E-02  0.3757E-01
     -5.800  0.7095E-02  0.3808E-01
     -5.728  0.1368E-01  0.3905E-01
     -5.657  0.1389E-01  0.4004E-01
     -5.586  0.1247E-01  0.4093E-01
     -5.514  0.2032E-01  0.4238E-01
     -5.443  0.2464E-01  0.4414E-01
     -5.372  0.1545E-01  0.4524E-01
     -5.300  0.1074E-01  0.4601E-01
     -5.229  0.1565E-01  0.4712E-01
     -5.158  0.1860E-01  0.4845E-01
     -5.086  0.1882E-01  0.4979E-01
     -5.015  0.1331E-01  0.5074E-01
     -4.944  0.7931E-02  0.5131E-01
     -4.872  0.1123E-01  0.5211E-01
     -4.801  0.1539E-01  0.5321E-01
     -4.730  0.1809E-01  0.5450E-01
     -4.658  0.2747E-01  0.5646E-01
     -4.587  0.3199E-01  0.5874E-01
     -4.516  0.2103E-01  0.6024E-01
     -4.444  0.6992E-02  0.6074E-01
     -4.373  0.2697E-02  0.6093E-01
     -4.302  0.7718E-02  0.6148E-01
     -4.230  0.1419E-01  0.6249E-01
     -4.159  0.1237E-01  0.6337E-01
     -4.088  0.6399E-02  0.6383E-01
     -4.017  0.2062E-02  0.6398E-01
     -3.945  0.6995E-03  0.6403E-01
     -3.874  0.3915E-02  0.6431E-01
     -3.803  0.1590E-01  0.6544E-01
     -3.731  0.2623E-01  0.6731E-01
     -3.660  0.2048E-01  0.6877E-01
     -3.589  0.1668E-01  0.6996E-01
     -3.517  0.2025E-01  0.7140E-01
     -3.446  0.1986E-01  0.7282E-01
     -3.375  0.1695E-01  0.7403E-01
     -3.303  0.1693E-01  0.7524E-01
     -3.232  0.1200E-01  0.7609E-01
     -3.161  0.4164E-02  0.7639E-01
     -3.089  0.2411E-02  0.7656E-01
     -3.018  0.4162E-02  0.7686E-01
     -2.947  0.3774E-02  0.7713E-01
     -2.875  0.3864E-02  0.7740E-01
     -2.804  0.1103E-01  0.7819E-01
     -2.733  0.2217E-01  0.7977E-01
     -2.661  0.2954E-01  0.8188E-01
     -2.590  0.2599E-01  0.8373E-01
     -2.519  0.1369E-01  0.8471E-01
     -2.448  0.1069E-01  0.8547E-01
     -2.376  0.1871E-01  0.8680E-01
     -2.305  0.2161E-01  0.8835E-01
     -2.234  0.1368E-01  0.8932E-01
     -2.162  0.5821E-02  0.8974E-01
     -2.091  0.6146E-02  0.9018E-01
     -2.020  0.1181E-01  0.9102E-01
     -1.948  0.1304E-01  0.9195E-01
     -1.877  0.9213E-02  0.9260E-01
     -1.806  0.1154E-01  0.9343E-01
     -1.734  0.1248E-01  0.9432E-01
     -1.663  0.6168E-02  0.9476E-01
     -1.592  0.2595E-02  0.9494E-01
     -1.520  0.2205E-02  0.9510E-01
     -1.449  0.1151E-02  0.9518E-01
     -1.378  0.2428E-03  0.9520E-01
     -1.306  0.1991E-04  0.9520E-01
     -1.235  0.6264E-06  0.9520E-01
     -1.164  0.7465E-08  0.9520E-01
     -1.092  0.3337E-10  0.9520E-01
     -1.021  0.5554E-13  0.9520E-01
     -0.950  0.3425E-16  0.9520E-01
     -0.879  0.0000E+00  0.9520E-01
     -0.807  0.0000E+00  0.9520E-01
     -0.736  0.0000E+00  0.9520E-01
     -0.665  0.0000E+00  0.9520E-01
     -0.593  0.1557E-18  0.9520E-01
     -0.522  0.6485E-15  0.9520E-01
     -0.451  0.6650E-12  0.9520E-01
     -0.379  0.2521E-09  0.9520E-01
     -0.308  0.3555E-07  0.9520E-01
     -0.237  0.1882E-05  0.9520E-01
     -0.165  0.3779E-04  0.9520E-01
     -0.094  0.2917E-03  0.9522E-01
     -0.023  0.8757E-03  0.9529E-01
      0.049  0.1042E-02  0.9536E-01
      0.120  0.6359E-03  0.9541E-01
      0.191  0.9627E-03  0.9547E-01
      0.263  0.2069E-02  0.9562E-01
      0.334  0.3504E-02  0.9587E-01
      0.405  0.1091E-01  0.9665E-01
      0.477  0.2460E-01  0.9840E-01
      0.548  0.2701E-01  0.1003E+00
      0.619  0.2564E-01  0.1022E+00
      0.691  0.2663E-01  0.1041E+00
      0.762  0.1507E-01  0.1051E+00
      0.833  0.5437E-02  0.1055E+00
      0.904  0.1327E-01  0.1065E+00
      0.976  0.3445E-01  0.1089E+00
      1.047  0.3910E-01  0.1117E+00
      1.118  0.2576E-01  0.1136E+00
      1.190  0.1675E-01  0.1147E+00
      1.261  0.1206E-01  0.1156E+00
      1.332  0.1034E-01  0.1163E+00
      1.404  0.6740E-02  0.1168E+00
      1.475  0.2166E-02  0.1170E+00
      1.546  0.2937E-03  0.1170E+00
      1.618  0.1579E-04  0.1170E+00
      1.689  0.3261E-06  0.1170E+00
      1.760  0.2543E-08  0.1170E+00
      1.832  0.7400E-11  0.1170E+00
      1.903  0.7975E-14  0.1170E+00
      1.974  0.3736E-17  0.1170E+00
      2.046  0.0000E+00  0.1170E+00
      2.117  0.0000E+00  0.1170E+00
      2.188  0.0000E+00  0.1170E+00
      2.260  0.0000E+00  0.1170E+00
      2.331  0.0000E+00  0.1170E+00
