       N       E                     dE             d eps       ncg     rms          rms(c)
DAV:   1     0.777017369028E+04    0.77702E+04   -0.36221E+05  1170   0.112E+03
DAV:   2    -0.229683371449E+03   -0.79999E+04   -0.77570E+04  1612   0.269E+02
DAV:   3    -0.126012929160E+04   -0.10304E+04   -0.10154E+04  1365   0.104E+02
DAV:   4    -0.132102815640E+04   -0.60899E+02   -0.60563E+02  1768   0.307E+01
DAV:   5    -0.132314079024E+04   -0.21126E+01   -0.20998E+01  1781   0.498E+00    0.169E+02
DAV:   6    -0.127640110530E+04    0.46740E+02   -0.93360E+02  1612   0.272E+01    0.924E+01
DAV:   7    -0.129705625235E+04   -0.20655E+02   -0.12032E+03  1768   0.455E+01    0.550E+01
DAV:   8    -0.123313150396E+04    0.63925E+02   -0.67344E+01  1456   0.764E+00    0.317E+01
DAV:   9    -0.124135784767E+04   -0.82263E+01   -0.19091E+02  1716   0.955E+00    0.422E+01
DAV:  10    -0.121762892102E+04    0.23729E+02   -0.16601E+02  1807   0.175E+01    0.215E+01
DAV:  11    -0.122467958359E+04   -0.70507E+01   -0.68186E+01  1638   0.254E+00    0.160E+01
DAV:  12    -0.122421398821E+04    0.46560E+00   -0.30516E+00  1690   0.107E+00    0.156E+01
DAV:  13    -0.122383954050E+04    0.37445E+00   -0.72293E-01  1599   0.465E-01    0.151E+01
DAV:  14    -0.122346744368E+04    0.37210E+00   -0.56990E-01  1547   0.437E-01    0.144E+01
DAV:  15    -0.122371739624E+04   -0.24995E+00   -0.15974E+01  1625   0.220E+00    0.128E+01
DAV:  16    -0.122452774637E+04   -0.81035E+00   -0.24988E+00  1638   0.992E-01    0.115E+01
DAV:  17    -0.122406435533E+04    0.46339E+00   -0.54960E-01  1703   0.549E-01    0.106E+01
DAV:  18    -0.122484065332E+04   -0.77630E+00   -0.74095E+00  1599   0.543E-01    0.143E+01
DAV:  19    -0.122474091410E+04    0.99739E-01   -0.29627E+00  1690   0.462E-01    0.108E+01
DAV:  20    -0.122398978372E+04    0.75113E+00   -0.12391E+00  1638   0.482E-01    0.738E+00
DAV:  21    -0.122388544210E+04    0.10434E+00   -0.19375E+00  1664   0.242E-01    0.618E+00
DAV:  22    -0.122356713288E+04    0.31831E+00   -0.48703E-01  1482   0.220E-01    0.674E+00
DAV:  23    -0.122333583074E+04    0.23130E+00   -0.19327E+00  1612   0.315E-01    0.479E+00
DAV:  24    -0.122321757657E+04    0.11825E+00   -0.62500E-01  1651   0.166E-01    0.410E+00
DAV:  25    -0.122329795575E+04   -0.80379E-01   -0.17152E+00  1482   0.120E-01    0.505E+00
DAV:  26    -0.122307271031E+04    0.22525E+00   -0.34834E-01  1495   0.230E-01    0.343E+00
DAV:  27    -0.122305329373E+04    0.19417E-01   -0.14785E+00  1612   0.207E-01    0.371E+00
DAV:  28    -0.122285276449E+04    0.20053E+00   -0.50729E-01  1508   0.313E-01    0.241E+00
DAV:  29    -0.122284267040E+04    0.10094E-01   -0.96073E-01  1573   0.187E-01    0.275E+00
DAV:  30    -0.122279474565E+04    0.47925E-01   -0.44493E-01  1703   0.114E-01    0.188E+00
DAV:  31    -0.122278938510E+04    0.53606E-02   -0.36161E-01  1521   0.933E-02    0.209E+00
DAV:  32    -0.122276489976E+04    0.24485E-01   -0.20099E-01  1508   0.904E-02    0.131E+00
DAV:  33    -0.122275907557E+04    0.58242E-02   -0.18773E-01  1599   0.137E-01    0.113E+00
DAV:  34    -0.122275773263E+04    0.13429E-02   -0.86899E-02  1469   0.804E-02    0.869E-01
DAV:  35    -0.122276195666E+04   -0.42240E-02   -0.48688E-02  1521   0.555E-02    0.910E-01
DAV:  36    -0.122276518899E+04   -0.32323E-02   -0.34806E-02  1508   0.717E-02    0.780E-01
DAV:  37    -0.122276405887E+04    0.11301E-02   -0.12484E-02  1222   0.292E-02    0.771E-01
DAV:  38    -0.122276331435E+04    0.74453E-03   -0.70870E-03  1001   0.194E-02    0.771E-01
DAV:  39    -0.122276185326E+04    0.14611E-02   -0.38455E-03  1118   0.218E-02    0.753E-01
DAV:  40    -0.122276121677E+04    0.63650E-03   -0.32918E-03  1235   0.231E-02    0.768E-01
DAV:  41    -0.122276136843E+04   -0.15166E-03   -0.18195E-03   975   0.129E-02    0.747E-01
DAV:  42    -0.122276220010E+04   -0.83167E-03   -0.10457E-03   832   0.114E-02    0.763E-01
DAV:  43    -0.122276282352E+04   -0.62341E-03   -0.81308E-04   715   0.715E-03    0.719E-01
DAV:  44    -0.122276408369E+04   -0.12602E-02   -0.34124E-04   806   0.702E-03    0.714E-01
DAV:  45    -0.122276522696E+04   -0.11433E-02   -0.39039E-04   728   0.521E-03    0.676E-01
DAV:  46    -0.122276619174E+04   -0.96478E-03   -0.16115E-04   702   0.497E-03    0.667E-01
DAV:  47    -0.122276718225E+04   -0.99051E-03   -0.19975E-04   741   0.464E-03    0.648E-01
DAV:  48    -0.122276813118E+04   -0.94894E-03   -0.96475E-05   702   0.372E-03    0.636E-01
DAV:  49    -0.122276895600E+04   -0.82482E-03   -0.70000E-05   754   0.414E-03    0.616E-01
DAV:  50    -0.122276963810E+04   -0.68210E-03   -0.86811E-05   741   0.422E-03    0.587E-01
DAV:  51    -0.122276979437E+04   -0.15627E-03   -0.55143E-05   767   0.620E-03    0.562E-01
DAV:  52    -0.122277005954E+04   -0.26517E-03   -0.24051E-05   689   0.383E-03    0.537E-01
DAV:  53    -0.122277094150E+04   -0.88196E-03   -0.57262E-05   715   0.415E-03    0.500E-01
DAV:  54    -0.122277195166E+04   -0.10102E-02   -0.10496E-04   858   0.634E-03    0.422E-01
DAV:  55    -0.122277202179E+04   -0.70126E-04   -0.11274E-05   689   0.315E-03
   1 F= -.12530252E+04 E0= -.12529644E+04  d E =-.125303E+04
       N       E                     dE             d eps       ncg     rms          rms(c)
DAV:   1    -0.122318196370E+04   -0.41001E+00   -0.90498E+01  1261   0.916E+00    0.904E+00
DAV:   2    -0.122401316195E+04   -0.83120E+00   -0.79913E+00  1404   0.292E+00    0.135E+01
DAV:   3    -0.122502144340E+04   -0.10083E+01   -0.11963E+01  1677   0.190E+00    0.137E+01
DAV:   4    -0.122376544841E+04    0.12560E+01   -0.17992E+01  1703   0.177E+00    0.468E+00
DAV:   5    -0.122377468949E+04   -0.92411E-02   -0.24473E+00  1742   0.705E-01    0.448E+00
DAV:   6    -0.122416500828E+04   -0.39032E+00   -0.31556E+00  1742   0.526E-01    0.148E+01
DAV:   7    -0.122378725209E+04    0.37776E+00   -0.26001E+00  1560   0.623E-01    0.304E+00
DAV:   8    -0.122371535587E+04    0.71896E-01   -0.15983E+00  1625   0.495E-01    0.268E+00
DAV:   9    -0.122369638028E+04    0.18976E-01   -0.14977E+00  1599   0.232E-01    0.251E+00
DAV:  10    -0.122368073752E+04    0.15643E-01   -0.64528E-01  1625   0.154E-01    0.172E+00
DAV:  11    -0.122366799192E+04    0.12746E-01   -0.47978E-01  1495   0.899E-02    0.163E+00
DAV:  12    -0.122365284079E+04    0.15151E-01   -0.37499E-02  1625   0.695E-02    0.833E-01
DAV:  13    -0.122365046111E+04    0.23797E-02   -0.24855E-02  1391   0.492E-02    0.108E+00
DAV:  14    -0.122364331272E+04    0.71484E-02   -0.84225E-03  1287   0.387E-02    0.717E-01
DAV:  15    -0.122364227978E+04    0.10329E-02   -0.46806E-03  1248   0.257E-02    0.842E-01
DAV:  16    -0.122363725465E+04    0.50251E-02   -0.25922E-03  1118   0.271E-02    0.700E-01
DAV:  17    -0.122363552302E+04    0.17316E-02   -0.15464E-03  1105   0.193E-02    0.700E-01
DAV:  18    -0.122363392095E+04    0.16021E-02   -0.64497E-04   923   0.124E-02    0.670E-01
DAV:  19    -0.122363498367E+04   -0.10627E-02   -0.26750E-04   819   0.957E-03    0.702E-01
DAV:  20    -0.122363412769E+04    0.85599E-03   -0.37461E-05   715   0.763E-03    0.661E-01
DAV:  21    -0.122363251074E+04    0.16169E-02   -0.17427E-04   858   0.113E-02    0.653E-01
DAV:  22    -0.122362776228E+04    0.47485E-02   -0.73103E-04  1209   0.269E-02    0.624E-01
DAV:  23    -0.122362691256E+04    0.84972E-03   -0.27298E-04  1040   0.124E-02    0.602E-01
DAV:  24    -0.122362743370E+04   -0.52113E-03   -0.46168E-05   767   0.723E-03    0.609E-01
DAV:  25    -0.122362375396E+04    0.36797E-02   -0.54072E-04  1079   0.249E-02    0.619E-01
DAV:  26    -0.122361892539E+04    0.48286E-02   -0.93368E-04  1378   0.344E-02    0.613E-01
DAV:  27    -0.122361411488E+04    0.48105E-02   -0.17119E-03  1443   0.435E-02    0.659E-01
DAV:  28    -0.122361393821E+04    0.17667E-03   -0.92240E-04  1053   0.152E-02    0.557E-01
DAV:  29    -0.122361178713E+04    0.21511E-02   -0.25211E-03  1235   0.310E-02    0.758E-01
DAV:  30    -0.122361017555E+04    0.16116E-02   -0.15146E-03  1040   0.145E-02    0.578E-01
DAV:  31    -0.122360964038E+04    0.53517E-03   -0.72624E-04   819   0.130E-02    0.738E-01
DAV:  32    -0.122360789927E+04    0.17411E-02   -0.80281E-04   936   0.140E-02    0.570E-01
DAV:  33    -0.122360611678E+04    0.17825E-02   -0.65984E-04  1131   0.224E-02    0.585E-01
DAV:  34    -0.122360579757E+04    0.31921E-03   -0.31151E-04   897   0.102E-02    0.491E-01
DAV:  35    -0.122360586148E+04   -0.63905E-04   -0.98886E-05   741   0.941E-03
   2 F= -.12539740E+04 E0= -.12539130E+04  d E =-.948707E+00
       N       E                     dE             d eps       ncg     rms          rms(c)
DAV:   1    -0.122359424820E+04    0.11549E-01   -0.19070E+00  1248   0.133E+00    0.121E+00
DAV:   2    -0.122364943017E+04   -0.55182E-01   -0.17246E-01  1534   0.475E-01    0.468E+00
DAV:   3    -0.122362804895E+04    0.21381E-01   -0.89271E-02  1612   0.210E-01    0.132E+00
DAV:   4    -0.122361167865E+04    0.16370E-01   -0.82326E-02  1586   0.860E-02    0.127E+00
DAV:   5    -0.122360820223E+04    0.34764E-02   -0.71438E-02  1170   0.460E-02    0.849E-01
DAV:   6    -0.122363823446E+04   -0.30032E-01   -0.49696E-02  1703   0.129E-01    0.384E+00
DAV:   7    -0.122361649410E+04    0.21740E-01   -0.37428E-02  1638   0.120E-01    0.559E-01
DAV:   8    -0.122360571149E+04    0.10783E-01   -0.79829E-03  1443   0.577E-02    0.642E-01
DAV:   9    -0.122360365571E+04    0.20558E-02   -0.32792E-03   988   0.286E-02    0.149E-01
DAV:  10    -0.122360356828E+04    0.87424E-04   -0.21076E-03   871   0.191E-02    0.366E-01
DAV:  11    -0.122360291492E+04    0.65336E-03   -0.13527E-03   754   0.145E-02    0.620E-02
DAV:  12    -0.122360292542E+04   -0.10502E-04   -0.68941E-04   715   0.107E-02
   3 F= -.12539886E+04 E0= -.12539226E+04  d E =-.963323E+00
       N       E                     dE             d eps       ncg     rms          rms(c)
DAV:   1    -0.122360301173E+04   -0.96811E-04   -0.69818E-04   884   0.211E-02    0.895E-02
DAV:   2    -0.122360381262E+04   -0.80089E-03   -0.25899E-03   975   0.273E-02    0.360E-01
DAV:   3    -0.122360357221E+04    0.24041E-03   -0.42706E-03  1027   0.341E-02    0.356E-01
DAV:   4    -0.122360311887E+04    0.45334E-03   -0.62940E-04   780   0.144E-02    0.998E-02
DAV:   5    -0.122360310715E+04    0.11718E-04   -0.77889E-05   689   0.632E-03
   4 F= -.12539885E+04 E0= -.12539227E+04  d E =-.963261E+00
       N       E                     dE             d eps       ncg     rms          rms(c)
DAV:   1    -0.122360289112E+04    0.22775E-03   -0.12871E-04   676   0.121E-02    0.335E-02
DAV:   2    -0.122360305813E+04   -0.16701E-03   -0.20169E-04   728   0.106E-02    0.168E-01
DAV:   3    -0.122360290526E+04    0.15287E-03   -0.27018E-04   741   0.102E-02    0.623E-02
DAV:   4    -0.122360291803E+04   -0.12769E-04   -0.70925E-05   676   0.519E-03
   5 F= -.12539884E+04 E0= -.12539232E+04  d E =-.963189E+00
       N       E                     dE             d eps       ncg     rms          rms(c)
DAV:   1    -0.122358651179E+04    0.16393E-01   -0.12865E+00  1170   0.602E-01    0.562E-01
DAV:   2    -0.122364154808E+04   -0.55036E-01   -0.26521E-01  1820   0.329E-01    0.192E+00
DAV:   3    -0.122359804006E+04    0.43508E-01   -0.14645E-01  1664   0.219E-01    0.925E-01
DAV:   4    -0.122359351991E+04    0.45201E-02   -0.12518E-02  1378   0.525E-02    0.767E-01
DAV:   5    -0.122359088424E+04    0.26357E-02   -0.10773E-02  1560   0.642E-02    0.717E-01
DAV:   6    -0.122358925113E+04    0.16331E-02   -0.43700E-03  1183   0.337E-02    0.351E-01
DAV:   7    -0.122359051617E+04   -0.12650E-02   -0.30696E-03  1313   0.386E-02    0.810E-01
DAV:   8    -0.122358859615E+04    0.19200E-02   -0.12995E-03  1105   0.277E-02    0.219E-01
DAV:   9    -0.122358866260E+04   -0.66449E-04   -0.37135E-04   793   0.166E-02
   6 F= -.12539757E+04 E0= -.12539043E+04  d E =0.127541E-01
       N       E                     dE             d eps       ncg     rms          rms(c)
DAV:   1    -0.122360245562E+04   -0.13859E-01   -0.80318E-01  1170   0.471E-01    0.239E-01
DAV:   2    -0.122361444889E+04   -0.11993E-01   -0.36062E-02  1638   0.137E-01    0.195E+00
DAV:   3    -0.122360669582E+04    0.77531E-02   -0.88527E-03  1287   0.565E-02    0.335E-01
DAV:   4    -0.122360465857E+04    0.20373E-02   -0.16115E-03  1105   0.279E-02    0.424E-01
DAV:   5    -0.122360400541E+04    0.65316E-03   -0.47908E-04   884   0.150E-02    0.208E-01
DAV:   6    -0.122360365765E+04    0.34776E-03   -0.68027E-04   871   0.178E-02    0.175E-01
DAV:   7    -0.122360357859E+04    0.79062E-04   -0.36835E-04   858   0.147E-02
   7 F= -.12539894E+04 E0= -.12539242E+04  d E =-.970524E-03
       N       E                     dE             d eps       ncg     rms          rms(c)
DAV:   1    -0.122360354773E+04    0.10992E-03   -0.23953E-04   845   0.130E-02    0.465E-02
DAV:   2    -0.122360369408E+04   -0.14635E-03   -0.16058E-04   689   0.625E-03    0.182E-01
DAV:   3    -0.122360363488E+04    0.59204E-04   -0.35009E-04   728   0.893E-03
   8 F= -.12539895E+04 E0= -.12539219E+04  d E =-.101406E-02
       N       E                     dE             d eps       ncg     rms          rms(c)
DAV:   1    -0.122360358440E+04    0.10968E-03   -0.26662E-04   780   0.801E-03    0.105E-01
DAV:   2    -0.122360681739E+04   -0.32330E-02   -0.39282E-03  1092   0.326E-02    0.969E-01
DAV:   3    -0.122360484042E+04    0.19770E-02   -0.63134E-03  1170   0.425E-02    0.325E-01
DAV:   4    -0.122360391048E+04    0.92994E-03   -0.69313E-04   871   0.147E-02    0.225E-01
DAV:   5    -0.122360359619E+04    0.31429E-03   -0.14896E-04   715   0.835E-03    0.925E-02
DAV:   6    -0.122360357875E+04    0.17440E-04   -0.16957E-04   689   0.610E-03
   9 F= -.12539894E+04 E0= -.12539238E+04  d E =-.964869E-03
       N       E                     dE             d eps       ncg     rms          rms(c)
DAV:   1    -0.122360377267E+04   -0.17648E-03   -0.32809E-02  1170   0.128E-01    0.102E-01
DAV:   2    -0.122360688280E+04   -0.31101E-02   -0.77540E-03  1573   0.611E-02    0.554E-01
DAV:   3    -0.122360384889E+04    0.30339E-02   -0.64819E-03  1248   0.492E-02    0.109E-01
DAV:   4    -0.122360383817E+04    0.10722E-04   -0.18809E-04   780   0.977E-03
  10 F= -.12539897E+04 E0= -.12539267E+04  d E =-.288504E-03
       N       E                     dE             d eps       ncg     rms          rms(c)
DAV:   1    -0.122360385521E+04   -0.63240E-05   -0.82083E-03  1131   0.646E-02    0.903E-02
DAV:   2    -0.122360622577E+04   -0.23706E-02   -0.40907E-03  1183   0.422E-02    0.554E-01
DAV:   3    -0.122360408629E+04    0.21395E-02   -0.47670E-03  1144   0.405E-02    0.159E-01
DAV:   4    -0.122360400389E+04    0.82405E-04   -0.24315E-04   793   0.108E-02
  11 F= -.12539899E+04 E0= -.12539252E+04  d E =-.469461E-03
       N       E                     dE             d eps       ncg     rms          rms(c)
DAV:   1    -0.122360372977E+04    0.35652E-03   -0.32471E-02  1170   0.128E-01    0.645E-02
DAV:   2    -0.122360386761E+04   -0.13784E-03   -0.12829E-03  1482   0.299E-02    0.133E-01
DAV:   3    -0.122360382593E+04    0.41682E-04   -0.69157E-04   793   0.112E-02
  12 F= -.12539897E+04 E0= -.12539260E+04  d E =-.323254E-03
       N       E                     dE             d eps       ncg     rms          rms(c)
DAV:   1    -0.122360382539E+04    0.42220E-04   -0.10081E-02  1131   0.711E-02    0.794E-02
DAV:   2    -0.122360567467E+04   -0.18493E-02   -0.53759E-03  1183   0.369E-02    0.479E-01
DAV:   3    -0.122360395937E+04    0.17153E-02   -0.52603E-03  1131   0.387E-02    0.143E-01
DAV:   4    -0.122360392652E+04    0.32851E-04   -0.62098E-04   754   0.947E-03
  13 F= -.12539898E+04 E0= -.12539256E+04  d E =-.406437E-03
       N       E                     dE             d eps       ncg     rms          rms(c)
DAV:   1    -0.122360396268E+04   -0.33129E-05   -0.13077E-02  1131   0.745E-02    0.450E-02
DAV:   2    -0.122360412374E+04   -0.16106E-03   -0.14149E-03   923   0.180E-02    0.163E-01
DAV:   3    -0.122360401270E+04    0.11104E-03   -0.14021E-03   728   0.102E-02    0.693E-02
DAV:   4    -0.122360402698E+04   -0.14281E-04   -0.69497E-04   715   0.822E-03
  14 F= -.12539899E+04 E0= -.12539245E+04  d E =-.865776E-04
       N       E                     dE             d eps       ncg     rms          rms(c)
DAV:   1    -0.122360402170E+04   -0.89952E-05   -0.57083E-02  1170   0.157E-01    0.109E-01
DAV:   2    -0.122360709816E+04   -0.30765E-02   -0.97396E-03  1573   0.693E-02    0.567E-01
DAV:   3    -0.122360417080E+04    0.29274E-02   -0.73836E-03  1287   0.496E-02    0.122E-01
DAV:   4    -0.122360419735E+04   -0.26543E-04   -0.71534E-04   819   0.108E-02
  15 F= -.12539900E+04 E0= -.12539270E+04  d E =-.229273E-03
       N       E                     dE             d eps       ncg     rms          rms(c)
DAV:   1    -0.122360421335E+04   -0.42550E-04   -0.12171E-02  1170   0.799E-02    0.754E-02
DAV:   2    -0.122360542857E+04   -0.12152E-02   -0.30637E-03  1222   0.307E-02    0.536E-01
DAV:   3    -0.122360455815E+04    0.87042E-03   -0.30287E-03  1066   0.304E-02    0.204E-01
DAV:   4    -0.122360423544E+04    0.32271E-03   -0.30032E-04   728   0.978E-03    0.666E-02
DAV:   5    -0.122360422105E+04    0.14392E-04   -0.20550E-04   702   0.515E-03
  16 F= -.12539900E+04 E0= -.12539259E+04  d E =-.123241E-04
       N       E                     dE             d eps       ncg     rms          rms(c)
DAV:   1    -0.122360425192E+04   -0.16481E-04   -0.28998E-02  1170   0.125E-01    0.703E-02
DAV:   2    -0.122360573276E+04   -0.14808E-02   -0.35545E-03  1508   0.434E-02    0.450E-01
DAV:   3    -0.122360441446E+04    0.13183E-02   -0.27964E-03  1105   0.312E-02    0.102E-01
DAV:   4    -0.122360437865E+04    0.35812E-04   -0.22572E-04   767   0.929E-03
  17 F= -.12539902E+04 E0= -.12539258E+04  d E =-.152787E-03
       N       E                     dE             d eps       ncg     rms          rms(c)
DAV:   1    -0.122360444348E+04   -0.29013E-04   -0.59191E-03  1118   0.558E-02    0.616E-02
DAV:   2    -0.122360593512E+04   -0.14916E-02   -0.21230E-03  1170   0.307E-02    0.612E-01
DAV:   3    -0.122360464745E+04    0.12877E-02   -0.22460E-03  1053   0.289E-02    0.161E-01
DAV:   4    -0.122360443550E+04    0.21195E-03   -0.14821E-04   689   0.839E-03    0.318E-02
DAV:   5    -0.122360444365E+04   -0.81541E-05   -0.88559E-05   676   0.535E-03
  18 F= -.12539902E+04 E0= -.12539260E+04  d E =-.324496E-04
       N       E                     dE             d eps       ncg     rms          rms(c)
DAV:   1    -0.122360452915E+04   -0.93656E-04   -0.12876E-02  1157   0.814E-02    0.545E-02
DAV:   2    -0.122360467002E+04   -0.14087E-03   -0.15739E-03   923   0.207E-02    0.157E-01
DAV:   3    -0.122360472864E+04   -0.58611E-04   -0.19787E-03   819   0.161E-02    0.168E-01
DAV:   4    -0.122360458469E+04    0.14394E-03   -0.72185E-04   754   0.117E-02    0.606E-02
DAV:   5    -0.122360457316E+04    0.11534E-04   -0.33349E-04   676   0.465E-03
  19 F= -.12539903E+04 E0= -.12539255E+04  d E =-.114183E-03
       N       E                     dE             d eps       ncg     rms          rms(c)
DAV:   1    -0.122360440363E+04    0.18106E-03   -0.50953E-02  1170   0.163E-01    0.728E-02
DAV:   2    -0.122360458481E+04   -0.18118E-03   -0.16867E-03  1599   0.391E-02    0.131E-01
DAV:   3    -0.122360480704E+04   -0.22223E-03   -0.10858E-03  1001   0.203E-02    0.269E-01
DAV:   4    -0.122360453452E+04    0.27252E-03   -0.51409E-04   793   0.145E-02    0.900E-02
DAV:   5    -0.122360450533E+04    0.29190E-04   -0.50300E-05   689   0.567E-03
  20 F= -.12539901E+04 E0= -.12539253E+04  d E =0.480621E-04
       N       E                     dE             d eps       ncg     rms          rms(c)
DAV:   1    -0.122360451374E+04    0.20778E-04   -0.31862E-02  1170   0.128E-01    0.812E-02
DAV:   2    -0.122360477801E+04   -0.26427E-03   -0.32988E-03  1391   0.330E-02    0.207E-01
DAV:   3    -0.122360492783E+04   -0.14981E-03   -0.39431E-03   884   0.194E-02    0.238E-01
DAV:   4    -0.122360470325E+04    0.22457E-03   -0.18941E-03   819   0.182E-02    0.148E-01
DAV:   5    -0.122360461042E+04    0.92827E-04   -0.48896E-04   689   0.766E-03
  21 F= -.12539903E+04 E0= -.12539258E+04  d E =-.130301E-03
       N       E                     dE             d eps       ncg     rms          rms(c)
DAV:   1    -0.122360466677E+04    0.36481E-04   -0.31693E-03  1105   0.386E-02    0.596E-02
DAV:   2    -0.122360483930E+04   -0.17253E-03   -0.10125E-03   793   0.114E-02    0.184E-01
DAV:   3    -0.122360471052E+04    0.12877E-03   -0.13937E-03   663   0.809E-03    0.818E-02
DAV:   4    -0.122360472895E+04   -0.18427E-04   -0.98021E-04   689   0.777E-03
  22 F= -.12539904E+04 E0= -.12539252E+04  d E =-.111959E-03
       N       E                     dE             d eps       ncg     rms          rms(c)
DAV:   1    -0.122360478303E+04   -0.72504E-04   -0.26532E-02  1170   0.114E-01    0.659E-02
DAV:   2    -0.122360512536E+04   -0.34233E-03   -0.24338E-03  1248   0.301E-02    0.246E-01
DAV:   3    -0.122360508805E+04    0.37305E-04   -0.25027E-03   962   0.213E-02    0.193E-01
DAV:   4    -0.122360487391E+04    0.21414E-03   -0.69703E-04   767   0.138E-02    0.795E-02
DAV:   5    -0.122360485988E+04    0.14031E-04   -0.31864E-04   676   0.496E-03
  23 F= -.12539905E+04 E0= -.12539255E+04  d E =-.223592E-03
       N       E                     dE             d eps       ncg     rms          rms(c)
DAV:   1    -0.122360462648E+04    0.24743E-03   -0.10299E-01  1170   0.227E-01    0.107E-01
DAV:   2    -0.122360487074E+04   -0.24426E-03   -0.28521E-03  1690   0.533E-02    0.108E-01
DAV:   3    -0.122360521058E+04   -0.33984E-03   -0.11945E-03  1001   0.204E-02    0.251E-01
DAV:   4    -0.122360487471E+04    0.33587E-03   -0.11220E-03   910   0.210E-02    0.127E-01
DAV:   5    -0.122360483811E+04    0.36602E-04   -0.15304E-04   728   0.806E-03
  24 F= -.12539905E+04 E0= -.12539268E+04  d E =-.165223E-03
       N       E                     dE             d eps       ncg     rms          rms(c)
DAV:   1    -0.122360482872E+04    0.45990E-04   -0.26627E-02  1170   0.115E-01    0.816E-02
DAV:   2    -0.122360511879E+04   -0.29007E-03   -0.17888E-03  1443   0.338E-02    0.205E-01
DAV:   3    -0.122360525059E+04   -0.13180E-03   -0.21129E-03   936   0.224E-02    0.232E-01
DAV:   4    -0.122360493577E+04    0.31483E-03   -0.11008E-03   858   0.178E-02    0.810E-02
DAV:   5    -0.122360490092E+04    0.34843E-04   -0.34482E-04   676   0.583E-03
  25 F= -.12539906E+04 E0= -.12539260E+04  d E =-.245857E-03
       N       E                     dE             d eps       ncg     rms          rms(c)
DAV:   1    -0.122360496107E+04   -0.25303E-04   -0.88110E-03  1131   0.651E-02    0.383E-02
DAV:   2    -0.122360513986E+04   -0.17879E-03   -0.86733E-04   962   0.196E-02    0.183E-01
DAV:   3    -0.122360503028E+04    0.10958E-03   -0.82350E-04   806   0.152E-02    0.103E-01
DAV:   4    -0.122360499345E+04    0.36837E-04   -0.13491E-04   702   0.841E-03
  26 F= -.12539907E+04 E0= -.12539252E+04  d E =-.132594E-03
       N       E                     dE             d eps       ncg     rms          rms(c)
DAV:   1    -0.122360493859E+04    0.91694E-04   -0.76924E-02  1170   0.194E-01    0.953E-02
DAV:   2    -0.122360527942E+04   -0.34083E-03   -0.25403E-03  1703   0.461E-02    0.178E-01
DAV:   3    -0.122360570188E+04   -0.42246E-03   -0.20994E-03  1079   0.270E-02    0.387E-01
DAV:   4    -0.122360517194E+04    0.52994E-03   -0.97639E-04   910   0.193E-02    0.116E-01
DAV:   5    -0.122360509863E+04    0.73316E-04   -0.98761E-05   715   0.707E-03
  27 F= -.12539909E+04 E0= -.12539257E+04  d E =-.358902E-03
       N       E                     dE             d eps       ncg     rms          rms(c)
DAV:   1    -0.122360381875E+04    0.13532E-02   -0.30593E-01  1170   0.388E-01    0.183E-01
DAV:   2    -0.122360465692E+04   -0.83816E-03   -0.89705E-03  1716   0.863E-02    0.210E-01
DAV:   3    -0.122360648034E+04   -0.18234E-02   -0.48558E-03  1274   0.424E-02    0.751E-01
DAV:   4    -0.122360485003E+04    0.16303E-02   -0.37078E-03  1170   0.360E-02    0.229E-01
DAV:   5    -0.122360445673E+04    0.39330E-03   -0.40885E-04   871   0.126E-02    0.118E-01
DAV:   6    -0.122360443602E+04    0.20710E-04   -0.68972E-04   767   0.937E-03
  28 F= -.12539905E+04 E0= -.12539258E+04  d E =0.573177E-04
       N       E                     dE             d eps       ncg     rms          rms(c)
DAV:   1    -0.122360460844E+04   -0.15172E-03   -0.19281E-01  1170   0.307E-01    0.146E-01
DAV:   2    -0.122360537028E+04   -0.76184E-03   -0.63404E-03  1755   0.751E-02    0.246E-01
DAV:   3    -0.122360667939E+04   -0.13091E-02   -0.39631E-03  1157   0.354E-02    0.658E-01
DAV:   4    -0.122360558757E+04    0.10918E-02   -0.29574E-03  1092   0.336E-02    0.236E-01
DAV:   5    -0.122360515403E+04    0.43354E-03   -0.41755E-04   845   0.136E-02    0.133E-01
DAV:   6    -0.122360505625E+04    0.97781E-04   -0.19383E-04   715   0.842E-03
  29 F= -.12539909E+04 E0= -.12539264E+04  d E =-.369140E-03
       N       E                     dE             d eps       ncg     rms          rms(c)
DAV:   1    -0.122360509495E+04    0.59079E-04   -0.28899E-03  1105   0.374E-02    0.914E-02
DAV:   2    -0.122360672931E+04   -0.16344E-02   -0.42903E-03  1118   0.315E-02    0.506E-01
DAV:   3    -0.122360566237E+04    0.10669E-02   -0.56871E-03  1105   0.384E-02    0.307E-01
DAV:   4    -0.122360529168E+04    0.37068E-03   -0.86330E-04   806   0.145E-02    0.171E-01
DAV:   5    -0.122360511935E+04    0.17233E-03   -0.20777E-04   702   0.716E-03    0.663E-02
DAV:   6    -0.122360508585E+04    0.33500E-04   -0.92003E-05   702   0.653E-03
  30 F= -.12539909E+04 E0= -.12539263E+04  d E =-.375103E-03
       N       E                     dE             d eps       ncg     rms          rms(c)
DAV:   1    -0.122360511691E+04    0.24454E-05   -0.17322E-02  1170   0.996E-02    0.478E-02
DAV:   2    -0.122360528802E+04   -0.17111E-03   -0.65289E-04  1066   0.230E-02    0.166E-01
DAV:   3    -0.122360528286E+04    0.51534E-05   -0.55182E-04   754   0.151E-02
  31 F= -.12539913E+04 E0= -.12539235E+04  d E =-.323448E-03
       N       E                     dE             d eps       ncg     rms          rms(c)
DAV:   1    -0.122360490147E+04    0.38655E-03   -0.15463E-01  1170   0.298E-01    0.163E-01
DAV:   2    -0.122361119397E+04   -0.62925E-02   -0.92728E-03  1742   0.763E-02    0.141E+00
DAV:   3    -0.122360718762E+04    0.40063E-02   -0.88719E-03  1287   0.557E-02    0.359E-01
DAV:   4    -0.122360585787E+04    0.13298E-02   -0.97519E-04  1066   0.239E-02    0.331E-01
DAV:   5    -0.122360525491E+04    0.60296E-03   -0.38792E-04   832   0.144E-02    0.109E-01
DAV:   6    -0.122360524955E+04    0.53517E-05   -0.38513E-04   754   0.121E-02
  32 F= -.12539916E+04 E0= -.12539255E+04  d E =-.671150E-03
       N       E                     dE             d eps       ncg     rms          rms(c)
DAV:   1    -0.122360515503E+04    0.99871E-04   -0.62034E-03  1131   0.582E-02    0.794E-02
DAV:   2    -0.122360672783E+04   -0.15728E-02   -0.35268E-03  1235   0.376E-02    0.440E-01
DAV:   3    -0.122360529040E+04    0.14374E-02   -0.39657E-03  1131   0.379E-02    0.174E-01
DAV:   4    -0.122360515858E+04    0.13183E-03   -0.29288E-04   715   0.106E-02    0.719E-02
DAV:   5    -0.122360512716E+04    0.31411E-04   -0.14776E-04   611   0.504E-03
  33 F= -.12539916E+04 E0= -.12539266E+04  d E =0.246917E-04
       N       E                     dE             d eps       ncg     rms          rms(c)
DAV:   1    -0.122360504920E+04    0.10938E-03   -0.56735E-02  1170   0.172E-01    0.852E-02
DAV:   2    -0.122360603042E+04   -0.98122E-03   -0.30060E-03  1638   0.488E-02    0.363E-01
DAV:   3    -0.122360536735E+04    0.66307E-03   -0.25051E-03  1105   0.299E-02    0.205E-01
DAV:   4    -0.122360522586E+04    0.14149E-03   -0.20667E-04   767   0.108E-02    0.109E-01
DAV:   5    -0.122360518779E+04    0.38070E-04   -0.74066E-05   689   0.659E-03
  34 F= -.12539919E+04 E0= -.12539276E+04  d E =-.329792E-03
       N       E                     dE             d eps       ncg     rms          rms(c)
DAV:   1    -0.122360435213E+04    0.87373E-03   -0.22547E-01  1170   0.344E-01    0.154E-01
DAV:   2    -0.122360683481E+04   -0.24827E-02   -0.10292E-02  1742   0.849E-02    0.496E-01
DAV:   3    -0.122360529501E+04    0.15398E-02   -0.78415E-03  1313   0.517E-02    0.344E-01
DAV:   4    -0.122360495156E+04    0.34345E-03   -0.87982E-04   923   0.196E-02    0.185E-01
DAV:   5    -0.122360484963E+04    0.10193E-03   -0.23397E-04   793   0.109E-02    0.140E-01
DAV:   6    -0.122360479732E+04    0.52313E-04   -0.47476E-04   832   0.133E-02
  35 F= -.12539921E+04 E0= -.12539262E+04  d E =-.530509E-03
       N       E                     dE             d eps       ncg     rms          rms(c)
DAV:   1    -0.122360462526E+04    0.22437E-03   -0.45166E-02  1170   0.151E-01    0.136E-01
DAV:   2    -0.122360887086E+04   -0.42456E-02   -0.14197E-02  1690   0.752E-02    0.701E-01
DAV:   3    -0.122360525170E+04    0.36192E-02   -0.13407E-02  1313   0.589E-02    0.253E-01
DAV:   4    -0.122360500560E+04    0.24610E-03   -0.17660E-03   858   0.154E-02    0.227E-01
DAV:   5    -0.122360481995E+04    0.18565E-03   -0.12333E-03   754   0.124E-02    0.125E-01
DAV:   6    -0.122360472614E+04    0.93811E-04   -0.81467E-04   741   0.121E-02
  36 F= -.12539923E+04 E0= -.12539274E+04  d E =-.164789E-03
       N       E                     dE             d eps       ncg     rms          rms(c)
DAV:   1    -0.122360373985E+04    0.10801E-02   -0.28532E-01  1170   0.380E-01    0.205E-01
DAV:   2    -0.122360740088E+04   -0.36610E-02   -0.19339E-02  1768   0.106E-01    0.654E-01
DAV:   3    -0.122360608334E+04    0.13175E-02   -0.18515E-02  1417   0.654E-02    0.626E-01
DAV:   4    -0.122360533408E+04    0.74925E-03   -0.48677E-03  1066   0.355E-02    0.355E-01
DAV:   5    -0.122360464613E+04    0.68795E-03   -0.52642E-04   871   0.150E-02    0.225E-01
DAV:   6    -0.122360432949E+04    0.31664E-03   -0.54450E-04   832   0.145E-02    0.138E-01
DAV:   7    -0.122360439973E+04   -0.70239E-04   -0.63166E-04   832   0.124E-02
  37 F= -.12539926E+04 E0= -.12539253E+04  d E =-.434733E-03
       N       E                     dE             d eps       ncg     rms          rms(c)
DAV:   1    -0.122360444062E+04   -0.11113E-03   -0.26025E-02  1170   0.120E-01    0.904E-02
DAV:   2    -0.122360503176E+04   -0.59114E-03   -0.18214E-03  1599   0.406E-02    0.300E-01
DAV:   3    -0.122360482995E+04    0.20181E-03   -0.18609E-03  1040   0.269E-02    0.273E-01
DAV:   4    -0.122360451817E+04    0.31178E-03   -0.61923E-04   845   0.167E-02    0.934E-02
DAV:   5    -0.122360445120E+04    0.66978E-04   -0.53954E-05   663   0.699E-03
  38 F= -.12539927E+04 E0= -.12539275E+04  d E =-.123649E-03
       N       E                     dE             d eps       ncg     rms          rms(c)
DAV:   1    -0.122360432837E+04    0.18981E-03   -0.66751E-02  1170   0.191E-01    0.985E-02
DAV:   2    -0.122360460005E+04   -0.27168E-03   -0.28468E-03  1690   0.481E-02    0.162E-01
DAV:   3    -0.122360520249E+04   -0.60244E-03   -0.26599E-03  1105   0.254E-02    0.417E-01
DAV:   4    -0.122360465896E+04    0.54354E-03   -0.15030E-03   975   0.214E-02    0.146E-01
DAV:   5    -0.122360451962E+04    0.13934E-03   -0.10166E-04   702   0.773E-03    0.945E-02
DAV:   6    -0.122360447002E+04    0.49602E-04   -0.59355E-05   676   0.581E-03
  39 F= -.12539928E+04 E0= -.12539282E+04  d E =-.259351E-03
       N       E                     dE             d eps       ncg     rms          rms(c)
DAV:   1    -0.122360461124E+04   -0.91623E-04   -0.26881E-02  1170   0.121E-01    0.704E-02
DAV:   2    -0.122360501385E+04   -0.40261E-03   -0.11863E-03  1482   0.335E-02    0.263E-01
DAV:   3    -0.122360498961E+04    0.24244E-04   -0.14070E-03  1040   0.230E-02    0.266E-01
DAV:   4    -0.122360476176E+04    0.22784E-03   -0.56966E-04   715   0.147E-02    0.126E-01
DAV:   5    -0.122360470341E+04    0.58350E-04   -0.78268E-05   624   0.764E-03
  40 F= -.12539931E+04 E0= -.12539274E+04  d E =-.283753E-03
       N       E                     dE             d eps       ncg     rms          rms(c)
DAV:   1    -0.122360454737E+04    0.21439E-03   -0.15034E-01  1170   0.284E-01    0.149E-01
DAV:   2    -0.122360530426E+04   -0.75689E-03   -0.48964E-03  1768   0.667E-02    0.283E-01
DAV:   3    -0.122360567844E+04   -0.37418E-03   -0.25870E-03  1222   0.327E-02    0.437E-01
DAV:   4    -0.122360509718E+04    0.58126E-03   -0.21592E-03  1079   0.280E-02    0.203E-01
DAV:   5    -0.122360480757E+04    0.28961E-03   -0.26711E-04   780   0.122E-02    0.533E-02
DAV:   6    -0.122360481355E+04   -0.59794E-05   -0.39028E-04   689   0.801E-03
  41 F= -.12539934E+04 E0= -.12539289E+04  d E =-.513763E-03
       N       E                     dE             d eps       ncg     rms          rms(c)
DAV:   1    -0.122360467797E+04    0.12960E-03   -0.30849E-02  1170   0.128E-01    0.691E-02
DAV:   2    -0.122360488243E+04   -0.20446E-03   -0.25825E-03  1508   0.332E-02    0.177E-01
DAV:   3    -0.122360489356E+04   -0.11133E-04   -0.27116E-03   858   0.162E-02    0.180E-01
DAV:   4    -0.122360484661E+04    0.46951E-04   -0.13774E-03   767   0.161E-02    0.141E-01
DAV:   5    -0.122360474513E+04    0.10148E-03   -0.40669E-04   650   0.755E-03    0.543E-02
DAV:   6    -0.122360474195E+04    0.31767E-05   -0.24348E-04   663   0.479E-03
  42 F= -.12539933E+04 E0= -.12539288E+04  d E =-.497656E-03
       N       E                     dE             d eps       ncg     rms          rms(c)
DAV:   1    -0.122360487338E+04   -0.12825E-03   -0.80176E-02  1170   0.210E-01    0.834E-02
DAV:   2    -0.122360562890E+04   -0.75552E-03   -0.37725E-03  1638   0.500E-02    0.318E-01
DAV:   3    -0.122360519899E+04    0.42991E-03   -0.24073E-03  1079   0.258E-02    0.198E-01
DAV:   4    -0.122360510403E+04    0.94959E-04   -0.41631E-04   741   0.130E-02
  43 F= -.12539939E+04 E0= -.12539312E+04  d E =-.530438E-03
       N       E                     dE             d eps       ncg     rms          rms(c)
DAV:   1    -0.122360483161E+04    0.36738E-03   -0.86840E-02  1170   0.218E-01    0.105E-01
DAV:   2    -0.122360534856E+04   -0.51695E-03   -0.26147E-03  1638   0.456E-02    0.281E-01
DAV:   3    -0.122360544714E+04   -0.98583E-04   -0.22143E-03  1105   0.281E-02    0.279E-01
DAV:   4    -0.122360494183E+04    0.50531E-03   -0.75892E-04   832   0.185E-02    0.647E-02
DAV:   5    -0.122360493427E+04    0.75622E-05   -0.97616E-05   741   0.675E-03
  44 F= -.12539939E+04 E0= -.12539303E+04  d E =-.537906E-03
       N       E                     dE             d eps       ncg     rms          rms(c)
DAV:   1    -0.122360481252E+04    0.12931E-03   -0.11826E-01  1170   0.260E-01    0.113E-01
DAV:   2    -0.122360528048E+04   -0.46796E-03   -0.47444E-03  1690   0.500E-02    0.226E-01
DAV:   3    -0.122360582573E+04   -0.54525E-03   -0.42740E-03  1183   0.285E-02    0.435E-01
DAV:   4    -0.122360527378E+04    0.55195E-03   -0.20468E-03  1027   0.236E-02    0.178E-01
DAV:   5    -0.122360507405E+04    0.19973E-03   -0.20871E-04   754   0.962E-03    0.106E-01
DAV:   6    -0.122360501681E+04    0.57238E-04   -0.15164E-04   715   0.777E-03
  45 F= -.12539942E+04 E0= -.12539297E+04  d E =-.349039E-03
       N       E                     dE             d eps       ncg     rms          rms(c)
DAV:   1    -0.122360486460E+04    0.20945E-03   -0.19798E-02  1170   0.108E-01    0.637E-02
DAV:   2    -0.122360511309E+04   -0.24849E-03   -0.70591E-04  1248   0.258E-02    0.214E-01
DAV:   3    -0.122360519233E+04   -0.79242E-04   -0.89952E-04   897   0.195E-02
  46 F= -.12539945E+04 E0= -.12539254E+04  d E =-.635577E-03
       N       E                     dE             d eps       ncg     rms          rms(c)
DAV:   1    -0.122360458992E+04    0.52317E-03   -0.11882E-01  1170   0.248E-01    0.139E-01
DAV:   2    -0.122360572802E+04   -0.11381E-02   -0.40270E-03  1690   0.573E-02    0.464E-01
DAV:   3    -0.122360620569E+04   -0.47767E-03   -0.44679E-03  1248   0.375E-02    0.423E-01
DAV:   4    -0.122360503911E+04    0.11666E-02   -0.22713E-03  1053   0.271E-02    0.181E-01
DAV:   5    -0.122360511484E+04   -0.75729E-04   -0.30509E-04   897   0.114E-02
  47 F= -.12539948E+04 E0= -.12539301E+04  d E =-.330285E-03
       N       E                     dE             d eps       ncg     rms          rms(c)
DAV:   1    -0.122360435557E+04    0.68354E-03   -0.87049E-02  1170   0.213E-01    0.964E-02
DAV:   2    -0.122360500958E+04   -0.65401E-03   -0.33090E-03  1729   0.552E-02    0.320E-01
DAV:   3    -0.122360462041E+04    0.38917E-03   -0.12195E-03  1092   0.214E-02    0.160E-01
DAV:   4    -0.122360468834E+04   -0.67936E-04   -0.52027E-04   845   0.144E-02
  48 F= -.12539948E+04 E0= -.12539334E+04  d E =-.256185E-03
       N       E                     dE             d eps       ncg     rms          rms(c)
DAV:   1    -0.122360415403E+04    0.46638E-03   -0.13059E-01  1170   0.252E-01    0.165E-01
DAV:   2    -0.122360887548E+04   -0.47214E-02   -0.11051E-02  1755   0.810E-02    0.703E-01
DAV:   3    -0.122360485304E+04    0.40224E-02   -0.10884E-02  1430   0.671E-02    0.246E-01
DAV:   4    -0.122360480703E+04    0.46019E-04   -0.53289E-04   936   0.177E-02
  49 F= -.12539955E+04 E0= -.12539323E+04  d E =-.713500E-03
       N       E                     dE             d eps       ncg     rms          rms(c)
DAV:   1    -0.122360437417E+04    0.47887E-03   -0.12764E-02  1183   0.801E-02    0.141E-01
DAV:   2    -0.122361488177E+04   -0.10508E-01   -0.12255E-02  1391   0.669E-02    0.192E+00
DAV:   3    -0.122360678602E+04    0.80957E-02   -0.10993E-02  1287   0.648E-02    0.400E-01
DAV:   4    -0.122360431220E+04    0.24738E-02   -0.11475E-03  1053   0.213E-02    0.553E-02
DAV:   5    -0.122360430073E+04    0.11470E-04   -0.24575E-04   754   0.102E-02
  50 F= -.12539952E+04 E0= -.12539322E+04  d E =-.390185E-03
       N       E                     dE             d eps       ncg     rms          rms(c)
DAV:   1    -0.122360384915E+04    0.46305E-03   -0.12644E-01  1170   0.263E-01    0.130E-01
DAV:   2    -0.122360459193E+04   -0.74278E-03   -0.49387E-03  1729   0.623E-02    0.327E-01
DAV:   3    -0.122360488889E+04   -0.29696E-03   -0.38245E-03  1261   0.343E-02    0.332E-01
DAV:   4    -0.122360417253E+04    0.71636E-03   -0.11917E-03   936   0.231E-02    0.108E-01
DAV:   5    -0.122360415282E+04    0.19712E-04   -0.13754E-04   689   0.736E-03
  51 F= -.12539957E+04 E0= -.12539320E+04  d E =-.534557E-03
       N       E                     dE             d eps       ncg     rms          rms(c)
DAV:   1    -0.122360330828E+04    0.86425E-03   -0.12770E-01  1170   0.264E-01    0.146E-01
DAV:   2    -0.122360392040E+04   -0.61212E-03   -0.55283E-03  1742   0.611E-02    0.280E-01
DAV:   3    -0.122360426896E+04   -0.34856E-03   -0.50417E-03  1222   0.295E-02    0.324E-01
DAV:   4    -0.122360375016E+04    0.51880E-03   -0.35482E-03  1118   0.302E-02    0.226E-01
DAV:   5    -0.122360355714E+04    0.19302E-03   -0.89721E-04   832   0.126E-02    0.107E-01
DAV:   6    -0.122360356415E+04   -0.70076E-05   -0.83951E-04   728   0.763E-03
  52 F= -.12539958E+04 E0= -.12539321E+04  d E =-.636525E-03
       N       E                     dE             d eps       ncg     rms          rms(c)
DAV:   1    -0.122360290398E+04    0.65316E-03   -0.15170E-01  1170   0.281E-01    0.125E-01
DAV:   2    -0.122360373118E+04   -0.82720E-03   -0.66821E-03  1703   0.602E-02    0.313E-01
DAV:   3    -0.122360417257E+04   -0.44139E-03   -0.59510E-03  1261   0.361E-02    0.477E-01
DAV:   4    -0.122360347305E+04    0.69952E-03   -0.21662E-03  1027   0.243E-02    0.179E-01
DAV:   5    -0.122360327296E+04    0.20008E-03   -0.22102E-04   728   0.101E-02    0.122E-01
DAV:   6    -0.122360319398E+04    0.78986E-04   -0.15957E-04   676   0.877E-03
  53 F= -.12539961E+04 E0= -.12539314E+04  d E =-.322967E-03
       N       E                     dE             d eps       ncg     rms          rms(c)
DAV:   1    -0.122360243406E+04    0.83891E-03   -0.14081E-01  1170   0.272E-01    0.145E-01
DAV:   2    -0.122360308953E+04   -0.65548E-03   -0.37587E-03  1742   0.581E-02    0.290E-01
DAV:   3    -0.122360287657E+04    0.21296E-03   -0.66407E-04   923   0.135E-02    0.174E-01
DAV:   4    -0.122360283071E+04    0.45858E-04   -0.68216E-04   845   0.155E-02
  54 F= -.12539964E+04 E0= -.12539308E+04  d E =-.630451E-03
       N       E                     dE             d eps       ncg     rms          rms(c)
DAV:   1    -0.122360263596E+04    0.24062E-03   -0.98196E-02  1170   0.224E-01    0.158E-01
DAV:   2    -0.122362228883E+04   -0.19653E-01   -0.21520E-02  1625   0.925E-02    0.284E+00
DAV:   3    -0.122360797756E+04    0.14311E-01   -0.15717E-02  1417   0.761E-02    0.441E-01
DAV:   4    -0.122360306640E+04    0.49112E-02   -0.26495E-03  1209   0.330E-02    0.170E-01
DAV:   5    -0.122360282465E+04    0.24176E-03   -0.86931E-04   806   0.151E-02    0.176E-01
DAV:   6    -0.122360270570E+04    0.11895E-03   -0.98314E-04   728   0.960E-03    0.967E-02
DAV:   7    -0.122360271484E+04   -0.91434E-05   -0.12505E-03   702   0.103E-02    0.116E-01
DAV:   8    -0.122360265109E+04    0.63754E-04   -0.83795E-04   637   0.739E-03
  55 F= -.12539967E+04 E0= -.12539317E+04  d E =-.296694E-03
       N       E                     dE             d eps       ncg     rms          rms(c)
DAV:   1    -0.122360058672E+04    0.21281E-02   -0.88168E-01  1170   0.670E-01    0.264E-01
DAV:   2    -0.122361567299E+04   -0.15086E-01   -0.39845E-02  1716   0.166E-01    0.228E+00
DAV:   3    -0.122360649633E+04    0.91767E-02   -0.19175E-02  1508   0.794E-02    0.463E-01
DAV:   4    -0.122360340099E+04    0.30953E-02   -0.22676E-03  1300   0.352E-02    0.437E-01
DAV:   5    -0.122360248028E+04    0.92071E-03   -0.10841E-03  1066   0.213E-02    0.215E-01
DAV:   6    -0.122360236873E+04    0.11155E-03   -0.11576E-03  1027   0.193E-02    0.228E-01
DAV:   7    -0.122360222832E+04    0.14041E-03   -0.11591E-03   949   0.155E-02    0.170E-01
DAV:   8    -0.122360212727E+04    0.10106E-03   -0.97030E-04   793   0.112E-02    0.121E-01
DAV:   9    -0.122360206311E+04    0.64150E-04   -0.75819E-04   689   0.823E-03
  56 F= -.12539976E+04 E0= -.12539331E+04  d E =-.114377E-02
       N       E                     dE             d eps       ncg     rms          rms(c)
DAV:   1    -0.122360152434E+04    0.60292E-03   -0.72179E-02  1170   0.192E-01    0.782E-02
DAV:   2    -0.122360202238E+04   -0.49804E-03   -0.32886E-03  1599   0.436E-02    0.275E-01
DAV:   3    -0.122360193771E+04    0.84677E-04   -0.22898E-03  1027   0.228E-02    0.203E-01
DAV:   4    -0.122360169977E+04    0.23794E-03   -0.59609E-04   793   0.150E-02    0.884E-02
DAV:   5    -0.122360168059E+04    0.19177E-04   -0.23134E-04   637   0.567E-03
  57 F= -.12539976E+04 E0= -.12539329E+04  d E =-.117208E-02
       N       E                     dE             d eps       ncg     rms          rms(c)
DAV:   1    -0.122360131348E+04    0.38629E-03   -0.17538E-01  1170   0.289E-01    0.137E-01
DAV:   2    -0.122360326128E+04   -0.19478E-02   -0.72332E-03  1664   0.694E-02    0.652E-01
DAV:   3    -0.122360218466E+04    0.10766E-02   -0.46789E-03  1261   0.389E-02    0.280E-01
DAV:   4    -0.122360170567E+04    0.47899E-03   -0.54289E-04   793   0.167E-02    0.127E-01
DAV:   5    -0.122360164101E+04    0.64658E-04   -0.28613E-04   741   0.857E-03
  58 F= -.12539982E+04 E0= -.12539342E+04  d E =-.628413E-03
       N       E                     dE             d eps       ncg     rms          rms(c)
DAV:   1    -0.122359762094E+04    0.40847E-02   -0.15804E+00  1170   0.866E-01    0.384E-01
DAV:   2    -0.122361115011E+04   -0.13529E-01   -0.55819E-02  1716   0.202E-01    0.192E+00
DAV:   3    -0.122360561990E+04    0.55302E-02   -0.25288E-02  1651   0.974E-02    0.618E-01
DAV:   4    -0.122360132751E+04    0.42924E-02   -0.29567E-03  1313   0.393E-02    0.376E-01
DAV:   5    -0.122360090242E+04    0.42509E-03   -0.13179E-03  1417   0.228E-02    0.325E-01
DAV:   6    -0.122360086305E+04    0.39369E-04   -0.33472E-03  1131   0.222E-02    0.317E-01
DAV:   7    -0.122360076097E+04    0.10208E-03   -0.44346E-03   949   0.205E-02    0.261E-01
DAV:   8    -0.122360040421E+04    0.35677E-03   -0.39163E-03   884   0.178E-02    0.152E-01
DAV:   9    -0.122360036365E+04    0.40554E-04   -0.27594E-03   702   0.113E-02    0.119E-01
DAV:  10    -0.122360029053E+04    0.73125E-04   -0.16577E-03   689   0.879E-03    0.760E-02
DAV:  11    -0.122360029300E+04   -0.24757E-05   -0.10234E-03   637   0.578E-03    0.738E-02
DAV:  12    -0.122360026334E+04    0.29664E-04   -0.55169E-04   637   0.505E-03
  59 F= -.12539989E+04 E0= -.12539344E+04  d E =-.126408E-02
       N       E                     dE             d eps       ncg     rms          rms(c)
DAV:   1    -0.122359978611E+04    0.50690E-03   -0.18085E-01  1170   0.293E-01    0.145E-01
DAV:   2    -0.122360193566E+04   -0.21496E-02   -0.86034E-03  1703   0.779E-02    0.688E-01
DAV:   3    -0.122360094094E+04    0.99472E-03   -0.54489E-03  1300   0.418E-02    0.301E-01
DAV:   4    -0.122360026769E+04    0.67325E-03   -0.57196E-04   871   0.183E-02    0.141E-01
DAV:   5    -0.122360017317E+04    0.94524E-04   -0.18385E-04   689   0.856E-03
  60 F= -.12539994E+04 E0= -.12539354E+04  d E =-.588199E-03
       N       E                     dE             d eps       ncg     rms          rms(c)
DAV:   1    -0.122359627305E+04    0.39946E-02   -0.16176E+00  1170   0.878E-01    0.420E-01
DAV:   2    -0.122361477082E+04   -0.18498E-01   -0.60465E-02  1716   0.221E-01    0.243E+00
DAV:   3    -0.122360541723E+04    0.93536E-02   -0.28153E-02  1703   0.107E-01    0.650E-01
DAV:   4    -0.122360046505E+04    0.49522E-02   -0.31808E-03  1274   0.389E-02    0.438E-01
DAV:   5    -0.122359989515E+04    0.56990E-03   -0.13161E-03  1365   0.244E-02    0.370E-01
DAV:   6    -0.122360003837E+04   -0.14321E-03   -0.39616E-03  1196   0.278E-02    0.427E-01
DAV:   7    -0.122359957624E+04    0.46213E-03   -0.40559E-03   988   0.209E-02    0.254E-01
DAV:   8    -0.122359931397E+04    0.26227E-03   -0.29440E-03   819   0.162E-02    0.222E-01
DAV:   9    -0.122359908695E+04    0.22702E-03   -0.21580E-03   663   0.109E-02    0.113E-01
DAV:  10    -0.122359905808E+04    0.28874E-04   -0.12271E-03   689   0.959E-03    0.795E-02
DAV:  11    -0.122359902550E+04    0.32579E-04   -0.70397E-04   637   0.589E-03
  61 F= -.12540003E+04 E0= -.12539357E+04  d E =-.148392E-02
       N       E                     dE             d eps       ncg     rms          rms(c)
DAV:   1    -0.122359839993E+04    0.65815E-03   -0.98784E-02  1170   0.217E-01    0.107E-01
DAV:   2    -0.122359963074E+04   -0.12308E-02   -0.49003E-03  1638   0.581E-02    0.502E-01
DAV:   3    -0.122359900202E+04    0.62872E-03   -0.31658E-03  1235   0.318E-02    0.223E-01
DAV:   4    -0.122359866815E+04    0.33387E-03   -0.31492E-04   806   0.143E-02    0.110E-01
DAV:   5    -0.122359861620E+04    0.51953E-04   -0.10627E-04   650   0.645E-03
  62 F= -.12540004E+04 E0= -.12539360E+04  d E =-.157870E-02
       N       E                     dE             d eps       ncg     rms          rms(c)
DAV:   1    -0.122359692120E+04    0.17469E-02   -0.39022E-01  1170   0.432E-01    0.214E-01
DAV:   2    -0.122360081980E+04   -0.38986E-02   -0.14754E-02  1716   0.108E-01    0.943E-01
DAV:   3    -0.122359918619E+04    0.16336E-02   -0.97264E-03  1430   0.594E-02    0.423E-01
DAV:   4    -0.122359778731E+04    0.13989E-02   -0.13437E-03  1040   0.270E-02    0.177E-01
DAV:   5    -0.122359768422E+04    0.10309E-03   -0.46450E-04   897   0.122E-02    0.172E-01
DAV:   6    -0.122359767876E+04    0.54689E-05   -0.10951E-03   858   0.126E-02    0.158E-01
DAV:   7    -0.122359764225E+04    0.36502E-04   -0.15191E-03   793   0.128E-02    0.126E-01
DAV:   8    -0.122359759041E+04    0.51843E-04   -0.11652E-03   728   0.109E-02    0.771E-02
DAV:   9    -0.122359757135E+04    0.19063E-04   -0.85578E-04   637   0.610E-03
  63 F= -.12540004E+04 E0= -.12539354E+04  d E =-.154427E-02
       N       E                     dE             d eps       ncg     rms          rms(c)
DAV:   1    -0.122359636820E+04    0.12222E-02   -0.46752E-01  1170   0.465E-01    0.204E-01
DAV:   2    -0.122359944904E+04   -0.30808E-02   -0.16073E-02  1703   0.112E-01    0.771E-01
DAV:   3    -0.122359864242E+04    0.80661E-03   -0.79372E-03  1404   0.529E-02    0.391E-01
DAV:   4    -0.122359748480E+04    0.11576E-02   -0.96713E-04  1053   0.261E-02    0.193E-01
DAV:   5    -0.122359732309E+04    0.16171E-03   -0.25548E-04   897   0.123E-02    0.145E-01
DAV:   6    -0.122359732527E+04   -0.21772E-05   -0.45114E-04   897   0.131E-02
  64 F= -.12540013E+04 E0= -.12539358E+04  d E =-.920008E-03
       N       E                     dE             d eps       ncg     rms          rms(c)
DAV:   1    -0.122358699298E+04    0.10330E-01   -0.41890E+00  1170   0.140E+00    0.590E-01
DAV:   2    -0.122360493676E+04   -0.17944E-01   -0.12187E-01  1755   0.322E-01    0.187E+00
DAV:   3    -0.122360501828E+04   -0.81514E-04   -0.48621E-02  1781   0.136E-01    0.830E-01
DAV:   4    -0.122359809512E+04    0.69232E-02   -0.69767E-03  1638   0.684E-02    0.665E-01
DAV:   5    -0.122359609285E+04    0.20023E-02   -0.23337E-03  1495   0.351E-02    0.469E-01
DAV:   6    -0.122359762573E+04   -0.15329E-02   -0.73050E-03  1573   0.581E-02    0.883E-01
DAV:   7    -0.122359579235E+04    0.18334E-02   -0.41228E-03  1456   0.473E-02    0.324E-01
DAV:   8    -0.122359497097E+04    0.82137E-03   -0.65826E-04   962   0.222E-02    0.199E-01
DAV:   9    -0.122359475246E+04    0.21851E-03   -0.24761E-04   689   0.129E-02    0.155E-01
DAV:  10    -0.122359464659E+04    0.10588E-03   -0.30302E-04   689   0.931E-03    0.953E-02
DAV:  11    -0.122359459550E+04    0.51091E-04   -0.20128E-04   637   0.775E-03
  65 F= -.12540021E+04 E0= -.12539382E+04  d E =-.171220E-02
       N       E                     dE             d eps       ncg     rms          rms(c)
DAV:   1    -0.122359250032E+04    0.21463E-02   -0.96615E-01  1170   0.703E-01    0.274E-01
DAV:   2    -0.122359518727E+04   -0.26870E-02   -0.24761E-02  1703   0.141E-01    0.446E-01
DAV:   3    -0.122359793362E+04   -0.27463E-02   -0.13952E-02  1547   0.723E-02    0.590E-01
DAV:   4    -0.122359431409E+04    0.36195E-02   -0.74195E-03  1339   0.581E-02    0.186E-01
DAV:   5    -0.122359428056E+04    0.33528E-04   -0.47935E-04  1040   0.150E-02
  66 F= -.12540036E+04 E0= -.12539416E+04  d E =-.147532E-02
       N       E                     dE             d eps       ncg     rms          rms(c)
DAV:   1    -0.122357577798E+04    0.18536E-01   -0.86528E+00  1170   0.211E+00    0.867E-01
DAV:   2    -0.122360413638E+04   -0.28358E-01   -0.23837E-01  1677   0.442E-01    0.136E+00
DAV:   3    -0.122362779163E+04   -0.23655E-01   -0.18697E-01  1690   0.211E-01    0.384E+00
DAV:   4    -0.122361090638E+04    0.16885E-01   -0.11138E-01  1599   0.146E-01    0.895E-01
DAV:   5    -0.122359818090E+04    0.12725E-01   -0.54285E-02  1612   0.724E-02    0.109E+00
DAV:   6    -0.122359344515E+04    0.47357E-02   -0.45028E-02  1586   0.474E-02    0.560E-01
DAV:   7    -0.122359211635E+04    0.13288E-02   -0.33580E-02  1378   0.552E-02    0.701E-01
DAV:   8    -0.122359027429E+04    0.18421E-02   -0.22838E-02  1339   0.307E-02    0.264E-01
DAV:   9    -0.122359017841E+04    0.95881E-04   -0.11631E-02  1144   0.267E-02    0.402E-01
DAV:  10    -0.122358978098E+04    0.39743E-03   -0.88894E-03   858   0.183E-02    0.253E-01
DAV:  11    -0.122358964224E+04    0.13874E-03   -0.43192E-03   754   0.141E-02    0.215E-01
DAV:  12    -0.122358959325E+04    0.48986E-04   -0.29090E-03   728   0.976E-03    0.215E-01
DAV:  13    -0.122358947998E+04    0.11328E-03   -0.11833E-03   715   0.871E-03    0.115E-01
DAV:  14    -0.122358948987E+04   -0.98959E-05   -0.68705E-04   676   0.622E-03
  67 F= -.12540042E+04 E0= -.12539390E+04  d E =-.209758E-02
       N       E                     dE             d eps       ncg     rms          rms(c)
DAV:   1    -0.122359000685E+04   -0.52687E-03   -0.77328E-01  1170   0.630E-01    0.251E-01
DAV:   2    -0.122359416646E+04   -0.41596E-02   -0.27011E-02  1690   0.146E-01    0.562E-01
DAV:   3    -0.122359393931E+04    0.22716E-03   -0.16852E-02  1534   0.769E-02    0.821E-01
DAV:   4    -0.122359250527E+04    0.14340E-02   -0.40613E-03  1391   0.488E-02    0.339E-01
DAV:   5    -0.122359190036E+04    0.60491E-03   -0.68833E-04  1027   0.183E-02    0.267E-01
DAV:   6    -0.122359149717E+04    0.40319E-03   -0.53603E-04   936   0.200E-02    0.123E-01
DAV:   7    -0.122359163249E+04   -0.13532E-03   -0.61424E-04   845   0.131E-02    0.228E-01
DAV:   8    -0.122359143200E+04    0.20049E-03   -0.59565E-04   689   0.108E-02    0.811E-02
DAV:   9    -0.122359144073E+04   -0.87297E-05   -0.60220E-04   689   0.848E-03
  68 F= -.12540045E+04 E0= -.12539392E+04  d E =-.242632E-02
       N       E                     dE             d eps       ncg     rms          rms(c)
DAV:   1    -0.122358808926E+04    0.33427E-02   -0.16028E+00  1170   0.899E-01    0.340E-01
DAV:   2    -0.122359131430E+04   -0.32250E-02   -0.40552E-02  1690   0.179E-01    0.229E-01
DAV:   3    -0.122359117529E+04    0.13900E-03   -0.55983E-03  1404   0.392E-02    0.270E-01
DAV:   4    -0.122359142988E+04   -0.25459E-03   -0.85829E-03  1339   0.276E-02    0.314E-01
DAV:   5    -0.122359310544E+04   -0.16756E-02   -0.86301E-03  1313   0.452E-02    0.773E-01
DAV:   6    -0.122359148244E+04    0.16230E-02   -0.36693E-03  1248   0.414E-02    0.227E-01
DAV:   7    -0.122359109762E+04    0.38482E-03   -0.40616E-04   923   0.163E-02    0.188E-01
DAV:   8    -0.122359090310E+04    0.19451E-03   -0.18897E-04   702   0.970E-03    0.849E-02
DAV:   9    -0.122359090739E+04   -0.42841E-05   -0.81996E-05   637   0.817E-03
  69 F= -.12540062E+04 E0= -.12539419E+04  d E =-.168938E-02
       N       E                     dE             d eps       ncg     rms          rms(c)
DAV:   1    -0.122358299790E+04    0.79052E-02   -0.31142E+00  1170   0.125E+00    0.473E-01
DAV:   2    -0.122358968789E+04   -0.66900E-02   -0.77974E-02  1690   0.248E-01    0.432E-01
DAV:   3    -0.122359833762E+04   -0.86497E-02   -0.33402E-02  1729   0.115E-01    0.909E-01
DAV:   4    -0.122358925591E+04    0.90817E-02   -0.22924E-02  1560   0.958E-02    0.326E-01
DAV:   5    -0.122358930307E+04   -0.47166E-04   -0.22834E-03  1365   0.310E-02    0.371E-01
DAV:   6    -0.122358872828E+04    0.57480E-03   -0.13854E-03  1482   0.299E-02    0.206E-01
DAV:   7    -0.122358880867E+04   -0.80399E-04   -0.12454E-03  1248   0.292E-02    0.258E-01
DAV:   8    -0.122358850197E+04    0.30671E-03   -0.60549E-04   806   0.149E-02    0.648E-02
DAV:   9    -0.122358853635E+04   -0.34379E-04   -0.54940E-04   715   0.101E-02
  70 F= -.12540070E+04 E0= -.12539426E+04  d E =-.243705E-02
       N       E                     dE             d eps       ncg     rms          rms(c)
DAV:   1    -0.122358268033E+04    0.58216E-02   -0.23535E+00  1170   0.105E+00    0.453E-01
DAV:   2    -0.122358792506E+04   -0.52447E-02   -0.64077E-02  1703   0.226E-01    0.310E-01
DAV:   3    -0.122359031581E+04   -0.23908E-02   -0.11662E-02  1612   0.698E-02    0.646E-01
DAV:   4    -0.122358840409E+04    0.19117E-02   -0.12929E-02  1443   0.661E-02    0.502E-01
DAV:   5    -0.122358875747E+04   -0.35338E-03   -0.45297E-03  1300   0.452E-02    0.445E-01
DAV:   6    -0.122358801975E+04    0.73772E-03   -0.21189E-03  1092   0.220E-02    0.319E-01
DAV:   7    -0.122358744103E+04    0.57873E-03   -0.19728E-03  1027   0.224E-02    0.191E-01
DAV:   8    -0.122358732052E+04    0.12050E-03   -0.46706E-04   741   0.122E-02    0.114E-01
DAV:   9    -0.122358732792E+04   -0.73937E-05   -0.90800E-04   780   0.110E-02
  71 F= -.12540084E+04 E0= -.12539449E+04  d E =-.145393E-02
       N       E                     dE             d eps       ncg     rms          rms(c)
DAV:   1    -0.122358471841E+04    0.26021E-02   -0.63641E-01  1170   0.549E-01    0.233E-01
DAV:   2    -0.122358625662E+04   -0.15382E-02   -0.18855E-02  1703   0.119E-01    0.232E-01
DAV:   3    -0.122358702164E+04   -0.76502E-03   -0.82653E-03  1326   0.379E-02    0.395E-01
DAV:   4    -0.122358679152E+04    0.23012E-03   -0.85704E-03  1326   0.469E-02    0.441E-01
DAV:   5    -0.122358619000E+04    0.60152E-03   -0.23563E-03  1105   0.271E-02    0.195E-01
DAV:   6    -0.122358617998E+04    0.10019E-04   -0.10914E-03   871   0.128E-02    0.206E-01
DAV:   7    -0.122358596715E+04    0.21283E-03   -0.14053E-03   871   0.150E-02    0.735E-02
DAV:   8    -0.122358600333E+04   -0.36183E-04   -0.81199E-04   676   0.905E-03
  72 F= -.12540085E+04 E0= -.12539438E+04  d E =-.152181E-02
       N       E                     dE             d eps       ncg     rms          rms(c)
DAV:   1    -0.122358060797E+04    0.53592E-02   -0.22130E+00  1170   0.104E+00    0.464E-01
DAV:   2    -0.122358675718E+04   -0.61492E-02   -0.64290E-02  1729   0.238E-01    0.467E-01
DAV:   3    -0.122361293452E+04   -0.26177E-01   -0.44687E-02  1664   0.146E-01    0.346E+00
DAV:   4    -0.122359418341E+04    0.18751E-01   -0.22466E-02  1547   0.969E-02    0.558E-01
DAV:   5    -0.122358645105E+04    0.77324E-02   -0.41275E-03  1352   0.424E-02    0.432E-01
DAV:   6    -0.122358548946E+04    0.96159E-03   -0.12663E-03  1326   0.289E-02    0.247E-01
DAV:   7    -0.122358542833E+04    0.61135E-04   -0.30926E-03  1079   0.199E-02    0.272E-01
DAV:   8    -0.122358523229E+04    0.19604E-03   -0.31664E-03   845   0.157E-02    0.167E-01
DAV:   9    -0.122358513112E+04    0.10117E-03   -0.23299E-03   715   0.126E-02    0.174E-01
DAV:  10    -0.122358504566E+04    0.85454E-04   -0.15443E-03   663   0.884E-03    0.900E-02
DAV:  11    -0.122358500877E+04    0.36891E-04   -0.98683E-04   650   0.754E-03
  73 F= -.12540100E+04 E0= -.12539449E+04  d E =-.147024E-02
       N       E                     dE             d eps       ncg     rms          rms(c)
DAV:   1    -0.122358421277E+04    0.83290E-03   -0.12570E-01  1170   0.248E-01    0.121E-01
DAV:   2    -0.122358515442E+04   -0.94165E-03   -0.59754E-03  1729   0.639E-02    0.324E-01
DAV:   3    -0.122358514018E+04    0.14239E-04   -0.50885E-03  1300   0.402E-02    0.395E-01
DAV:   4    -0.122358464552E+04    0.49466E-03   -0.12542E-03  1066   0.227E-02    0.157E-01
DAV:   5    -0.122358453790E+04    0.10762E-03   -0.11652E-04   676   0.875E-03    0.115E-01
DAV:   6    -0.122358446803E+04    0.69873E-04   -0.13141E-04   689   0.875E-03
  74 F= -.12540100E+04 E0= -.12539457E+04  d E =-.151830E-02
       N       E                     dE             d eps       ncg     rms          rms(c)
DAV:   1    -0.122358218006E+04    0.23578E-02   -0.49651E-01  1170   0.496E-01    0.237E-01
DAV:   2    -0.122358508178E+04   -0.29017E-02   -0.17567E-02  1729   0.122E-01    0.544E-01
DAV:   3    -0.122358649032E+04   -0.14085E-02   -0.14273E-02  1573   0.763E-02    0.958E-01
DAV:   4    -0.122358453863E+04    0.19517E-02   -0.66035E-03  1287   0.480E-02    0.356E-01
DAV:   5    -0.122358348411E+04    0.10545E-02   -0.84489E-04   988   0.208E-02    0.244E-01
DAV:   6    -0.122358317275E+04    0.31136E-03   -0.51019E-04   780   0.140E-02    0.121E-01
DAV:   7    -0.122358330705E+04   -0.13430E-03   -0.85142E-04   832   0.142E-02    0.218E-01
DAV:   8    -0.122358313428E+04    0.17278E-03   -0.78094E-04   715   0.104E-02    0.826E-02
DAV:   9    -0.122358311333E+04    0.20945E-04   -0.38448E-04   676   0.854E-03
  75 F= -.12540098E+04 E0= -.12539448E+04  d E =-.134430E-02
       N       E                     dE             d eps       ncg     rms          rms(c)
DAV:   1    -0.122358361118E+04   -0.47690E-03   -0.24352E-01  1170   0.347E-01    0.160E-01
DAV:   2    -0.122358435362E+04   -0.74244E-03   -0.78378E-03  1742   0.796E-02    0.215E-01
DAV:   3    -0.122358630556E+04   -0.19519E-02   -0.64864E-03  1261   0.431E-02    0.767E-01
DAV:   4    -0.122358457091E+04    0.17347E-02   -0.37086E-03  1183   0.383E-02    0.207E-01
DAV:   5    -0.122358425651E+04    0.31440E-03   -0.28240E-04   819   0.129E-02    0.157E-01
DAV:   6    -0.122358411384E+04    0.14268E-03   -0.12221E-04   702   0.957E-03    0.715E-02
DAV:   7    -0.122358416115E+04   -0.47314E-04   -0.11979E-04   741   0.864E-03
  76 F= -.12540101E+04 E0= -.12539449E+04  d E =-.156882E-02
       N       E                     dE             d eps       ncg     rms          rms(c)
DAV:   1    -0.122358136323E+04    0.27506E-02   -0.12917E+00  1170   0.815E-01    0.334E-01
DAV:   2    -0.122358429341E+04   -0.29302E-02   -0.34609E-02  1755   0.173E-01    0.307E-01
DAV:   3    -0.122358557466E+04   -0.12812E-02   -0.58214E-03  1508   0.490E-02    0.541E-01
DAV:   4    -0.122358613990E+04   -0.56525E-03   -0.96305E-03  1417   0.603E-02    0.755E-01
DAV:   5    -0.122358462292E+04    0.15170E-02   -0.39438E-03  1196   0.388E-02    0.299E-01
DAV:   6    -0.122358420315E+04    0.41977E-03   -0.99076E-04   949   0.187E-02    0.288E-01
DAV:   7    -0.122358383377E+04    0.36938E-03   -0.14676E-03   949   0.165E-02    0.108E-01
DAV:   8    -0.122358384863E+04   -0.14865E-04   -0.12844E-03   754   0.129E-02    0.156E-01
DAV:   9    -0.122358370965E+04    0.13898E-03   -0.97592E-04   650   0.876E-03    0.581E-02
DAV:  10    -0.122358372274E+04   -0.13092E-04   -0.59924E-04   650   0.743E-03
  77 F= -.12540111E+04 E0= -.12539470E+04  d E =-.105200E-02
       N       E                     dE             d eps       ncg     rms          rms(c)
DAV:   1    -0.122358328037E+04    0.42928E-03   -0.59814E-02  1170   0.176E-01    0.749E-02
DAV:   2    -0.122358361431E+04   -0.33394E-03   -0.24429E-03  1612   0.424E-02    0.211E-01
DAV:   3    -0.122358363160E+04   -0.17291E-04   -0.16145E-03  1066   0.213E-02    0.192E-01
DAV:   4    -0.122358346386E+04    0.16774E-03   -0.52846E-04   793   0.168E-02    0.105E-01
DAV:   5    -0.122358342572E+04    0.38140E-04   -0.43551E-05   650   0.540E-03
  78 F= -.12540111E+04 E0= -.12539468E+04  d E =-.107626E-02
       N       E                     dE             d eps       ncg     rms          rms(c)
DAV:   1    -0.122358260250E+04    0.86136E-03   -0.55335E-01  1170   0.564E-01    0.198E-01
DAV:   2    -0.122358450819E+04   -0.19057E-02   -0.14587E-02  1781   0.112E-01    0.488E-01
DAV:   3    -0.122358477941E+04   -0.27122E-03   -0.63085E-03  1417   0.509E-02    0.403E-01
DAV:   4    -0.122358361761E+04    0.11618E-02   -0.12956E-03  1209   0.311E-02    0.169E-01
DAV:   5    -0.122358353068E+04    0.86927E-04   -0.25998E-04   988   0.131E-02
  79 F= -.12540120E+04 E0= -.12539490E+04  d E =-.880318E-03
       N       E                     dE             d eps       ncg     rms          rms(c)
DAV:   1    -0.122358303619E+04    0.58142E-03   -0.91574E-02  1170   0.232E-01    0.151E-01
DAV:   2    -0.122358612724E+04   -0.30911E-02   -0.78146E-03  1742   0.690E-02    0.653E-01
DAV:   3    -0.122358415493E+04    0.19723E-02   -0.94934E-03  1365   0.593E-02    0.410E-01
DAV:   4    -0.122358374092E+04    0.41401E-03   -0.19485E-03  1040   0.257E-02    0.295E-01
DAV:   5    -0.122358329891E+04    0.44201E-03   -0.24871E-04   780   0.118E-02    0.148E-01
DAV:   6    -0.122358315991E+04    0.13901E-03   -0.23974E-04   832   0.141E-02    0.120E-01
DAV:   7    -0.122358314598E+04    0.13922E-04   -0.97538E-05   689   0.981E-03
  80 F= -.12540120E+04 E0= -.12539468E+04  d E =-.817548E-03
       N       E                     dE             d eps       ncg     rms          rms(c)
DAV:   1    -0.122358322744E+04   -0.67530E-04   -0.15180E-02  1170   0.935E-02    0.479E-02
DAV:   2    -0.122358357135E+04   -0.34391E-03   -0.10843E-03  1092   0.260E-02    0.219E-01
DAV:   3    -0.122358330264E+04    0.26871E-03   -0.10096E-03   962   0.214E-02    0.115E-01
DAV:   4    -0.122358325066E+04    0.51982E-04   -0.14714E-04   663   0.949E-03
  81 F= -.12540119E+04 E0= -.12539484E+04  d E =-.794223E-03
       N       E                     dE             d eps       ncg     rms          rms(c)
DAV:   1    -0.122358206424E+04    0.12384E-02   -0.57814E-01  1170   0.572E-01    0.210E-01
DAV:   2    -0.122358374297E+04   -0.16787E-02   -0.15981E-02  1755   0.119E-01    0.368E-01
DAV:   3    -0.122358544671E+04   -0.17037E-02   -0.10027E-02  1469   0.606E-02    0.503E-01
DAV:   4    -0.122358321662E+04    0.22301E-02   -0.38949E-03  1313   0.451E-02    0.157E-01
DAV:   5    -0.122358315404E+04    0.62582E-04   -0.41557E-04  1001   0.133E-02
  82 F= -.12540126E+04 E0= -.12539496E+04  d E =-.661152E-03
       N       E                     dE             d eps       ncg     rms          rms(c)
DAV:   1    -0.122358276104E+04    0.45558E-03   -0.64855E-02  1170   0.192E-01    0.141E-01
DAV:   2    -0.122358354025E+04   -0.77921E-03   -0.52256E-03  1664   0.443E-02    0.392E-01
DAV:   3    -0.122358358481E+04   -0.44558E-04   -0.65499E-03  1118   0.258E-02    0.394E-01
DAV:   4    -0.122358316380E+04    0.42101E-03   -0.37663E-03  1027   0.232E-02    0.234E-01
DAV:   5    -0.122358296154E+04    0.20226E-03   -0.96710E-04   793   0.119E-02    0.171E-01
DAV:   6    -0.122358282299E+04    0.13855E-03   -0.33672E-04   780   0.103E-02    0.871E-02
DAV:   7    -0.122358283083E+04   -0.78366E-05   -0.10884E-04   715   0.898E-03
  83 F= -.12540125E+04 E0= -.12539479E+04  d E =-.594652E-03
       N       E                     dE             d eps       ncg     rms          rms(c)
DAV:   1    -0.122358183065E+04    0.99234E-03   -0.48448E-01  1170   0.495E-01    0.217E-01
DAV:   2    -0.122358436597E+04   -0.25353E-02   -0.15341E-02  1781   0.119E-01    0.629E-01
DAV:   3    -0.122358460152E+04   -0.23555E-03   -0.84437E-03  1456   0.580E-02    0.445E-01
DAV:   4    -0.122358302378E+04    0.15777E-02   -0.17779E-03  1209   0.339E-02    0.178E-01
DAV:   5    -0.122358283565E+04    0.18812E-03   -0.28594E-04   884   0.134E-02    0.121E-01
DAV:   6    -0.122358297419E+04   -0.13853E-03   -0.55747E-04  1131   0.199E-02    0.204E-01
DAV:   7    -0.122358282120E+04    0.15299E-03   -0.28211E-04   897   0.178E-02    0.790E-02
DAV:   8    -0.122358278322E+04    0.37975E-04   -0.80028E-05   663   0.803E-03
  84 F= -.12540132E+04 E0= -.12539487E+04  d E =-.647474E-03
       N       E                     dE             d eps       ncg     rms          rms(c)
DAV:   1    -0.122358174659E+04    0.10746E-02   -0.34112E-01  1170   0.415E-01    0.186E-01
DAV:   2    -0.122358348291E+04   -0.17363E-02   -0.11027E-02  1768   0.102E-01    0.503E-01
DAV:   3    -0.122358400813E+04   -0.52522E-03   -0.68222E-03  1430   0.519E-02    0.428E-01
DAV:   4    -0.122358258695E+04    0.14212E-02   -0.17559E-03  1157   0.326E-02    0.144E-01
DAV:   5    -0.122358246408E+04    0.12286E-03   -0.25085E-04   858   0.123E-02    0.116E-01
DAV:   6    -0.122358249365E+04   -0.29569E-04   -0.33749E-04   897   0.148E-02
  85 F= -.12540135E+04 E0= -.12539471E+04  d E =-.944145E-03
       N       E                     dE             d eps       ncg     rms          rms(c)
DAV:   1    -0.122358154146E+04    0.92262E-03   -0.43587E-01  1170   0.474E-01    0.234E-01
DAV:   2    -0.122358298449E+04   -0.14430E-02   -0.14566E-02  1755   0.120E-01    0.290E-01
DAV:   3    -0.122358385404E+04   -0.86955E-03   -0.36556E-03  1430   0.437E-02    0.538E-01
DAV:   4    -0.122358317942E+04    0.67462E-03   -0.43458E-03  1274   0.421E-02    0.299E-01
DAV:   5    -0.122358246689E+04    0.71253E-03   -0.88542E-04  1001   0.225E-02    0.776E-02
DAV:   6    -0.122358250221E+04   -0.35319E-04   -0.89845E-04   936   0.118E-02
  86 F= -.12540143E+04 E0= -.12539503E+04  d E =-.779618E-03
       N       E                     dE             d eps       ncg     rms          rms(c)
DAV:   1    -0.122358239976E+04    0.67137E-04   -0.33165E-03  1144   0.349E-02    0.592E-02
DAV:   2    -0.122358282526E+04   -0.42550E-03   -0.32240E-03   897   0.184E-02    0.283E-01
DAV:   3    -0.122358259148E+04    0.23379E-03   -0.36843E-03   910   0.235E-02    0.188E-01
DAV:   4    -0.122358247165E+04    0.11983E-03   -0.11029E-03   767   0.124E-02    0.111E-01
DAV:   5    -0.122358239089E+04    0.80765E-04   -0.40547E-04   650   0.541E-03
  87 F= -.12540142E+04 E0= -.12539504E+04  d E =-.724797E-03
       N       E                     dE             d eps       ncg     rms          rms(c)
DAV:   1    -0.122358178303E+04    0.68863E-03   -0.31896E-01  1170   0.424E-01    0.191E-01
DAV:   2    -0.122358258353E+04   -0.80050E-03   -0.99368E-03  1755   0.941E-02    0.177E-01
DAV:   3    -0.122358398119E+04   -0.13977E-02   -0.61020E-03  1378   0.402E-02    0.624E-01
DAV:   4    -0.122358291072E+04    0.10705E-02   -0.46541E-03  1248   0.366E-02    0.225E-01
DAV:   5    -0.122358250792E+04    0.40280E-03   -0.47268E-04   897   0.139E-02    0.139E-01
DAV:   6    -0.122358243110E+04    0.76823E-04   -0.37781E-04   741   0.953E-03
  88 F= -.12540150E+04 E0= -.12539508E+04  d E =-.787255E-03
       N       E                     dE             d eps       ncg     rms          rms(c)
DAV:   1    -0.122358049286E+04    0.20151E-02   -0.58979E-01  1170   0.576E-01    0.277E-01
DAV:   2    -0.122358317621E+04   -0.26833E-02   -0.18766E-02  1755   0.135E-01    0.533E-01
DAV:   3    -0.122358702851E+04   -0.38523E-02   -0.15223E-02  1560   0.754E-02    0.126E+00
DAV:   4    -0.122358376394E+04    0.32646E-02   -0.97390E-03  1326   0.586E-02    0.397E-01
DAV:   5    -0.122358215451E+04    0.16094E-02   -0.12006E-03  1170   0.252E-02    0.307E-01
DAV:   6    -0.122358167187E+04    0.48265E-03   -0.66492E-04   923   0.154E-02    0.141E-01
DAV:   7    -0.122358181548E+04   -0.14361E-03   -0.16662E-03   949   0.158E-02    0.247E-01
DAV:   8    -0.122358155079E+04    0.26469E-03   -0.14947E-03   741   0.118E-02    0.988E-02
DAV:   9    -0.122358156454E+04   -0.13745E-04   -0.78012E-04   715   0.997E-03
  89 F= -.12540151E+04 E0= -.12539501E+04  d E =-.945103E-03
       N       E                     dE             d eps       ncg     rms          rms(c)
DAV:   1    -0.122358175088E+04   -0.20008E-03   -0.43875E-02  1170   0.156E-01    0.951E-02
DAV:   2    -0.122358244981E+04   -0.69893E-03   -0.32497E-03  1625   0.451E-02    0.314E-01
DAV:   3    -0.122358243031E+04    0.19504E-04   -0.37954E-03  1157   0.337E-02    0.340E-01
DAV:   4    -0.122358199532E+04    0.43499E-03   -0.83166E-04   858   0.199E-02    0.125E-01
DAV:   5    -0.122358192209E+04    0.73230E-04   -0.81928E-05   650   0.723E-03
  90 F= -.12540152E+04 E0= -.12539511E+04  d E =-.102659E-02
       N       E                     dE             d eps       ncg     rms          rms(c)
DAV:   1    -0.122358095507E+04    0.10402E-02   -0.44391E-01  1170   0.504E-01    0.179E-01
DAV:   2    -0.122358202104E+04   -0.10660E-02   -0.11677E-02  1703   0.102E-01    0.211E-01
DAV:   3    -0.122358282149E+04   -0.80045E-03   -0.30094E-03  1235   0.348E-02    0.397E-01
DAV:   4    -0.122358243241E+04    0.38908E-03   -0.42086E-03  1287   0.426E-02    0.375E-01
DAV:   5    -0.122358199568E+04    0.43673E-03   -0.11674E-03  1014   0.239E-02    0.176E-01
DAV:   6    -0.122358187191E+04    0.12376E-03   -0.36829E-04   832   0.117E-02    0.148E-01
DAV:   7    -0.122358178057E+04    0.91348E-04   -0.56508E-04   780   0.997E-03
  91 F= -.12540158E+04 E0= -.12539516E+04  d E =-.581020E-03
       N       E                     dE             d eps       ncg     rms          rms(c)
DAV:   1    -0.122358175183E+04    0.12008E-03   -0.13647E-03  1105   0.254E-02    0.845E-02
DAV:   2    -0.122358208139E+04   -0.32956E-03   -0.17490E-03   741   0.104E-02    0.269E-01
DAV:   3    -0.122358210310E+04   -0.21704E-04   -0.29554E-03   858   0.171E-02    0.254E-01
DAV:   4    -0.122358186132E+04    0.24178E-03   -0.14377E-03   767   0.129E-02    0.125E-01
DAV:   5    -0.122358177246E+04    0.88856E-04   -0.53507E-04   650   0.651E-03
  92 F= -.12540158E+04 E0= -.12539513E+04  d E =-.606603E-03
       N       E                     dE             d eps       ncg     rms          rms(c)
DAV:   1    -0.122358134642E+04    0.51489E-03   -0.32888E-01  1170   0.461E-01    0.166E-01
DAV:   2    -0.122358212590E+04   -0.77947E-03   -0.81351E-03  1755   0.864E-02    0.214E-01
DAV:   3    -0.122358205151E+04    0.74388E-04   -0.78745E-04  1092   0.161E-02
  93 F= -.12540166E+04 E0= -.12539537E+04  d E =-.742247E-03
       N       E                     dE             d eps       ncg     rms          rms(c)
DAV:   1    -0.122358179106E+04    0.33483E-03   -0.99443E-02  1170   0.254E-01    0.282E-01
DAV:   2    -0.122359928459E+04   -0.17494E-01   -0.55595E-02  1768   0.150E-01    0.122E+00
DAV:   3    -0.122358359327E+04    0.15691E-01   -0.44164E-02  1547   0.130E-01    0.408E-01
DAV:   4    -0.122358269293E+04    0.90034E-03   -0.33227E-03  1261   0.300E-02    0.389E-01
DAV:   5    -0.122358210210E+04    0.59083E-03   -0.20961E-03  1105   0.265E-02    0.275E-01
DAV:   6    -0.122358211461E+04   -0.12516E-04   -0.17449E-03   949   0.247E-02    0.301E-01
DAV:   7    -0.122358167845E+04    0.43616E-03   -0.10146E-03   832   0.165E-02    0.118E-01
DAV:   8    -0.122358159100E+04    0.87447E-04   -0.69809E-04   741   0.119E-02
  94 F= -.12540164E+04 E0= -.12539524E+04  d E =-.539049E-03
       N       E                     dE             d eps       ncg     rms          rms(c)
DAV:   1    -0.122358167487E+04    0.35834E-05   -0.25310E-02  1170   0.127E-01    0.599E-02
DAV:   2    -0.122358200045E+04   -0.32558E-03   -0.17231E-03  1300   0.316E-02    0.240E-01
DAV:   3    -0.122358190005E+04    0.10040E-03   -0.15467E-03  1014   0.193E-02    0.176E-01
DAV:   4    -0.122358181276E+04    0.87289E-04   -0.60948E-04   780   0.142E-02
  95 F= -.12540165E+04 E0= -.12539543E+04  d E =-.632755E-03
       N       E                     dE             d eps       ncg     rms          rms(c)
DAV:   1    -0.122358181171E+04    0.88339E-04   -0.63370E-03  1144   0.644E-02    0.690E-02
DAV:   2    -0.122358212448E+04   -0.31277E-03   -0.56227E-04   936   0.202E-02    0.241E-01
DAV:   3    -0.122358202925E+04    0.95233E-04   -0.11991E-03   975   0.236E-02    0.187E-01
DAV:   4    -0.122358179269E+04    0.23656E-03   -0.37109E-04   793   0.138E-02    0.434E-02
DAV:   5    -0.122358178913E+04    0.35552E-05   -0.65152E-05   637   0.460E-03
  96 F= -.12540164E+04 E0= -.12539525E+04  d E =-.544476E-03
       N       E                     dE             d eps       ncg     rms          rms(c)
DAV:   1    -0.122358167288E+04    0.11981E-03   -0.25201E-01  1170   0.379E-01    0.170E-01
DAV:   2    -0.122358268836E+04   -0.10155E-02   -0.82796E-03  1690   0.782E-02    0.350E-01
DAV:   3    -0.122358381367E+04   -0.11253E-02   -0.71005E-03  1430   0.462E-02    0.455E-01
DAV:   4    -0.122358239998E+04    0.14137E-02   -0.37470E-03  1222   0.392E-02    0.192E-01
DAV:   5    -0.122358226954E+04    0.13045E-03   -0.22740E-04   780   0.115E-02    0.161E-01
DAV:   6    -0.122358217639E+04    0.93147E-04   -0.21351E-04   715   0.117E-02
  97 F= -.12540170E+04 E0= -.12539541E+04  d E =-.602343E-03
       N       E                     dE             d eps       ncg     rms          rms(c)
DAV:   1    -0.122358202708E+04    0.24246E-03   -0.63657E-02  1170   0.192E-01    0.169E-01
DAV:   2    -0.122358397760E+04   -0.19505E-02   -0.49559E-03  1703   0.534E-02    0.492E-01
DAV:   3    -0.122358341478E+04    0.56282E-03   -0.91874E-03  1495   0.608E-02    0.556E-01
DAV:   4    -0.122358224991E+04    0.11649E-02   -0.24039E-03  1222   0.320E-02    0.146E-01
DAV:   5    -0.122358200955E+04    0.24037E-03   -0.34969E-04   702   0.103E-02    0.527E-02
DAV:   6    -0.122358199949E+04    0.10056E-04   -0.37427E-04   624   0.588E-03
  98 F= -.12540169E+04 E0= -.12539532E+04  d E =-.535444E-03
       N       E                     dE             d eps       ncg     rms          rms(c)
DAV:   1    -0.122358209768E+04   -0.88138E-04   -0.92462E-02  1170   0.220E-01    0.109E-01
DAV:   2    -0.122358239191E+04   -0.29422E-03   -0.34833E-03  1690   0.495E-02    0.166E-01
DAV:   3    -0.122358237276E+04    0.19143E-04   -0.21211E-03   871   0.116E-02    0.147E-01
DAV:   4    -0.122358250693E+04   -0.13417E-03   -0.17891E-03   780   0.154E-02    0.222E-01
DAV:   5    -0.122358232384E+04    0.18309E-03   -0.96628E-04   728   0.137E-02    0.917E-02
DAV:   6    -0.122358230292E+04    0.20912E-04   -0.13045E-04   650   0.724E-03
  99 F= -.12540173E+04 E0= -.12539531E+04  d E =-.389222E-03
       N       E                     dE             d eps       ncg     rms          rms(c)
DAV:   1    -0.122358183105E+04    0.49278E-03   -0.31903E-01  1170   0.409E-01    0.206E-01
DAV:   2    -0.122358303100E+04   -0.12000E-02   -0.90492E-03  1768   0.929E-02    0.348E-01
DAV:   3    -0.122358347664E+04   -0.44563E-03   -0.19682E-03  1235   0.303E-02    0.404E-01
DAV:   4    -0.122358371920E+04   -0.24256E-03   -0.43400E-03  1261   0.416E-02    0.532E-01
DAV:   5    -0.122358275482E+04    0.96438E-03   -0.17030E-03  1014   0.250E-02    0.185E-01
DAV:   6    -0.122358267805E+04    0.76768E-04   -0.34143E-04   806   0.153E-02
 100 F= -.12540178E+04 E0= -.12539510E+04  d E =-.925765E-03
       N       E                     dE             d eps       ncg     rms          rms(c)
DAV:   1    -0.122358272731E+04    0.27510E-04   -0.68046E-02  1170   0.197E-01    0.112E-01
DAV:   2    -0.122358374836E+04   -0.10211E-02   -0.35598E-03  1781   0.604E-02    0.365E-01
DAV:   3    -0.122358318959E+04    0.55877E-03   -0.31641E-03  1313   0.375E-02    0.278E-01
DAV:   4    -0.122358290804E+04    0.28155E-03   -0.87763E-04   923   0.207E-02    0.125E-01
DAV:   5    -0.122358279171E+04    0.11633E-03   -0.11779E-04   650   0.106E-02    0.503E-02
DAV:   6    -0.122358279721E+04   -0.54910E-05   -0.18828E-04   715   0.685E-03
 101 F= -.12540180E+04 E0= -.12539539E+04  d E =-.169197E-03
       N       E                     dE             d eps       ncg     rms          rms(c)
DAV:   1    -0.122358280735E+04   -0.15636E-04   -0.44390E-02  1170   0.158E-01    0.800E-02
DAV:   2    -0.122358349936E+04   -0.69201E-03   -0.31498E-03  1677   0.463E-02    0.301E-01
DAV:   3    -0.122358308253E+04    0.41683E-03   -0.25784E-03  1183   0.293E-02    0.182E-01
DAV:   4    -0.122358295696E+04    0.12557E-03   -0.35595E-04   741   0.126E-02    0.103E-01
DAV:   5    -0.122358292216E+04    0.34802E-04   -0.10521E-04   637   0.552E-03
 102 F= -.12540182E+04 E0= -.12539549E+04  d E =-.334773E-03
       N       E                     dE             d eps       ncg     rms          rms(c)
DAV:   1    -0.122358319002E+04   -0.23306E-03   -0.52540E-02  1170   0.190E-01    0.946E-02
DAV:   2    -0.122358344061E+04   -0.25058E-03   -0.24148E-03  1638   0.383E-02    0.175E-01
DAV:   3    -0.122358355800E+04   -0.11740E-03   -0.24463E-03  1157   0.214E-02    0.240E-01
DAV:   4    -0.122358339525E+04    0.16276E-03   -0.15068E-03  1053   0.204E-02    0.144E-01
DAV:   5    -0.122358327474E+04    0.12050E-03   -0.36270E-04   715   0.929E-03    0.562E-02
DAV:   6    -0.122358327075E+04    0.39915E-05   -0.29052E-04   663   0.509E-03
 103 F= -.12540185E+04 E0= -.12539546E+04  d E =-.349013E-03
       N       E                     dE             d eps       ncg     rms          rms(c)
DAV:   1    -0.122358328229E+04   -0.75474E-05   -0.27476E-02  1170   0.138E-01    0.640E-02
DAV:   2    -0.122358341658E+04   -0.13429E-03   -0.14563E-03  1482   0.286E-02    0.137E-01
DAV:   3    -0.122358347034E+04   -0.53762E-04   -0.15390E-03   936   0.159E-02    0.177E-01
DAV:   4    -0.122358341994E+04    0.50400E-04   -0.87977E-04   780   0.160E-02
 104 F= -.12540187E+04 E0= -.12539569E+04  d E =-.498343E-03
[...]
DAV:   6    -0.122357357813E+04    0.61035E-03   -0.15089E-03  1066   0.286E-02    0.131E-01
DAV:   7    -0.122357354255E+04    0.35576E-04   -0.39999E-04   897   0.119E-02
 465 F= -.12540932E+04 E0= -.12540307E+04  d E =-.480377E-03
       N       E                     dE             d eps       ncg     rms          rms(c)
DAV:   1    -0.122356742674E+04    0.61514E-02   -0.22635E+00  1170   0.108E+00    0.419E-01
DAV:   2    -0.122357307589E+04   -0.56491E-02   -0.58938E-02  1677   0.222E-01    0.599E-01
DAV:   3    -0.122357894933E+04   -0.58734E-02   -0.37920E-02  1729   0.125E-01    0.746E-01
DAV:   4    -0.122357216465E+04    0.67847E-02   -0.15807E-02  1560   0.860E-02    0.358E-01
DAV:   5    -0.122357163387E+04    0.53078E-03   -0.23078E-03  1300   0.254E-02    0.281E-01
DAV:   6    -0.122357210532E+04   -0.47145E-03   -0.48754E-03  1469   0.354E-02    0.424E-01
DAV:   7    -0.122357160572E+04    0.49960E-03   -0.44180E-03  1274   0.357E-02    0.201E-01
DAV:   8    -0.122357139071E+04    0.21502E-03   -0.20430E-03   884   0.162E-02    0.131E-01
DAV:   9    -0.122357129410E+04    0.96602E-04   -0.13531E-03   754   0.120E-02    0.769E-02
DAV:  10    -0.122357126114E+04    0.32966E-04   -0.53783E-04   702   0.863E-03
 466 F= -.12540935E+04 E0= -.12540305E+04  d E =-.777746E-03
       N       E                     dE             d eps       ncg     rms          rms(c)
DAV:   1    -0.122357130364E+04   -0.95340E-05   -0.73927E-02  1183   0.195E-01    0.987E-02
DAV:   2    -0.122357206164E+04   -0.75800E-03   -0.41873E-03  1495   0.462E-02    0.368E-01
DAV:   3    -0.122357195792E+04    0.10372E-03   -0.43099E-03  1144   0.345E-02    0.254E-01
DAV:   4    -0.122357152666E+04    0.43126E-03   -0.10668E-03   884   0.214E-02    0.122E-01
DAV:   5    -0.122357144767E+04    0.78995E-04   -0.17340E-04   780   0.746E-03
 467 F= -.12540940E+04 E0= -.12540311E+04  d E =-.565570E-03
       N       E                     dE             d eps       ncg     rms          rms(c)
DAV:   1    -0.122356988608E+04    0.16406E-02   -0.65593E-01  1170   0.581E-01    0.242E-01
DAV:   2    -0.122357327874E+04   -0.33927E-02   -0.18703E-02  1690   0.122E-01    0.766E-01
DAV:   3    -0.122357263863E+04    0.64011E-03   -0.98853E-03  1521   0.681E-02    0.416E-01
DAV:   4    -0.122357141228E+04    0.12264E-02   -0.12211E-03  1170   0.297E-02    0.269E-01
DAV:   5    -0.122357104002E+04    0.37226E-03   -0.55565E-04  1001   0.180E-02    0.178E-01
DAV:   6    -0.122357109323E+04   -0.53208E-04   -0.74856E-04  1170   0.217E-02
 468 F= -.12540948E+04 E0= -.12540294E+04  d E =-.135278E-02
       N       E                     dE             d eps       ncg     rms          rms(c)
DAV:   1    -0.122357111667E+04   -0.76655E-04   -0.17602E-02  1196   0.961E-02    0.106E-01
DAV:   2    -0.122357218211E+04   -0.10654E-02   -0.39715E-03  1248   0.416E-02    0.381E-01
DAV:   3    -0.122357141585E+04    0.76626E-03   -0.51576E-03  1196   0.441E-02    0.250E-01
DAV:   4    -0.122357116282E+04    0.25302E-03   -0.11786E-03   962   0.203E-02    0.917E-02
DAV:   5    -0.122357108661E+04    0.76212E-04   -0.59056E-04   676   0.573E-03
 469 F= -.12540946E+04 E0= -.12540324E+04  d E =-.116152E-02
       N       E                     dE             d eps       ncg     rms          rms(c)
DAV:   1    -0.122357097484E+04    0.18798E-03   -0.15575E-01  1170   0.284E-01    0.116E-01
DAV:   2    -0.122357142843E+04   -0.45359E-03   -0.56213E-03  1742   0.599E-02    0.177E-01
DAV:   3    -0.122357137846E+04    0.49975E-04   -0.32674E-03   858   0.123E-02    0.147E-01
DAV:   4    -0.122357140387E+04   -0.25410E-04   -0.25227E-03   793   0.137E-02    0.163E-01
DAV:   5    -0.122357133408E+04    0.69790E-04   -0.15057E-03   793   0.153E-02    0.110E-01
DAV:   6    -0.122357127952E+04    0.54558E-04   -0.27947E-04   832   0.104E-02
 470 F= -.12540954E+04 E0= -.12540327E+04  d E =-.778434E-03
       N       E                     dE             d eps       ncg     rms          rms(c)
DAV:   1    -0.122356845860E+04    0.28755E-02   -0.13920E+00  1170   0.852E-01    0.390E-01
DAV:   2    -0.122357404851E+04   -0.55899E-02   -0.39092E-02  1755   0.173E-01    0.860E-01
DAV:   3    -0.122357750169E+04   -0.34532E-02   -0.30151E-02  1586   0.103E-01    0.790E-01
DAV:   4    -0.122357181573E+04    0.56860E-02   -0.15208E-02  1495   0.801E-02    0.384E-01
DAV:   5    -0.122357127823E+04    0.53750E-03   -0.20894E-03  1209   0.305E-02    0.322E-01
DAV:   6    -0.122357100118E+04    0.27705E-03   -0.18185E-03  1508   0.316E-02    0.311E-01
DAV:   7    -0.122357107971E+04   -0.78530E-04   -0.17807E-03  1209   0.274E-02    0.352E-01
DAV:   8    -0.122357051436E+04    0.56535E-03   -0.13970E-03   871   0.161E-02    0.149E-01
DAV:   9    -0.122357061782E+04   -0.10345E-03   -0.98339E-04   754   0.133E-02    0.237E-01
DAV:  10    -0.122357043232E+04    0.18549E-03   -0.59988E-04   689   0.755E-03    0.127E-01
DAV:  11    -0.122357048616E+04   -0.53833E-04   -0.35964E-04   689   0.615E-03
 471 F= -.12540964E+04 E0= -.12540346E+04  d E =-.174590E-02
       N       E                     dE             d eps       ncg     rms          rms(c)
DAV:   1    -0.122357010215E+04    0.33017E-03   -0.36103E-02  1196   0.137E-01    0.149E-01
DAV:   2    -0.122357101580E+04   -0.91365E-03   -0.23772E-03  1391   0.389E-02    0.430E-01
DAV:   3    -0.122357196514E+04   -0.94934E-03   -0.69806E-03  1287   0.534E-02    0.450E-01
DAV:   4    -0.122357038425E+04    0.15809E-02   -0.26172E-03  1131   0.341E-02    0.133E-01
DAV:   5    -0.122357036020E+04    0.24056E-04   -0.22791E-04   780   0.115E-02
 472 F= -.12540965E+04 E0= -.12540351E+04  d E =-.190291E-02
       N       E                     dE             d eps       ncg     rms          rms(c)
DAV:   1    -0.122356960817E+04    0.77608E-03   -0.15984E-01  1196   0.287E-01    0.136E-01
DAV:   2    -0.122357041551E+04   -0.80734E-03   -0.55423E-03  1755   0.717E-02    0.264E-01
DAV:   3    -0.122357068428E+04   -0.26878E-03   -0.43608E-03  1313   0.469E-02    0.414E-01
DAV:   4    -0.122357006527E+04    0.61901E-03   -0.14233E-03  1079   0.275E-02    0.146E-01
DAV:   5    -0.122356994338E+04    0.12190E-03   -0.13729E-04   832   0.885E-03    0.943E-02
DAV:   6    -0.122356991413E+04    0.29246E-04   -0.14065E-04   754   0.103E-02
 473 F= -.12540966E+04 E0= -.12540341E+04  d E =-.101738E-03
       N       E                     dE             d eps       ncg     rms          rms(c)
DAV:   1    -0.122356974630E+04    0.19708E-03   -0.83192E-03  1157   0.655E-02    0.659E-02
DAV:   2    -0.122357047664E+04   -0.73034E-03   -0.26437E-03  1157   0.320E-02    0.332E-01
DAV:   3    -0.122356990592E+04    0.57072E-03   -0.29593E-03  1118   0.324E-02    0.163E-01
DAV:   4    -0.122356984644E+04    0.59476E-04   -0.48650E-04   780   0.124E-02
 474 F= -.12540967E+04 E0= -.12540356E+04  d E =-.159858E-03
       N       E                     dE             d eps       ncg     rms          rms(c)
DAV:   1    -0.122356957958E+04    0.32633E-03   -0.77125E-02  1196   0.216E-01    0.992E-02
DAV:   2    -0.122357032033E+04   -0.74075E-03   -0.32445E-03  1664   0.520E-02    0.336E-01
DAV:   3    -0.122357002721E+04    0.29312E-03   -0.27004E-03  1235   0.345E-02    0.205E-01
DAV:   4    -0.122356974072E+04    0.28650E-03   -0.55249E-04   871   0.183E-02    0.695E-02
DAV:   5    -0.122356974461E+04   -0.38974E-05   -0.20864E-04   702   0.595E-03
 475 F= -.12540970E+04 E0= -.12540350E+04  d E =-.283649E-03
       N       E                     dE             d eps       ncg     rms          rms(c)
DAV:   1    -0.122356848249E+04    0.12582E-02   -0.33472E-01  1170   0.451E-01    0.186E-01
DAV:   2    -0.122356930006E+04   -0.81757E-03   -0.91114E-03  1716   0.914E-02    0.203E-01
DAV:   3    -0.122357014530E+04   -0.84524E-03   -0.49140E-03  1326   0.434E-02    0.356E-01
DAV:   4    -0.122356921017E+04    0.93513E-03   -0.43096E-03  1235   0.458E-02    0.189E-01
DAV:   5    -0.122356911394E+04    0.96229E-04   -0.62317E-04   949   0.162E-02
 476 F= -.12540972E+04 E0= -.12540365E+04  d E =-.462684E-03
       N       E                     dE             d eps       ncg     rms          rms(c)
DAV:   1    -0.122356901825E+04    0.19192E-03   -0.39749E-02  1196   0.146E-01    0.150E-01
DAV:   2    -0.122357087686E+04   -0.18586E-02   -0.77820E-03  1521   0.478E-02    0.621E-01
DAV:   3    -0.122357035014E+04    0.52672E-03   -0.12560E-02  1417   0.613E-02    0.369E-01
DAV:   4    -0.122356908133E+04    0.12688E-02   -0.33526E-03  1183   0.314E-02    0.128E-01
DAV:   5    -0.122356899650E+04    0.84828E-04   -0.14740E-03   754   0.881E-03    0.907E-02
DAV:   6    -0.122356900291E+04   -0.64065E-05   -0.58798E-04   793   0.111E-02
 477 F= -.12540973E+04 E0= -.12540339E+04  d E =-.177478E-03
       N       E                     dE             d eps       ncg     rms          rms(c)
DAV:   1    -0.122356785225E+04    0.11443E-02   -0.36106E-01  1170   0.442E-01    0.173E-01
DAV:   2    -0.122357069880E+04   -0.28465E-02   -0.12258E-02  1716   0.988E-02    0.738E-01
DAV:   3    -0.122356937265E+04    0.13261E-02   -0.66747E-03  1443   0.551E-02    0.293E-01
DAV:   4    -0.122356874367E+04    0.62898E-03   -0.62898E-04  1027   0.204E-02    0.198E-01
DAV:   5    -0.122356853624E+04    0.20742E-03   -0.25339E-04   832   0.124E-02    0.115E-01
DAV:   6    -0.122356857560E+04   -0.39352E-04   -0.41925E-04   949   0.150E-02
 478 F= -.12540978E+04 E0= -.12540341E+04  d E =-.618349E-03
       N       E                     dE             d eps       ncg     rms          rms(c)
DAV:   1    -0.122356383071E+04    0.47055E-02   -0.14505E+00  1170   0.885E-01    0.354E-01
DAV:   2    -0.122356894958E+04   -0.51189E-02   -0.44768E-02  1781   0.204E-01    0.581E-01
DAV:   3    -0.122357322991E+04   -0.42803E-02   -0.30204E-02  1651   0.115E-01    0.143E+00
DAV:   4    -0.122356909171E+04    0.41382E-02   -0.14315E-02  1443   0.773E-02    0.418E-01
DAV:   5    -0.122356734845E+04    0.17433E-02   -0.19252E-03  1352   0.282E-02    0.392E-01
DAV:   6    -0.122356647336E+04    0.87508E-03   -0.11201E-03  1118   0.222E-02    0.178E-01
DAV:   7    -0.122356676966E+04   -0.29629E-03   -0.14821E-03  1092   0.224E-02    0.314E-01
DAV:   8    -0.122356634839E+04    0.42127E-03   -0.17187E-03   871   0.156E-02    0.954E-02
DAV:   9    -0.122356637663E+04   -0.28241E-04   -0.10409E-03   754   0.117E-02    0.156E-01
DAV:  10    -0.122356626335E+04    0.11329E-03   -0.88079E-04   689   0.755E-03    0.823E-02
DAV:  11    -0.122356626207E+04    0.12718E-05   -0.50023E-04   689   0.658E-03
 479 F= -.12540972E+04 E0= -.12540343E+04  d E =-.531579E-04
       N       E                     dE             d eps       ncg     rms          rms(c)
DAV:   1    -0.122356684910E+04   -0.58576E-03   -0.66653E-01  1170   0.602E-01    0.236E-01
DAV:   2    -0.122356839591E+04   -0.15468E-02   -0.17500E-02  1755   0.123E-01    0.263E-01
DAV:   3    -0.122356865863E+04   -0.26272E-03   -0.29992E-03  1313   0.294E-02    0.342E-01
DAV:   4    -0.122356919498E+04   -0.53635E-03   -0.48495E-03  1183   0.393E-02    0.504E-01
DAV:   5    -0.122356834281E+04    0.85217E-03   -0.27492E-03  1118   0.324E-02    0.201E-01
DAV:   6    -0.122356822306E+04    0.11975E-03   -0.40598E-04   897   0.163E-02    0.213E-01
DAV:   7    -0.122356797766E+04    0.24540E-03   -0.46281E-04   923   0.132E-02    0.723E-02
DAV:   8    -0.122356803724E+04   -0.59583E-04   -0.42629E-04   741   0.104E-02
 480 F= -.12540978E+04 E0= -.12540349E+04  d E =-.642146E-03
       N       E                     dE             d eps       ncg     rms          rms(c)
DAV:   1    -0.122356795210E+04    0.25559E-04   -0.14253E-01  1170   0.292E-01    0.121E-01
DAV:   2    -0.122356837295E+04   -0.42085E-03   -0.46107E-03  1768   0.598E-02    0.174E-01
DAV:   3    -0.122356893410E+04   -0.56115E-03   -0.38740E-03  1209   0.301E-02    0.387E-01
DAV:   4    -0.122356843106E+04    0.50304E-03   -0.24595E-03  1118   0.281E-02    0.153E-01
DAV:   5    -0.122356827962E+04    0.15144E-03   -0.22880E-04   780   0.106E-02    0.111E-01
DAV:   6    -0.122356820298E+04    0.76633E-04   -0.88632E-05   715   0.740E-03
 481 F= -.12540984E+04 E0= -.12540359E+04  d E =-.605098E-03
       N       E                     dE             d eps       ncg     rms          rms(c)
DAV:   1    -0.122356764253E+04    0.63709E-03   -0.25458E-01  1170   0.392E-01    0.207E-01
DAV:   2    -0.122356978608E+04   -0.21436E-02   -0.84065E-03  1781   0.892E-02    0.556E-01
DAV:   3    -0.122357037805E+04   -0.59197E-03   -0.87570E-03  1443   0.636E-02    0.745E-01
DAV:   4    -0.122356893786E+04    0.14402E-02   -0.44787E-03  1235   0.428E-02    0.303E-01
DAV:   5    -0.122356841376E+04    0.52409E-03   -0.65395E-04   988   0.194E-02    0.275E-01
DAV:   6    -0.122356803365E+04    0.38012E-03   -0.31275E-04   845   0.141E-02    0.107E-01
DAV:   7    -0.122356816401E+04   -0.13036E-03   -0.44246E-04   780   0.112E-02    0.209E-01
DAV:   8    -0.122356792219E+04    0.24182E-03   -0.42310E-04   728   0.932E-03    0.551E-02
DAV:   9    -0.122356795377E+04   -0.31578E-04   -0.23805E-04   702   0.765E-03
 482 F= -.12540988E+04 E0= -.12540357E+04  d E =-.949529E-03
       N       E                     dE             d eps       ncg     rms          rms(c)
DAV:   1    -0.122356793604E+04   -0.13850E-04   -0.80547E-02  1170   0.235E-01    0.119E-01
DAV:   2    -0.122356833381E+04   -0.39777E-03   -0.26573E-03  1716   0.524E-02    0.201E-01
DAV:   3    -0.122356923490E+04   -0.90109E-03   -0.29874E-03  1313   0.374E-02    0.500E-01
DAV:   4    -0.122356832378E+04    0.91112E-03   -0.19054E-03  1092   0.294E-02    0.131E-01
DAV:   5    -0.122356823679E+04    0.86986E-04   -0.18316E-04   767   0.108E-02
 483 F= -.12540993E+04 E0= -.12540357E+04  d E =-.514546E-03
       N       E                     dE             d eps       ncg     rms          rms(c)
DAV:   1    -0.122356792686E+04    0.39692E-03   -0.26043E-02  1196   0.135E-01    0.624E-02
DAV:   2    -0.122356806748E+04   -0.14062E-03   -0.99472E-04  1482   0.312E-02    0.117E-01
DAV:   3    -0.122356803180E+04    0.35683E-04   -0.59047E-04   962   0.166E-02
 484 F= -.12540992E+04 E0= -.12540351E+04  d E =-.442245E-03
       N       E                     dE             d eps       ncg     rms          rms(c)
DAV:   1    -0.122356801178E+04    0.55702E-04   -0.76796E-02  1170   0.218E-01    0.118E-01
DAV:   2    -0.122357013123E+04   -0.21195E-02   -0.46185E-03  1651   0.595E-02    0.699E-01
DAV:   3    -0.122356877240E+04    0.13588E-02   -0.47351E-03  1326   0.465E-02    0.241E-01
DAV:   4    -0.122356839865E+04    0.37375E-03   -0.37953E-04   923   0.150E-02    0.197E-01
DAV:   5    -0.122356814702E+04    0.25163E-03   -0.15805E-04   754   0.110E-02    0.812E-02
DAV:   6    -0.122356818322E+04   -0.36196E-04   -0.23189E-04   780   0.116E-02
 485 F= -.12540995E+04 E0= -.12540361E+04  d E =-.322557E-03
       N       E                     dE             d eps       ncg     rms          rms(c)
DAV:   1    -0.122356803082E+04    0.11620E-03   -0.43253E-02  1183   0.163E-01    0.100E-01
DAV:   2    -0.122356920763E+04   -0.11768E-02   -0.41576E-03  1729   0.597E-02    0.356E-01
DAV:   3    -0.122356828369E+04    0.92394E-03   -0.42803E-03  1326   0.456E-02    0.201E-01
DAV:   4    -0.122356814008E+04    0.14361E-03   -0.62482E-04   897   0.182E-02    0.880E-02
DAV:   5    -0.122356809844E+04    0.41637E-04   -0.21761E-04   650   0.692E-03
 486 F= -.12540996E+04 E0= -.12540372E+04  d E =-.367194E-03
       N       E                     dE             d eps       ncg     rms          rms(c)
DAV:   1    -0.122356835776E+04   -0.21768E-03   -0.61519E-02  1170   0.198E-01    0.104E-01
DAV:   2    -0.122356902266E+04   -0.66489E-03   -0.45394E-03  1755   0.515E-02    0.286E-01
DAV:   3    -0.122356885311E+04    0.16955E-03   -0.49590E-03  1209   0.376E-02    0.276E-01
DAV:   4    -0.122356855187E+04    0.30124E-03   -0.15408E-03   988   0.229E-02    0.116E-01
DAV:   5    -0.122356848255E+04    0.69319E-04   -0.51827E-04   676   0.706E-03
 487 F= -.12541000E+04 E0= -.12540380E+04  d E =-.482460E-03
       N       E                     dE             d eps       ncg     rms          rms(c)
DAV:   1    -0.122356842083E+04    0.13104E-03   -0.12541E-02  1170   0.887E-02    0.656E-02
DAV:   2    -0.122356861954E+04   -0.19871E-03   -0.17792E-03   988   0.212E-02    0.186E-01
DAV:   3    -0.122356849064E+04    0.12891E-03   -0.22097E-03   819   0.173E-02    0.112E-01
DAV:   4    -0.122356848850E+04    0.21424E-05   -0.10696E-03   780   0.144E-02    0.936E-02
DAV:   5    -0.122356843881E+04    0.49690E-04   -0.63987E-04   676   0.723E-03
 488 F= -.12541000E+04 E0= -.12540379E+04  d E =-.483091E-03
       N       E                     dE             d eps       ncg     rms          rms(c)
DAV:   1    -0.122356841480E+04    0.73691E-04   -0.67507E-02  1170   0.224E-01    0.103E-01
DAV:   2    -0.122356914092E+04   -0.72611E-03   -0.34696E-03  1729   0.558E-02    0.279E-01
DAV:   3    -0.122356887178E+04    0.26914E-03   -0.37082E-03  1365   0.407E-02    0.265E-01
DAV:   4    -0.122356860838E+04    0.26341E-03   -0.88639E-04  1040   0.219E-02    0.111E-01
DAV:   5    -0.122356853901E+04    0.69364E-04   -0.13273E-04   663   0.712E-03
 489 F= -.12541003E+04 E0= -.12540381E+04  d E =-.235546E-03
       N       E                     dE             d eps       ncg     rms          rms(c)
DAV:   1    -0.122356852219E+04    0.86185E-04   -0.42647E-04   923   0.149E-02    0.509E-02
DAV:   2    -0.122356864457E+04   -0.12238E-03   -0.11674E-03   728   0.883E-03    0.154E-01
DAV:   3    -0.122356853956E+04    0.10501E-03   -0.15979E-03   741   0.943E-03    0.751E-02
DAV:   4    -0.122356856442E+04   -0.24859E-04   -0.85754E-04   741   0.899E-03
 490 F= -.12541003E+04 E0= -.12540385E+04  d E =-.253616E-03
       N       E                     dE             d eps       ncg     rms          rms(c)
DAV:   1    -0.122356852414E+04    0.15425E-04   -0.14333E-02  1196   0.962E-02    0.363E-02
DAV:   2    -0.122356858755E+04   -0.63408E-04   -0.68410E-04   936   0.200E-02
 491 F= -.12541004E+04 E0= -.12540376E+04  d E =-.128971E-03
       N       E                     dE             d eps       ncg     rms          rms(c)
DAV:   1    -0.122356852676E+04   -0.26167E-05   -0.27552E-03  1183   0.414E-02    0.475E-02
DAV:   2    -0.122356932047E+04   -0.79371E-03   -0.16563E-03  1131   0.265E-02    0.414E-01
DAV:   3    -0.122356860607E+04    0.71440E-03   -0.15751E-03  1066   0.260E-02    0.928E-02
DAV:   4    -0.122356857995E+04    0.26115E-04   -0.12354E-04   728   0.767E-03
 492 F= -.12541005E+04 E0= -.12540381E+04  d E =-.164810E-03
       N       E                     dE             d eps       ncg     rms          rms(c)
DAV:   1    -0.122356850930E+04    0.96771E-04   -0.10349E-02  1170   0.833E-02    0.387E-02
DAV:   2    -0.122356856596E+04   -0.56662E-04   -0.29515E-04   910   0.179E-02
 493 F= -.12541005E+04 E0= -.12540386E+04  d E =-.763529E-04
       N       E                     dE             d eps       ncg     rms          rms(c)
DAV:   1    -0.122356852981E+04   -0.20514E-04   -0.18466E-03  1287   0.357E-02    0.560E-02
DAV:   2    -0.122356963268E+04   -0.11029E-02   -0.29432E-03  1209   0.362E-02    0.352E-01
DAV:   3    -0.122356854744E+04    0.10852E-02   -0.23570E-03  1144   0.341E-02    0.658E-02
DAV:   4    -0.122356852622E+04    0.21213E-04   -0.14091E-04   715   0.628E-03
 494 F= -.12541005E+04 E0= -.12540385E+04  d E =-.729401E-04
       N       E                     dE             d eps       ncg     rms          rms(c)
DAV:   1    -0.122356857001E+04   -0.22572E-04   -0.69537E-03  1157   0.698E-02    0.475E-02
DAV:   2    -0.122356867208E+04   -0.10207E-03   -0.74300E-04   910   0.167E-02    0.131E-01
DAV:   3    -0.122356862801E+04    0.44070E-04   -0.98527E-04   806   0.150E-02
 495 F= -.12541007E+04 E0= -.12540397E+04  d E =-.134938E-03
