basalPlane                              
           1
    15.900000    0.000000    0.000000
    -7.950000   13.769804    0.000000
     0.000000    0.000000   32.380000
   C    Cr   H    Mo   S 
  10   1  10  50 100
Direct configuration=     1
   0.07744797  0.08324022  0.05481395
   0.14401254  0.09689512  0.02263454
   0.02363020  0.98229771  0.06464806
   0.05737184  0.93224937  0.03829765
   0.13240054  0.00411082  0.01206985
   0.95260508  0.05844622  0.95425212
   0.90958681  0.89550480  0.95316411
   0.97632971  0.98957153  0.93642856
   0.84558309  0.90620736  0.98069344
   0.87171019  0.00587696  0.98159315
   0.99797400  0.99616952  0.00047943
   0.17379531  0.99062853  0.98891609
   0.03250965  0.00534465  0.91362640
   0.98795291  0.13572398  0.94751810
   0.90888325  0.82811964  0.94652578
   0.78973701  0.84879482  0.99956540
   0.19280797  0.16554162  0.00761421
   0.06622070  0.13965235  0.06818658
   0.96666591  0.94920304  0.08780780
   0.03299358  0.85503237  0.03900082
   0.83771872  0.03695858  0.00064675
   0.60000000  0.60000000  0.65735022
   0.20000000  0.80000000  0.21911674
   0.20000000  0.60000000  0.65735022
   0.60000000  0.80000000  0.21911674
   0.20000000  0.60000000  0.21911674
   0.60000000  0.80000000  0.65735022
   0.20000000  0.40000000  0.21911674
   0.80000000  0.00000000  0.21911674
   0.20000000  0.20000000  0.65735022
   0.80000000  0.00000000  0.65735022
   0.20000000  0.20000000  0.21911674
   0.20000000  0.80000000  0.65735022
   0.20000000  0.40000000  0.65735022
   0.60000000  0.60000000  0.21911674
   0.40000000  0.60000000  0.21911674
   0.40000000  0.00000000  0.65735022
   0.60000000  0.40000000  0.65735022
   0.40000000  0.20000000  0.21911674
   0.60000000  0.40000000  0.21911674
   0.40000000  0.20000000  0.65735022
   0.40000000  0.40000000  0.21911674
   0.60000000  0.20000000  0.65735022
   0.40000000  0.40000000  0.65735022
   0.60000000  0.20000000  0.21911674
   0.40000000  0.80000000  0.65735022
   0.40000000  0.60000000  0.65735022
   0.60000000  0.00000000  0.65735022
   0.40000000  0.80000000  0.21911674
   0.60000000  0.00000000  0.21911674
   0.40000000  0.00000000  0.21911674
   0.80000000  0.20000000  0.21911674
   0.20000000  0.00000000  0.65735022
   0.20000000  0.00000000  0.21911674
   0.00000000  0.00000000  0.21911674
   0.80000000  0.80000000  0.65735022
   0.00000000  0.00000000  0.65735022
   0.80000000  0.80000000  0.21911674
   0.00000000  0.20000000  0.21911674
   0.00000000  0.20000000  0.65735022
   0.80000000  0.60000000  0.65735022
   0.00000000  0.40000000  0.21911674
   0.00000000  0.40000000  0.65735022
   0.00000000  0.60000000  0.21911674
   0.80000000  0.40000000  0.65735022
   0.00000000  0.60000000  0.65735022
   0.80000000  0.60000000  0.21911674
   0.80000000  0.40000000  0.21911674
   0.00000000  0.80000000  0.65735022
   0.00000000  0.80000000  0.21911674
   0.80000000  0.20000000  0.65735022
   0.93333333  0.06666667  0.16985794
   0.73333333  0.26666667  0.60809141
   0.73333333  0.26666667  0.70660902
   0.93333333  0.66666667  0.70660902
   0.93333333  0.66666667  0.60809141
   0.73333333  0.26666667  0.16985794
   0.73333333  0.26666667  0.26837554
   0.93333333  0.46666667  0.26837554
   0.73333333  0.06666667  0.60809141
   0.73333333  0.06666667  0.70660902
   0.93333333  0.06666667  0.70660902
   0.93333333  0.86666667  0.16985794
   0.73333333  0.06666667  0.16985794
   0.93333333  0.06666667  0.60809141
   0.73333333  0.06666667  0.26837554
   0.93333333  0.26666667  0.16985794
   0.93333333  0.26666667  0.70660902
   0.93333333  0.86666667  0.26837554
   0.73333333  0.46666667  0.26837554
   0.73333333  0.46666667  0.16985794
   0.73333333  0.86666667  0.16985794
   0.73333333  0.86666667  0.70660902
   0.73333333  0.86666667  0.26837554
   0.93333333  0.46666667  0.16985794
   0.73333333  0.86666667  0.60809141
   0.73333333  0.66666667  0.60809141
   0.73333333  0.66666667  0.70660902
   0.93333333  0.46666667  0.70660902
   0.73333333  0.66666667  0.16985794
   0.93333333  0.46666667  0.60809141
   0.73333333  0.66666667  0.26837554
   0.93333333  0.26666667  0.60809141
   0.93333333  0.26666667  0.26837554
   0.73333333  0.46666667  0.60809141
   0.73333333  0.46666667  0.70660902
   0.93333333  0.66666667  0.26837554
   0.93333333  0.06666667  0.26837554
   0.93333333  0.66666667  0.16985794
   0.53333333  0.86666667  0.60809141
   0.53333333  0.06666667  0.70660902
   0.53333333  0.86666667  0.16985794
   0.33333333  0.26666667  0.16985794
   0.33333333  0.26666667  0.26837554
   0.33333333  0.06666667  0.60809141
   0.33333333  0.06666667  0.70660902
   0.33333333  0.06666667  0.16985794
   0.33333333  0.06666667  0.26837554
   0.13333333  0.86666667  0.60809141
   0.13333333  0.86666667  0.70660902
   0.13333333  0.86666667  0.16985794
   0.13333333  0.86666667  0.26837554
   0.13333333  0.66666667  0.60809141
   0.13333333  0.66666667  0.70660902
   0.33333333  0.26666667  0.70660902
   0.13333333  0.66666667  0.16985794
   0.13333333  0.46666667  0.60809141
   0.13333333  0.46666667  0.70660902
   0.13333333  0.46666667  0.16985794
   0.13333333  0.46666667  0.26837554
   0.13333333  0.26666667  0.60809141
   0.13333333  0.26666667  0.70660902
   0.13333333  0.26666667  0.16985794
   0.13333333  0.26666667  0.26837554
   0.13333333  0.06666667  0.60809141
   0.13333333  0.06666667  0.70660902
   0.13333333  0.06666667  0.16985794
   0.13333333  0.06666667  0.26837554
   0.13333333  0.66666667  0.26837554
   0.33333333  0.26666667  0.60809141
   0.33333333  0.46666667  0.26837554
   0.33333333  0.46666667  0.16985794
   0.53333333  0.86666667  0.26837554
   0.53333333  0.66666667  0.60809141
   0.53333333  0.66666667  0.70660902
   0.53333333  0.66666667  0.16985794
   0.53333333  0.66666667  0.26837554
   0.53333333  0.46666667  0.60809141
   0.53333333  0.46666667  0.70660902
   0.53333333  0.46666667  0.16985794
   0.53333333  0.46666667  0.26837554
   0.53333333  0.26666667  0.60809141
   0.53333333  0.26666667  0.70660902
   0.53333333  0.26666667  0.16985794
   0.53333333  0.26666667  0.26837554
   0.53333333  0.06666667  0.60809141
   0.93333333  0.86666667  0.70660902
   0.53333333  0.06666667  0.16985794
   0.53333333  0.06666667  0.26837554
   0.33333333  0.86666667  0.60809141
   0.33333333  0.86666667  0.70660902
   0.33333333  0.86666667  0.16985794
   0.33333333  0.86666667  0.26837554
   0.33333333  0.66666667  0.60809141
   0.33333333  0.66666667  0.70660902
   0.33333333  0.66666667  0.16985794
   0.33333333  0.66666667  0.26837554
   0.33333333  0.46666667  0.60809141
   0.33333333  0.46666667  0.70660902
   0.53333333  0.86666667  0.70660902
   0.93333333  0.86666667  0.60809141
Direct configuration=     2
   0.07741814  0.08312884  0.05481313
   0.14389959  0.09684447  0.02262678
   0.02366454  0.98236526  0.06459128
   0.05739223  0.93237175  0.03831315
   0.13230672  0.00407073  0.01208267
   0.95262680  0.05837982  0.95427923
   0.90961064  0.89560365  0.95319190
   0.97628789  0.98953677  0.93646926
   0.84565950  0.90627120  0.98071783
   0.87176334  0.00583417  0.98157550
   0.99796014  0.99621888  0.00054138
   0.17378733  0.99064765  0.98891433
   0.03252172  0.00534121  0.91363563
   0.98796598  0.13569389  0.94751990
   0.90888453  0.82811369  0.94653449
   0.78976133  0.84884295  0.99955729
   0.19281664  0.16555609  0.00761992
   0.06619542  0.13963462  0.06822040
   0.96666115  0.94918831  0.08781322
   0.03299144  0.85504677  0.03900292
   0.83775895  0.03695834  0.00064154
   0.60001824  0.60001891  0.65735187
   0.19999197  0.79999640  0.21911838
   0.20001074  0.60000499  0.65735158
   0.59999232  0.79999714  0.21911392
   0.20000270  0.60000079  0.21911342
   0.60000341  0.80000152  0.65735184
   0.19999911  0.40000765  0.21911559
   0.79998427 -0.00001306  0.21911653
   0.20000364  0.20000073  0.65735384
   0.79999950  0.00000200  0.65735396
   0.19997742  0.19996386  0.21911961
   0.19999974  0.80000158  0.65735176
   0.19999979  0.39999781  0.65735173
   0.59998980  0.59999507  0.21911106
   0.39999733  0.60000408  0.21911358
   0.39998143 -0.00000049  0.65735168
   0.60000307  0.39999679  0.65735168
   0.39998434  0.19998756  0.21911463
   0.60000580  0.39999918  0.21911344
   0.39999072  0.19999557  0.65735119
   0.40000057  0.40000539  0.21911345
   0.60000275  0.20000595  0.65735153
   0.39998149  0.39998204  0.65735180
   0.60000624  0.20000508  0.21911336
   0.39999576  0.79999043  0.65735136
   0.39999579  0.60000482  0.65735140
   0.60001897 -0.00000059  0.65735188
   0.39999773  0.79999425  0.21911514
   0.59999659 -0.00000208  0.21911019
   0.40000265 -0.00000105  0.21911224
   0.80000376  0.19999423  0.21911412
   0.20000374  0.00000336  0.65735366
   0.19997361  0.00000263  0.21911410
   0.00005501  0.00001441  0.21907677
   0.79999906  0.79999720  0.65735396
  -0.00000063  0.00000010  0.65734505
   0.79999212  0.80000197  0.21912768
   0.00001711  0.20001448  0.21911262
  -0.00000296  0.19999898  0.65735368
   0.80000409  0.60000965  0.65735096
   0.00000494  0.40000743  0.21910918
   0.00000059  0.39998115  0.65735150
   0.00000814  0.59999308  0.21910922
   0.79999317  0.39999645  0.65735151
   0.00000082  0.60001898  0.65735144
   0.80000495  0.60001045  0.21911523
   0.79999872  0.39999777  0.21911234
  -0.00000303  0.79999763  0.65735351
   0.00002756  0.80001586  0.21910848
   0.80000422  0.19999408  0.65735099
   0.93335519  0.06666105  0.17069689
   0.73333347  0.26666666  0.60896601
   0.73333362  0.26666597  0.70573236
   0.93333309  0.66666656  0.70573303
   0.93333362  0.66666664  0.60896569
   0.73332986  0.26666700  0.17073542
   0.73333347  0.26666555  0.26750032
   0.93333115  0.46666621  0.26750016
   0.73333335  0.06666650  0.60896549
   0.73333336  0.06666581  0.70573340
   0.93333218  0.06666598  0.70573298
   0.93330528  0.86661946  0.17076637
   0.73333105  0.06666580  0.17073356
   0.93333352  0.06666674  0.60896602
   0.73333433  0.06666550  0.26749978
   0.93333282  0.26666964  0.17073408
   0.93333294  0.26666593  0.70573321
   0.93333559  0.86666810  0.26750226
   0.73333414  0.46666791  0.26750020
   0.73333195  0.46666385  0.17073561
   0.73333632  0.86667025  0.17072682
   0.73333351  0.86666706  0.70573335
   0.73333907  0.86666905  0.26749707
   0.93333129  0.46666663  0.17073582
   0.73333414  0.86666691  0.60896584
   0.73333336  0.66666665  0.60896557
   0.73333315  0.66666737  0.70573323
   0.93333301  0.46666604  0.70573274
   0.73333335  0.66666425  0.17073161
   0.93333264  0.46666620  0.60896601
   0.73333364  0.66666867  0.26749927
   0.93333365  0.26666678  0.60896561
   0.93333546  0.26666578  0.26750008
   0.73333343  0.46666658  0.60896604
   0.73333347  0.46666675  0.70573225
   0.93333675  0.66667073  0.26750042
   0.93333618  0.06666659  0.26750043
   0.93333783  0.66666796  0.17073038
   0.53333470  0.86666788  0.60896624
   0.53333450  0.06666662  0.70573283
   0.53333090  0.86666626  0.17073453
   0.33332303  0.26665159  0.17072503
   0.33333252  0.26666660  0.26750008
   0.33333341  0.06666649  0.60896566
   0.33333408  0.06666649  0.70573285
   0.33331932  0.06666346  0.17072571
   0.33333219  0.06666550  0.26750029
   0.13333321  0.86666704  0.60896614
   0.13333301  0.86666645  0.70573281
   0.13333858  0.86668304  0.17071202
   0.13332665  0.86666686  0.26749997
   0.13333223  0.66666664  0.60896642
   0.13333249  0.66666652  0.70573247
   0.33333381  0.26666723  0.70573283
   0.13333600  0.66667546  0.17073317
   0.13333227  0.46666536  0.60896639
   0.13333224  0.46666526  0.70573255
   0.13333604  0.46666848  0.17073428
   0.13333462  0.46666465  0.26750038
   0.13333324  0.26666594  0.60896608
   0.13333258  0.26666626  0.70573290
   0.13332937  0.26664173  0.17071412
   0.13332832  0.26666037  0.26749799
   0.13333368  0.06666673  0.60896620
   0.13333243  0.06666633  0.70573260
   0.13335429  0.06666945  0.17070951
   0.13332985  0.06666568  0.26750633
   0.13333245  0.66666816  0.26749995
   0.33333344  0.26666673  0.60896566
   0.33333061  0.46666500  0.26749937
   0.33333362  0.46666456  0.17073462
   0.53333568  0.86666713  0.26750015
   0.53333474  0.66666656  0.60896626
   0.53333551  0.66666773  0.70573282
   0.53333239  0.66666641  0.17073550
   0.53333607  0.66666857  0.26749943
   0.53333388  0.46666621  0.60896595
   0.53333410  0.46666731  0.70573270
   0.53333037  0.46666114  0.17073432
   0.53333486  0.46666499  0.26750001
   0.53333352  0.26666667  0.60896605
   0.53333401  0.26666671  0.70573213
   0.53332923  0.26666340  0.17073539
   0.53333144  0.26666555  0.26749983
   0.53333390  0.06666747  0.60896591
   0.93333230  0.86666664  0.70573288
   0.53332802  0.06666772  0.17073436
   0.53333440  0.06666953  0.26750011
   0.33333351  0.86666792  0.60896636
   0.33333426  0.86666772  0.70573255
   0.33332833  0.86667099  0.17073281
   0.33333247  0.86666739  0.26749967
   0.33333351  0.66666662  0.60896486
   0.33333429  0.66666704  0.70573432
   0.33333337  0.66666773  0.17073644
   0.33333277  0.66666567  0.26750100
   0.33333351  0.46666532  0.60896634
   0.33333384  0.46666608  0.70573254
   0.53333574  0.86666801  0.70573290
   0.93333349  0.86666652  0.60896611
Direct configuration=     3
   0.07741381  0.08311267  0.05481301
   0.14388320  0.09683712  0.02262565
   0.02366952  0.98237506  0.06458305
   0.05739519  0.93238950  0.03831540
   0.13229310  0.00406491  0.01208453
   0.95262996  0.05837018  0.95428317
   0.90961410  0.89561799  0.95319593
   0.97628182  0.98953173  0.93647516
   0.84567059  0.90628047  0.98072136
   0.87177105  0.00582797  0.98157294
   0.99795813  0.99622604  0.00055037
   0.17378617  0.99065042  0.98891407
   0.03252348  0.00534072  0.91363697
   0.98796787  0.13568952  0.94752016
   0.90888471  0.82811282  0.94653575
   0.78976486  0.84884994  0.99955612
   0.19281790  0.16555819  0.00762075
   0.06619175  0.13963205  0.06822531
   0.96666046  0.94918617  0.08781400
   0.03299113  0.85504886  0.03900323
   0.83776479  0.03695831  0.00064078
   0.60002089  0.60002165  0.65735211
   0.19999081  0.79999588  0.21911861
   0.20001230  0.60000571  0.65735178
   0.59999121  0.79999673  0.21911352
   0.20000310  0.60000090  0.21911294
   0.60000390  0.80000174  0.65735208
   0.19999898  0.40000876  0.21911543
   0.79998199 -0.00001496  0.21911650
   0.20000417  0.20000083  0.65735437
   0.79999943  0.00000229  0.65735451
   0.19997415  0.19995861  0.21912003
   0.19999970  0.80000181  0.65735198
   0.19999976  0.39999749  0.65735195
   0.59998832  0.59999436  0.21911024
   0.39999694  0.60000467  0.21911312
   0.39997874 -0.00000056  0.65735189
   0.60000352  0.39999632  0.65735189
   0.39998207  0.19998575  0.21911433
   0.60000664  0.39999906  0.21911296
   0.39998937  0.19999493  0.65735133
   0.40000065  0.40000617  0.21911298
   0.60000315  0.20000681  0.65735173
   0.39997880  0.39997943  0.65735203
   0.60000715  0.20000582  0.21911287
   0.39999515  0.79998904  0.65735152
   0.39999518  0.60000551  0.65735157
   0.60002172 -0.00000068  0.65735213
   0.39999741  0.79999341  0.21911491
   0.59999609 -0.00000239  0.21910924
   0.40000304 -0.00000120  0.21911159
   0.80000431  0.19999339  0.21911374
   0.20000429  0.00000384  0.65735416
   0.19996978  0.00000301  0.21911372
   0.00006300  0.00001650  0.21907097
   0.79999892  0.79999679  0.65735450
  -0.00000073  0.00000012  0.65734431
   0.79999097  0.80000226  0.21912927
   0.00001960  0.20001658  0.21911202
  -0.00000339  0.19999884  0.65735419
   0.80000469  0.60001106  0.65735107
   0.00000566  0.40000851  0.21910808
   0.00000068  0.39997842  0.65735169
   0.00000932  0.59999207  0.21910813
   0.79999218  0.39999594  0.65735170
   0.00000094  0.60002173  0.65735162
   0.80000567  0.60001196  0.21911501
   0.79999853  0.39999745  0.21911170
  -0.00000347  0.79999728  0.65735399
   0.00003156  0.80001816  0.21910729
   0.80000483  0.19999322  0.65735110
   0.93335836  0.06666024  0.17081862
   0.73333349  0.26666666  0.60909291
   0.73333366  0.26666586  0.70560516
   0.93333306  0.66666655  0.70560592
   0.93333366  0.66666663  0.60909254
   0.73332936  0.26666705  0.17086274
   0.73333349  0.26666539  0.26737333
   0.93333083  0.46666614  0.26737314
   0.73333336  0.06666648  0.60909231
   0.73333336  0.06666569  0.70560636
   0.93333201  0.06666588  0.70560587
   0.93330120  0.86661261  0.17089819
   0.73333072  0.06666568  0.17086061
   0.93333354  0.06666675  0.60909293
   0.73333448  0.06666533  0.26737271
   0.93333274  0.26667007  0.17086120
   0.93333288  0.26666582  0.70560614
   0.93333591  0.86666831  0.26737555
   0.73333425  0.46666810  0.26737320
   0.73333175  0.46666344  0.17086296
   0.73333676  0.86667077  0.17085290
   0.73333353  0.86666712  0.70560629
   0.73333990  0.86666940  0.26736961
   0.93333100  0.46666663  0.17086319
   0.73333426  0.86666695  0.60909272
   0.73333337  0.66666664  0.60909240
   0.73333312  0.66666748  0.70560615
   0.93333296  0.46666595  0.70560559
   0.73333335  0.66666390  0.17085838
   0.93333254  0.46666613  0.60909291
   0.73333368  0.66666896  0.26737213
   0.93333369  0.26666679  0.60909245
   0.93333577  0.26666565  0.26737306
   0.73333344  0.46666657  0.60909295
   0.73333349  0.46666677  0.70560504
   0.93333724  0.66667132  0.26737344
   0.93333659  0.06666658  0.26737345
   0.93333849  0.66666815  0.17085697
   0.53333490  0.86666805  0.60909317
   0.53333467  0.06666661  0.70560569
   0.53333054  0.86666620  0.17086172
   0.33332153  0.26664940  0.17085084
   0.33333240  0.26666659  0.26737305
   0.33333342  0.06666646  0.60909252
   0.33333419  0.06666646  0.70560572
   0.33331728  0.06666299  0.17085162
   0.33333203  0.06666533  0.26737329
   0.13333319  0.86666710  0.60909306
   0.13333296  0.86666642  0.70560567
   0.13333934  0.86668542  0.17083594
   0.13332568  0.86666689  0.26737293
   0.13333207  0.66666664  0.60909338
   0.13333237  0.66666650  0.70560529
   0.33333388  0.26666731  0.70560569
   0.13333638  0.66667673  0.17086016
   0.13333212  0.46666518  0.60909335
   0.13333208  0.46666506  0.70560537
   0.13333643  0.46666874  0.17086144
   0.13333480  0.46666436  0.26737340
   0.13333322  0.26666584  0.60909299
   0.13333247  0.26666620  0.70560577
   0.13332880  0.26663811  0.17083835
   0.13332759  0.26665946  0.26737066
   0.13333373  0.06666674  0.60909313
   0.13333230  0.06666628  0.70560544
   0.13335734  0.06666985  0.17083307
   0.13332935  0.06666554  0.26738021
   0.13333232  0.66666837  0.26737291
   0.33333345  0.26666674  0.60909251
   0.33333021  0.46666476  0.26737224
   0.33333366  0.46666425  0.17086182
   0.53333602  0.86666720  0.26737314
   0.53333495  0.66666655  0.60909319
   0.53333582  0.66666788  0.70560569
   0.53333226  0.66666637  0.17086283
   0.53333646  0.66666884  0.26737231
   0.53333396  0.46666614  0.60909284
   0.53333421  0.46666740  0.70560555
   0.53332994  0.46666034  0.17086148
   0.53333508  0.46666474  0.26737297
   0.53333355  0.26666667  0.60909296
   0.53333411  0.26666671  0.70560490
   0.53332864  0.26666292  0.17086271
   0.53333117  0.26666539  0.26737277
   0.53333399  0.06666759  0.60909280
   0.93333215  0.86666664  0.70560575
   0.53332725  0.06666787  0.17086152
   0.53333455  0.06666994  0.26737308
   0.33333354  0.86666811  0.60909331
   0.33333440  0.86666787  0.70560538
   0.33332760  0.86667162  0.17085975
   0.33333234  0.86666749  0.26737258
   0.33333353  0.66666661  0.60909159
   0.33333442  0.66666710  0.70560741
   0.33333337  0.66666789  0.17086390
   0.33333269  0.66666552  0.26737411
   0.33333354  0.46666513  0.60909329
   0.33333391  0.46666599  0.70560536
   0.53333609  0.86666820  0.70560577
   0.93333352  0.86666650  0.60909303
Direct configuration=     4
   0.07741387  0.08311290  0.05481301
   0.14388343  0.09683722  0.02262567
   0.02366945  0.98237493  0.06458316
   0.05739515  0.93238926  0.03831537
   0.13229329  0.00406499  0.01208451
   0.95262991  0.05837031  0.95428311
   0.90961405  0.89561779  0.95319588
   0.97628190  0.98953180  0.93647508
   0.84567044  0.90628034  0.98072132
   0.87177094  0.00582805  0.98157297
   0.99795816  0.99622594  0.00055025
   0.17378618  0.99065039  0.98891407
   0.03252345  0.00534072  0.91363695
   0.98796785  0.13568958  0.94752016
   0.90888471  0.82811283  0.94653573
   0.78976481  0.84884984  0.99955613
   0.19281788  0.16555816  0.00762074
   0.06619180  0.13963208  0.06822524
   0.96666047  0.94918620  0.08781399
   0.03299114  0.85504883  0.03900323
   0.83776471  0.03695831  0.00064079
   0.60002085  0.60002162  0.65735211
   0.19999082  0.79999589  0.21911861
   0.20001228  0.60000570  0.65735177
   0.59999122  0.79999674  0.21911352
   0.20000309  0.60000090  0.21911295
   0.60000390  0.80000174  0.65735208
   0.19999898  0.40000875  0.21911543
   0.79998202 -0.00001493  0.21911650
   0.20000416  0.20000083  0.65735436
   0.79999943  0.00000229  0.65735450
   0.19997419  0.19995868  0.21912002
   0.19999970  0.80000180  0.65735198
   0.19999976  0.39999750  0.65735194
   0.59998834  0.59999437  0.21911025
   0.39999695  0.60000466  0.21911313
   0.39997877 -0.00000056  0.65735189
   0.60000351  0.39999633  0.65735189
   0.39998210  0.19998578  0.21911433
   0.60000663  0.39999906  0.21911297
   0.39998939  0.19999494  0.65735132
   0.40000065  0.40000616  0.21911298
   0.60000315  0.20000680  0.65735172
   0.39997884  0.39997946  0.65735203
   0.60000713  0.20000581  0.21911288
   0.39999516  0.79998906  0.65735152
   0.39999518  0.60000551  0.65735157
   0.60002168 -0.00000068  0.65735212
   0.39999741  0.79999342  0.21911491
   0.59999610 -0.00000238  0.21910925
   0.40000303 -0.00000120  0.21911159
   0.80000430  0.19999340  0.21911375
   0.20000428  0.00000384  0.65735415
   0.19996983  0.00000301  0.21911372
   0.00006289  0.00001647  0.21907105
   0.79999893  0.79999679  0.65735450
  -0.00000072  0.00000012  0.65734432
   0.79999099  0.80000225  0.21912925
   0.00001956  0.20001655  0.21911203
  -0.00000339  0.19999884  0.65735418
   0.80000468  0.60001104  0.65735107
   0.00000565  0.40000850  0.21910810
   0.00000068  0.39997846  0.65735169
   0.00000930  0.59999208  0.21910814
   0.79999219  0.39999595  0.65735170
   0.00000094  0.60002169  0.65735161
   0.80000566  0.60001194  0.21911502
   0.79999853  0.39999745  0.21911171
  -0.00000347  0.79999729  0.65735398
   0.00003151  0.80001813  0.21910730
   0.80000482  0.19999323  0.65735110
   0.93335832  0.06666025  0.17081694
   0.73333349  0.26666666  0.60909116
   0.73333366  0.26666587  0.70560691
   0.93333306  0.66666655  0.70560768
   0.93333366  0.66666663  0.60909079
   0.73332936  0.26666704  0.17086098
   0.73333349  0.26666539  0.26737508
   0.93333084  0.46666614  0.26737489
   0.73333336  0.06666648  0.60909056
   0.73333336  0.06666569  0.70560811
   0.93333201  0.06666588  0.70560762
   0.93330126  0.86661270  0.17089637
   0.73333072  0.06666568  0.17085886
   0.93333354  0.06666674  0.60909117
   0.73333448  0.06666534  0.26737446
   0.93333274  0.26667006  0.17085945
   0.93333288  0.26666582  0.70560789
   0.93333591  0.86666830  0.26737730
   0.73333425  0.46666809  0.26737495
   0.73333175  0.46666345  0.17086120
   0.73333675  0.86667077  0.17085116
   0.73333353  0.86666712  0.70560804
   0.73333989  0.86666939  0.26737136
   0.93333100  0.46666663  0.17086144
   0.73333426  0.86666695  0.60909097
   0.73333337  0.66666664  0.60909065
   0.73333312  0.66666748  0.70560790
   0.93333296  0.46666595  0.70560735
   0.73333335  0.66666390  0.17085663
   0.93333254  0.46666613  0.60909116
   0.73333368  0.66666895  0.26737388
   0.93333369  0.26666679  0.60909070
   0.93333576  0.26666565  0.26737481
   0.73333344  0.46666657  0.60909120
   0.73333349  0.46666677  0.70560679
   0.93333724  0.66667131  0.26737519
   0.93333659  0.06666658  0.26737520
   0.93333848  0.66666814  0.17085522
   0.53333489  0.86666805  0.60909142
   0.53333467  0.06666661  0.70560745
   0.53333055  0.86666620  0.17085997
   0.33332155  0.26664943  0.17084911
   0.33333240  0.26666659  0.26737480
   0.33333342  0.06666646  0.60909077
   0.33333419  0.06666646  0.70560747
   0.33331731  0.06666300  0.17084989
   0.33333203  0.06666533  0.26737504
   0.13333319  0.86666710  0.60909131
   0.13333296  0.86666642  0.70560743
   0.13333933  0.86668538  0.17083423
   0.13332569  0.86666689  0.26737468
   0.13333207  0.66666664  0.60909163
   0.13333237  0.66666650  0.70560704
   0.33333388  0.26666731  0.70560745
   0.13333638  0.66667671  0.17085841
   0.13333212  0.46666518  0.60909160
   0.13333208  0.46666506  0.70560713
   0.13333643  0.46666873  0.17085968
   0.13333480  0.46666436  0.26737515
   0.13333323  0.26666584  0.60909124
   0.13333247  0.26666620  0.70560753
   0.13332881  0.26663816  0.17083664
   0.13332760  0.26665947  0.26737242
   0.13333372  0.06666674  0.60909138
   0.13333230  0.06666628  0.70560719
   0.13335729  0.06666984  0.17083137
   0.13332936  0.06666554  0.26738195
   0.13333232  0.66666837  0.26737466
   0.33333345  0.26666674  0.60909077
   0.33333021  0.46666476  0.26737399
   0.33333366  0.46666425  0.17086007
   0.53333602  0.86666719  0.26737489
   0.53333495  0.66666655  0.60909144
   0.53333582  0.66666788  0.70560744
   0.53333226  0.66666637  0.17086108
   0.53333646  0.66666884  0.26737406
   0.53333396  0.46666614  0.60909109
   0.53333421  0.46666740  0.70560730
   0.53332995  0.46666035  0.17085972
   0.53333508  0.46666475  0.26737472
   0.53333355  0.26666667  0.60909120
   0.53333411  0.26666671  0.70560665
   0.53332865  0.26666293  0.17086095
   0.53333117  0.26666539  0.26737452
   0.53333399  0.06666759  0.60909105
   0.93333215  0.86666664  0.70560751
   0.53332726  0.06666787  0.17085977
   0.53333455  0.06666994  0.26737484
   0.33333353  0.86666810  0.60909156
   0.33333440  0.86666787  0.70560713
   0.33332761  0.86667161  0.17085800
   0.33333235  0.86666749  0.26737433
   0.33333353  0.66666661  0.60908984
   0.33333442  0.66666710  0.70560916
   0.33333337  0.66666788  0.17086215
   0.33333269  0.66666552  0.26737586
   0.33333354  0.46666513  0.60909154
   0.33333391  0.46666599  0.70560711
   0.53333609  0.86666820  0.70560753
   0.93333352  0.86666650  0.60909128
Direct configuration=     5
   0.07741384  0.08311279  0.05481301
   0.14388332  0.09683717  0.02262566
   0.02366948  0.98237499  0.06458311
   0.05739517  0.93238938  0.03831539
   0.13229320  0.00406495  0.01208452
   0.95262993  0.05837025  0.95428314
   0.90961407  0.89561789  0.95319591
   0.97628186  0.98953177  0.93647512
   0.84567051  0.90628040  0.98072134
   0.87177100  0.00582801  0.98157295
   0.99795814  0.99622599  0.00055031
   0.17378618  0.99065040  0.98891407
   0.03252346  0.00534072  0.91363696
   0.98796786  0.13568955  0.94752016
   0.90888471  0.82811283  0.94653574
   0.78976483  0.84884989  0.99955612
   0.19281789  0.16555818  0.00762074
   0.06619178  0.13963207  0.06822527
   0.96666046  0.94918619  0.08781400
   0.03299113  0.85504885  0.03900323
   0.83776475  0.03695831  0.00064078
   0.60002087  0.60002163  0.65735211
   0.19999082  0.79999588  0.21911861
   0.20001229  0.60000570  0.65735178
   0.59999122  0.79999673  0.21911352
   0.20000309  0.60000090  0.21911295
   0.60000390  0.80000174  0.65735208
   0.19999898  0.40000876  0.21911543
   0.79998201 -0.00001494  0.21911650
   0.20000417  0.20000083  0.65735436
   0.79999943  0.00000229  0.65735450
   0.19997417  0.19995865  0.21912003
   0.19999970  0.80000180  0.65735198
   0.19999976  0.39999750  0.65735194
   0.59998833  0.59999436  0.21911025
   0.39999694  0.60000467  0.21911312
   0.39997876 -0.00000056  0.65735189
   0.60000352  0.39999632  0.65735189
   0.39998208  0.19998576  0.21911433
   0.60000664  0.39999906  0.21911297
   0.39998938  0.19999494  0.65735132
   0.40000065  0.40000616  0.21911298
   0.60000315  0.20000681  0.65735172
   0.39997882  0.39997945  0.65735203
   0.60000714  0.20000582  0.21911288
   0.39999515  0.79998905  0.65735152
   0.39999518  0.60000551  0.65735157
   0.60002170 -0.00000068  0.65735212
   0.39999741  0.79999342  0.21911491
   0.59999610 -0.00000238  0.21910925
   0.40000304 -0.00000120  0.21911159
   0.80000430  0.19999339  0.21911375
   0.20000428  0.00000384  0.65735415
   0.19996981  0.00000301  0.21911372
   0.00006294  0.00001648  0.21907101
   0.79999893  0.79999679  0.65735450
  -0.00000072  0.00000012  0.65734431
   0.79999098  0.80000226  0.21912926
   0.00001958  0.20001657  0.21911202
  -0.00000339  0.19999884  0.65735418
   0.80000468  0.60001105  0.65735107
   0.00000565  0.40000850  0.21910809
   0.00000068  0.39997844  0.65735169
   0.00000931  0.59999208  0.21910813
   0.79999218  0.39999594  0.65735170
   0.00000094  0.60002171  0.65735162
   0.80000566  0.60001195  0.21911502
   0.79999853  0.39999745  0.21911171
  -0.00000347  0.79999729  0.65735398
   0.00003153  0.80001814  0.21910729
   0.80000483  0.19999323  0.65735110
   0.93335834  0.06666024  0.17081775
   0.73333349  0.26666666  0.60909200
   0.73333366  0.26666586  0.70560606
   0.93333306  0.66666655  0.70560683
   0.93333366  0.66666663  0.60909163
   0.73332936  0.26666705  0.17086183
   0.73333349  0.26666539  0.26737423
   0.93333084  0.46666614  0.26737405
   0.73333336  0.06666648  0.60909141
   0.73333336  0.06666569  0.70560726
   0.93333201  0.06666588  0.70560677
   0.93330123  0.86661266  0.17089725
   0.73333072  0.06666568  0.17085970
   0.93333354  0.06666675  0.60909202
   0.73333448  0.06666533  0.26737362
   0.93333274  0.26667006  0.17086029
   0.93333288  0.26666582  0.70560704
   0.93333591  0.86666830  0.26737646
   0.73333425  0.46666809  0.26737410
   0.73333175  0.46666345  0.17086205
   0.73333675  0.86667077  0.17085200
   0.73333353  0.86666712  0.70560720
   0.73333989  0.86666940  0.26737052
   0.93333100  0.46666663  0.17086229
   0.73333426  0.86666695  0.60909182