 running on   24 total cores
 distrk:  each k-point on   24 cores,    1 groups
 distr:  one band on    2 cores,   12 groups
 using from now: INCAR     
 vasp.5.4.1 05Feb16 (build Apr 21 2017 13:36:42) gamma-only                     
  
 POSCAR found :  5 types and     171 ions
 scaLAPACK will be used

 ----------------------------------------------------------------------------- 
|                                                                             |
|           W    W    AA    RRRRR   N    N  II  N    N   GGGG   !!!           |
|           W    W   A  A   R    R  NN   N  II  NN   N  G    G  !!!           |
|           W    W  A    A  R    R  N N  N  II  N N  N  G       !!!           |
|           W WW W  AAAAAA  RRRRR   N  N N  II  N  N N  G  GGG   !            |
|           WW  WW  A    A  R   R   N   NN  II  N   NN  G    G                |
|           W    W  A    A  R    R  N    N  II  N    N   GGGG   !!!           |
|                                                                             |
|      For optimal performance we recommend to set                            |
|        NCORE= 4 - approx SQRT( number of cores)                             |
|      NCORE specifies how many cores store one orbital (NPAR=cpu/NCORE).     |
|      This setting can  greatly improve the performance of VASP for DFT.     |
|      The default, NPAR=number of cores might be grossly inefficient         |
|      on modern multi-core architectures or massively parallel machines.     |
|      Do your own testing !!!!                                               |
|      Unfortunately you need to use the default for GW and RPA calculations. |
|      (for HF NCORE is supported but not extensively tested yet)             |
|                                                                             |
 ----------------------------------------------------------------------------- 

 LDA part: xc-table for Pade appr. of Perdew
 POSCAR found :  5 types and     171 ions
 POSCAR, INCAR and KPOINTS ok, starting setup
 FFT: planning ...
 WAVECAR not read
 entering main loop
       N       E                     dE             d eps       ncg     rms          rms(c)
DAV:   1     0.764660415645E+04    0.76466E+04   -0.36491E+05  1200   0.114E+03
DAV:   2    -0.260193681757E+03   -0.79068E+04   -0.76690E+04  1584   0.270E+02
DAV:   3    -0.126208698821E+04   -0.10019E+04   -0.98860E+03  1356   0.103E+02
DAV:   4    -0.132110333468E+04   -0.59016E+02   -0.58719E+02  1764   0.299E+01
DAV:   5    -0.132310521512E+04   -0.20019E+01   -0.19920E+01  1764   0.494E+00    0.170E+02
DAV:   6    -0.127581094956E+04    0.47294E+02   -0.97376E+02  1596   0.277E+01    0.929E+01
DAV:   7    -0.129101273791E+04   -0.15202E+02   -0.11460E+03  1776   0.487E+01    0.543E+01
DAV:   8    -0.123489671685E+04    0.56116E+02   -0.98301E+01  1428   0.860E+00    0.338E+01
DAV:   9    -0.124779171662E+04   -0.12895E+02   -0.22303E+02  1764   0.985E+00    0.615E+01
DAV:  10    -0.121414932334E+04    0.33642E+02   -0.11473E+02  1752   0.194E+01    0.217E+01
DAV:  11    -0.122318239571E+04   -0.90331E+01   -0.10953E+02  1728   0.398E+00    0.204E+01
DAV:  12    -0.122388669728E+04   -0.70430E+00   -0.24539E+01  1608   0.184E+00    0.171E+01
DAV:  13    -0.122372247440E+04    0.16422E+00   -0.43980E+00  1728   0.821E-01    0.170E+01
DAV:  14    -0.122354108483E+04    0.18139E+00   -0.89419E+00  1680   0.150E+00    0.162E+01
DAV:  15    -0.122360394424E+04   -0.62859E-01   -0.29313E+00  1776   0.144E+00    0.159E+01
DAV:  16    -0.122435164892E+04   -0.74770E+00   -0.56668E+00  1656   0.934E-01    0.200E+01
DAV:  17    -0.122378551890E+04    0.56613E+00   -0.12312E+00  1728   0.809E-01    0.156E+01
DAV:  18    -0.122476856762E+04   -0.98305E+00   -0.36756E+00  1644   0.647E-01    0.178E+01
DAV:  19    -0.122588589422E+04   -0.11173E+01   -0.33179E-01  1548   0.898E-01    0.155E+01
DAV:  20    -0.122478574937E+04    0.11001E+01   -0.52231E-01  1656   0.966E-01    0.131E+01
DAV:  21    -0.122404780338E+04    0.73795E+00   -0.12544E-01  1644   0.468E-01    0.120E+01
DAV:  22    -0.122350103978E+04    0.54676E+00   -0.14756E+00  1716   0.377E-01    0.534E+00
DAV:  23    -0.122353137429E+04   -0.30335E-01   -0.37390E-01  1560   0.197E-01    0.930E+00
DAV:  24    -0.122335013617E+04    0.18124E+00   -0.40723E-01  1668   0.262E-01    0.402E+00
DAV:  25    -0.122328956276E+04    0.60573E-01   -0.42512E-02  1752   0.181E-01    0.311E+00
DAV:  26    -0.122326259065E+04    0.26972E-01   -0.19023E-02  1560   0.144E-01    0.334E+00
DAV:  27    -0.122319571316E+04    0.66877E-01   -0.53427E-02  1668   0.139E-01    0.230E+00
DAV:  28    -0.122314648489E+04    0.49228E-01   -0.39556E-02  1764   0.112E-01    0.238E+00
DAV:  29    -0.122311956577E+04    0.26919E-01   -0.53059E-02  1656   0.679E-02    0.184E+00
DAV:  30    -0.122309273110E+04    0.26835E-01   -0.98768E-03  1536   0.673E-02    0.179E+00
DAV:  31    -0.122306386086E+04    0.28870E-01   -0.73541E-03  1620   0.638E-02    0.171E+00
DAV:  32    -0.122303036680E+04    0.33494E-01   -0.81386E-03  1596   0.821E-02    0.171E+00
DAV:  33    -0.122300898626E+04    0.21381E-01   -0.47288E-03  1608   0.731E-02    0.159E+00
DAV:  34    -0.122299295631E+04    0.16030E-01   -0.26210E-03  1524   0.582E-02    0.169E+00
DAV:  35    -0.122297053769E+04    0.22419E-01   -0.35818E-03  1536   0.653E-02    0.152E+00
DAV:  36    -0.122295696825E+04    0.13569E-01   -0.18654E-03  1344   0.479E-02    0.160E+00
DAV:  37    -0.122293489246E+04    0.22076E-01   -0.32703E-03  1536   0.781E-02    0.138E+00
DAV:  38    -0.122292331301E+04    0.11579E-01   -0.17784E-03  1380   0.450E-02    0.139E+00
DAV:  39    -0.122291207009E+04    0.11243E-01   -0.10294E-03  1332   0.438E-02    0.127E+00
DAV:  40    -0.122289906071E+04    0.13009E-01   -0.11267E-03  1320   0.508E-02    0.124E+00
DAV:  41    -0.122287353212E+04    0.25529E-01   -0.38432E-03  1488   0.982E-02    0.111E+00
DAV:  42    -0.122286906052E+04    0.44716E-02   -0.19531E-03  1272   0.322E-02    0.111E+00
DAV:  43    -0.122286483631E+04    0.42242E-02   -0.28026E-04   996   0.190E-02    0.107E+00
DAV:  44    -0.122286016434E+04    0.46720E-02   -0.19678E-04  1056   0.202E-02    0.107E+00
DAV:  45    -0.122284994571E+04    0.10219E-01   -0.73311E-04  1236   0.423E-02    0.102E+00
DAV:  46    -0.122283258747E+04    0.17358E-01   -0.24978E-03  1512   0.777E-02    0.940E-01
DAV:  47    -0.122282465535E+04    0.79321E-02   -0.18464E-03  1440   0.422E-02    0.863E-01
DAV:  48    -0.122282217625E+04    0.24791E-02   -0.47393E-04  1188   0.193E-02    0.854E-01
DAV:  49    -0.122281917165E+04    0.30046E-02   -0.11291E-04   876   0.157E-02    0.807E-01
DAV:  50    -0.122282038603E+04   -0.12144E-02   -0.13958E-04   816   0.123E-02    0.848E-01
DAV:  51    -0.122280792287E+04    0.12463E-01   -0.20638E-03  1464   0.615E-02    0.712E-01
DAV:  52    -0.122280624341E+04    0.16795E-02   -0.44915E-04  1152   0.177E-02    0.691E-01
DAV:  53    -0.122280489021E+04    0.13532E-02   -0.47855E-05   828   0.112E-02    0.687E-01
DAV:  54    -0.122279954941E+04    0.53408E-02   -0.41693E-04  1188   0.288E-02    0.621E-01
DAV:  55    -0.122279887181E+04    0.67760E-03   -0.17412E-04   972   0.113E-02    0.638E-01
DAV:  56    -0.122279548508E+04    0.33867E-02   -0.20942E-04  1044   0.274E-02    0.662E-01
DAV:  57    -0.122278805624E+04    0.74288E-02   -0.14946E-03  1416   0.575E-02    0.411E-01
DAV:  58    -0.122278409568E+04    0.39606E-02   -0.91393E-04  1260   0.422E-02    0.438E-01
DAV:  59    -0.122278202238E+04    0.20733E-02   -0.42210E-04  1248   0.244E-02    0.424E-01
DAV:  60    -0.122277788000E+04    0.41424E-02   -0.67600E-04  1332   0.443E-02    0.376E-01
DAV:  61    -0.122277473264E+04    0.31474E-02   -0.12442E-03  1416   0.521E-02    0.194E-01
DAV:  62    -0.122277456889E+04    0.16375E-03   -0.52935E-04  1188   0.168E-02    0.196E-01
DAV:  63    -0.122277446692E+04    0.10196E-03   -0.32118E-05   828   0.653E-03    0.165E-01
DAV:  64    -0.122277427922E+04    0.18770E-03   -0.57208E-05   828   0.998E-03    0.162E-01
DAV:  65    -0.122277422287E+04    0.56349E-04   -0.61357E-05   852   0.908E-03
   1 F= -.12532379E+04 E0= -.12531718E+04  d E =-.125324E+04
 curvature:   0.00 expect dE= 0.000E+00 dE for cont linesearch  0.000E+00
 trial: gam= 0.00000 g(F)=  0.824E+00 g(S)=  0.000E+00 ort = 0.000E+00 (trialstep = 0.100E+01)
 search vector abs. value=  0.824E+00
 bond charge predicted
       N       E                     dE             d eps       ncg     rms          rms(c)
DAV:   1    -0.122297528272E+04   -0.20100E+00   -0.45327E+01  1272   0.493E+00    0.678E+00
DAV:   2    -0.122351268188E+04   -0.53740E+00   -0.46624E+00  1440   0.210E+00    0.586E+00
DAV:   3    -0.122404956672E+04   -0.53688E+00   -0.10657E+01  1644   0.167E+00    0.154E+01
DAV:   4    -0.122343317143E+04    0.61640E+00   -0.19769E+00  1680   0.103E+00    0.357E+00
DAV:   5    -0.122339788164E+04    0.35290E-01   -0.20333E+00  1656   0.618E-01    0.469E+00
DAV:   6    -0.122331149523E+04    0.86386E-01   -0.69809E-01  1572   0.204E-01    0.128E+00
DAV:   7    -0.122327203312E+04    0.39462E-01   -0.46456E-01  1620   0.257E-01    0.299E+00
DAV:   8    -0.122323160803E+04    0.40425E-01   -0.45964E-01  1632   0.213E-01    0.527E-01
DAV:   9    -0.122321552331E+04    0.16085E-01   -0.17789E-01  1620   0.133E-01    0.171E+00
DAV:  10    -0.122320553037E+04    0.99929E-02   -0.12518E-01  1524   0.729E-02    0.483E-01
DAV:  11    -0.122319937564E+04    0.61547E-02   -0.18643E-02  1452   0.535E-02    0.968E-01
DAV:  12    -0.122319484320E+04    0.45324E-02   -0.15626E-02  1596   0.666E-02    0.353E-01
DAV:  13    -0.122319328605E+04    0.15571E-02   -0.50352E-03  1368   0.416E-02    0.553E-01
DAV:  14    -0.122319241989E+04    0.86616E-03   -0.52848E-03  1476   0.377E-02    0.345E-01
DAV:  15    -0.122319175368E+04    0.66621E-03   -0.44149E-03  1212   0.324E-02    0.264E-01
DAV:  16    -0.122319173071E+04    0.22973E-04   -0.20035E-03   852   0.211E-02    0.293E-01
DAV:  17    -0.122319146765E+04    0.26306E-03   -0.19104E-03   912   0.171E-02    0.977E-02
DAV:  18    -0.122319155244E+04   -0.84792E-04   -0.90068E-04   792   0.129E-02
   2 F= -.12537104E+04 E0= -.12536456E+04  d E =-.472470E+00
 trial-energy change:   -0.472470  1 .order   -0.466552   -0.823902   -0.109202
 step:   1.1446(harm=  1.1528)  dis= 0.03246  next Energy= -1253.718301 (dE=-0.480E+00)
 bond charge predicted
       N       E                     dE             d eps       ncg     rms          rms(c)
DAV:   1    -0.122318665305E+04    0.48146E-02   -0.94506E-01  1224   0.699E-01    0.829E-01
DAV:   2    -0.122319166461E+04   -0.50116E-02   -0.59791E-02  1284   0.208E-01    0.621E-01
DAV:   3    -0.122320036308E+04   -0.86985E-02   -0.14488E-02  1500   0.101E-01    0.179E+00
DAV:   4    -0.122319541184E+04    0.49512E-02   -0.17326E-02  1308   0.888E-02    0.638E-01
DAV:   5    -0.122319677560E+04   -0.13638E-02   -0.67757E-03  1428   0.432E-02    0.889E-01
DAV:   6    -0.122319387702E+04    0.28986E-02   -0.59119E-03  1224   0.369E-02    0.383E-01
DAV:   7    -0.122319315099E+04    0.72603E-03   -0.16363E-03   960   0.216E-02    0.482E-01
DAV:   8    -0.122319217596E+04    0.97503E-03   -0.71934E-04   888   0.216E-02    0.112E-01
DAV:   9    -0.122319206193E+04    0.11403E-03   -0.37873E-04   792   0.156E-02    0.281E-01
DAV:  10    -0.122319172336E+04    0.33858E-03   -0.21405E-04   756   0.118E-02    0.416E-02
DAV:  11    -0.122319172413E+04   -0.77389E-06   -0.14442E-04   732   0.891E-03
   3 F= -.12537190E+04 E0= -.12536539E+04  d E =-.481054E+00
 curvature:  -0.57 expect dE=-0.423E-02 dE for cont linesearch -0.121E-05
 trial: gam= 0.00734 g(F)=  0.737E-02 g(S)=  0.000E+00 ort = 0.132E-02 (trialstep = 0.103E+01)
 search vector abs. value=  0.743E-02
 bond charge predicted
       N       E                     dE             d eps       ncg     rms          rms(c)
DAV:   1    -0.122317817791E+04    0.13545E-01   -0.10159E+00  1176   0.632E-01    0.533E-01
DAV:   2    -0.122320446207E+04   -0.26284E-01   -0.94788E-02  1644   0.240E-01    0.163E+00
DAV:   3    -0.122318773958E+04    0.16722E-01   -0.93302E-02  1476   0.204E-01    0.107E+00
DAV:   4    -0.122318632290E+04    0.14167E-02   -0.16803E-02  1224   0.694E-02    0.866E-01
DAV:   5    -0.122318299399E+04    0.33289E-02   -0.37665E-03  1104   0.475E-02    0.705E-01
DAV:   6    -0.122318132733E+04    0.16667E-02   -0.33750E-03  1260   0.428E-02    0.425E-01
DAV:   7    -0.122318147586E+04   -0.14853E-03   -0.33737E-03  1104   0.309E-02    0.723E-01
DAV:   8    -0.122317987426E+04    0.16016E-02   -0.33021E-03   996   0.216E-02    0.166E-01
DAV:   9    -0.122317969535E+04    0.17892E-03   -0.21347E-03   900   0.198E-02    0.442E-01
DAV:  10    -0.122317924329E+04    0.45206E-03   -0.15367E-03   756   0.124E-02    0.166E-01
DAV:  11    -0.122317917714E+04    0.66145E-04   -0.88505E-04   732   0.110E-02
   4 F= -.12537077E+04 E0= -.12536420E+04  d E =0.112252E-01
 trial-energy change:    0.011225  1 .order    0.010653   -0.007591    0.028897
 step:   0.1990(harm=  0.2141)  dis= 0.00114  next Energy= -1253.719703 (dE=-0.730E-03)
 bond charge predicted
       N       E                     dE             d eps       ncg     rms          rms(c)
DAV:   1    -0.122319133901E+04   -0.12096E-01   -0.66213E-01  1200   0.507E-01    0.261E-01
DAV:   2    -0.122321030642E+04   -0.18967E-01   -0.42808E-02  1584   0.159E-01    0.260E+00
DAV:   3    -0.122319874257E+04    0.11564E-01   -0.21522E-02  1380   0.929E-02    0.478E-01
DAV:   4    -0.122319405801E+04    0.46846E-02   -0.29502E-03  1200   0.391E-02    0.542E-01
DAV:   5    -0.122319288837E+04    0.11696E-02   -0.10228E-03   996   0.242E-02    0.186E-01
DAV:   6    -0.122319240391E+04    0.48446E-03   -0.12133E-03   948   0.204E-02    0.237E-01
DAV:   7    -0.122319226342E+04    0.14049E-03   -0.82392E-04   888   0.145E-02    0.172E-01
DAV:   8    -0.122319217034E+04    0.93084E-04   -0.13812E-03   792   0.111E-02    0.113E-01
DAV:   9    -0.122319210154E+04    0.68801E-04   -0.10680E-03   696   0.856E-03    0.910E-02
DAV:  10    -0.122319208153E+04    0.20014E-04   -0.80020E-04   696   0.648E-03
   5 F= -.12537196E+04 E0= -.12536551E+04  d E =-.609532E-03
 curvature:  -0.11 expect dE=-0.418E-04 dE for cont linesearch -0.236E-06
 ZBRENT: interpolating
 opt :   0.1956  next Energy= -1253.719583 (dE=-0.610E-03)
 bond charge predicted
       N       E                     dE             d eps       ncg     rms          rms(c)
DAV:   1    -0.122319207064E+04    0.30895E-04   -0.47133E-04   708   0.627E-03    0.489E-02
DAV:   2    -0.122319266886E+04   -0.59822E-03   -0.18455E-03   864   0.195E-02    0.374E-01
DAV:   3    -0.122319226180E+04    0.40706E-03   -0.21565E-03   900   0.244E-02    0.166E-01
DAV:   4    -0.122319212352E+04    0.13828E-03   -0.24719E-04   696   0.756E-03    0.872E-02
DAV:   5    -0.122319208042E+04    0.43099E-04   -0.10487E-04   720   0.460E-03
   6 F= -.12537196E+04 E0= -.12536554E+04  d E =-.604122E-03
 curvature:  -0.10 expect dE=-0.362E-04 dE for cont linesearch -0.491E-06
 ZBRENT: bisectioning
 opt :   0.0978  next Energy= -1253.719688 (dE=-0.715E-03)
 bond charge predicted
       N       E                     dE             d eps       ncg     rms          rms(c)
DAV:   1    -0.122319200924E+04    0.11428E-03   -0.92190E-03  1080   0.598E-02    0.361E-02
DAV:   2    -0.122319234559E+04   -0.33635E-03   -0.80459E-04   924   0.217E-02    0.267E-01
DAV:   3    -0.122319205384E+04    0.29175E-03   -0.47740E-04   804   0.165E-02    0.648E-02
DAV:   4    -0.122319203210E+04    0.21742E-04   -0.36148E-05   696   0.457E-03
   7 F= -.12537194E+04 E0= -.12536548E+04  d E =-.431689E-03
 curvature: -22.14 expect dE=-0.346E-01 dE for cont linesearch -0.322E-01
 ZBRENT: interpolating
 opt :   0.1902  next Energy= -1253.719578 (dE=-0.605E-03)
 bond charge predicted
       N       E                     dE             d eps       ncg     rms          rms(c)
DAV:   1    -0.122319204560E+04    0.82436E-05   -0.84349E-03  1080   0.571E-02    0.277E-02
DAV:   2    -0.122319228779E+04   -0.24219E-03   -0.69954E-04   936   0.201E-02    0.189E-01
DAV:   3    -0.122319207735E+04    0.21044E-03   -0.38981E-04   780   0.147E-02    0.436E-02
DAV:   4    -0.122319207913E+04   -0.17798E-05   -0.29056E-05   672   0.385E-03
   8 F= -.12537196E+04 E0= -.12536552E+04  d E =-.595950E-03
 curvature:  -0.00 expect dE=-0.119E-06 dE for cont linesearch -0.264E-08
 ZBRENT: interpolating
 opt :   0.1931  next Energy= -1253.719578 (dE=-0.604E-03)
 bond charge predicted
       N       E                     dE             d eps       ncg     rms          rms(c)
DAV:   1    -0.122319207033E+04    0.70122E-05   -0.32806E-05   660   0.354E-03    0.256E-02
DAV:   2    -0.122319215127E+04   -0.80941E-04   -0.18479E-04   732   0.748E-03
   9 F= -.12537196E+04 E0= -.12536535E+04  d E =-.671872E-03
 curvature:  -0.03 expect dE=-0.153E-04 dE for cont linesearch -0.959E-07
 ZBRENT: interpolating
 opt :   0.1942  next Energy= -1253.719645 (dE=-0.672E-03)
 bond charge predicted
       N       E                     dE             d eps       ncg     rms          rms(c)
DAV:   1    -0.122319211167E+04   -0.41339E-04   -0.32476E-04   768   0.122E-02    0.879E-02
DAV:   2    -0.122319974150E+04   -0.76298E-02   -0.94849E-03  1212   0.644E-02    0.160E+00
DAV:   3    -0.122319379120E+04    0.59503E-02   -0.72605E-03  1152   0.593E-02    0.256E-01
DAV:   4    -0.122319222692E+04    0.15643E-02   -0.88721E-04   996   0.199E-02    0.943E-02
DAV:   5    -0.122319211632E+04    0.11060E-03   -0.18228E-04   720   0.849E-03    0.805E-02
DAV:   6    -0.122319208373E+04    0.32593E-04   -0.11087E-04   696   0.471E-03
  10 F= -.12537196E+04 E0= -.12536549E+04  d E =-.605685E-03
 curvature:  -0.03 expect dE=-0.942E-05 dE for cont linesearch -0.182E-06
 ZBRENT: interpolating
 opt :   0.1949  next Energy= -1253.719578 (dE=-0.604E-03)
 bond charge predicted
       N       E                     dE             d eps       ncg     rms          rms(c)
DAV:   1    -0.122319207567E+04    0.40649E-04   -0.65463E-05   696   0.385E-03    0.379E-02
DAV:   2    -0.122319230367E+04   -0.22800E-03   -0.41645E-04   768   0.102E-02    0.228E-01
DAV:   3    -0.122319220641E+04    0.97262E-04   -0.77914E-04   792   0.170E-02
  11 F= -.12537197E+04 E0= -.12536575E+04  d E =-.729312E-03
 curvature:  -0.01 expect dE=-0.337E-05 dE for cont linesearch -0.150E-06
 ZBRENT: interpolating
 opt :   0.1945  next Energy= -1253.719579 (dE=-0.606E-03)
 bond charge predicted
       N       E                     dE             d eps       ncg     rms          rms(c)
DAV:   1    -0.122319210121E+04    0.20246E-03   -0.16191E-04   720   0.725E-03    0.682E-02
DAV:   2    -0.122319273011E+04   -0.62890E-03   -0.72906E-04   828   0.174E-02    0.347E-01
DAV:   3    -0.122319253511E+04    0.19501E-03   -0.20037E-03   924   0.293E-02    0.288E-01
DAV:   4    -0.122319220552E+04    0.32959E-03   -0.50219E-04   756   0.129E-02    0.128E-01
DAV:   5    -0.122319210823E+04    0.97285E-04   -0.69441E-05   708   0.497E-03
  12 F= -.12537196E+04 E0= -.12536546E+04  d E =-.630555E-03
 curvature:  -0.00 expect dE=-0.719E-06 dE for cont linesearch -0.217E-07
 ZBRENT: bisectioning
 opt :   0.1947  next Energy= -1253.719604 (dE=-0.631E-03)
 bond charge predicted
       N       E                     dE             d eps       ncg     rms          rms(c)
DAV:   1    -0.122319208801E+04    0.11751E-03   -0.30030E-05   696   0.416E-03    0.510E-02
DAV:   2    -0.122319231355E+04   -0.22554E-03   -0.15792E-04   768   0.750E-03    0.227E-01
DAV:   3    -0.122319233864E+04   -0.25086E-04   -0.76247E-04   828   0.179E-02
  13 F= -.12537198E+04 E0= -.12536585E+04  d E =-.861248E-03
 curvature:  -0.01 expect dE=-0.270E-05 dE for cont linesearch -0.227E-06
 ZBRENT: interpolating
 opt :   0.1946  next Energy= -1253.719604 (dE=-0.631E-03)
 bond charge predicted
       N       E                     dE             d eps       ncg     rms          rms(c)
DAV:   1    -0.122319213443E+04    0.17912E-03   -0.32427E-04   744   0.106E-02    0.925E-02
DAV:   2    -0.122319331096E+04   -0.11765E-02   -0.12434E-03   972   0.237E-02    0.465E-01
DAV:   3    -0.122319290900E+04    0.40196E-03   -0.35417E-03  1032   0.390E-02    0.387E-01
DAV:   4    -0.122319234412E+04    0.56488E-03   -0.86768E-04   816   0.169E-02    0.179E-01
DAV:   5    -0.122319216182E+04    0.18230E-03   -0.12662E-04   720   0.687E-03    0.941E-02
DAV:   6    -0.122319213026E+04    0.31561E-04   -0.54789E-05   696   0.517E-03
  14 F= -.12537196E+04 E0= -.12536557E+04  d E =-.652685E-03
 curvature:  -0.00 expect dE=-0.130E-06 dE for cont linesearch -0.478E-08
 ZBRENT: interpolating
 opt :   0.1945  next Energy= -1253.719604 (dE=-0.631E-03)
 bond charge predicted
       N       E                     dE             d eps       ncg     rms          rms(c)
DAV:   1    -0.122319208717E+04    0.74648E-04   -0.33045E-05   696   0.373E-03    0.461E-02
DAV:   2    -0.122319231693E+04   -0.22975E-03   -0.15575E-04   732   0.754E-03    0.221E-01
DAV:   3    -0.122319228187E+04    0.35060E-04   -0.60789E-04   792   0.162E-02
  15 F= -.12537198E+04 E0= -.12536520E+04  d E =-.804237E-03
 curvature:  -0.00 expect dE=-0.218E-06 dE for cont linesearch -0.159E-07
 ZBRENT: interpolating
 opt :   0.1946  next Energy= -1253.719626 (dE=-0.653E-03)
 bond charge predicted
       N       E                     dE             d eps       ncg     rms          rms(c)
DAV:   1    -0.122319214007E+04    0.17686E-03   -0.23556E-04   732   0.872E-03    0.100E-01
DAV:   2    -0.122319424239E+04   -0.21023E-02   -0.20677E-03  1044   0.306E-02    0.749E-01
DAV:   3    -0.122319321757E+04    0.10248E-02   -0.47280E-03  1068   0.453E-02    0.329E-01
DAV:   4    -0.122319232763E+04    0.88994E-03   -0.77760E-04   840   0.149E-02    0.175E-01
DAV:   5    -0.122319215504E+04    0.17259E-03   -0.11772E-04   720   0.692E-03    0.888E-02
DAV:   6    -0.122319211961E+04    0.35427E-04   -0.80197E-05   696   0.578E-03
  16 F= -.12537196E+04 E0= -.12536545E+04  d E =-.642016E-03
 curvature:  -0.00 expect dE=-0.235E-07 dE for cont linesearch -0.110E-08
 ZBRENT: interpolating
 opt :   0.1946  next Energy= -1253.719626 (dE=-0.653E-03)
 bond charge predicted
       N       E                     dE             d eps       ncg     rms          rms(c)
DAV:   1    -0.122319208166E+04    0.73381E-04   -0.32083E-05   696   0.386E-03    0.383E-02
DAV:   2    -0.122319218859E+04   -0.10694E-03   -0.28058E-05   672   0.281E-03    0.152E-01
DAV:   3    -0.122319214180E+04    0.46791E-04   -0.11988E-04   708   0.664E-03
  17 F= -.12537196E+04 E0= -.12536567E+04  d E =-.664218E-03
 curvature:  -0.00 expect dE=-0.264E-07 dE for cont linesearch -0.834E-09
 ZBRENT: bisectioning
 opt :   0.1946  next Energy= -1253.719638 (dE=-0.664E-03)
 bond charge predicted
       N       E                     dE             d eps       ncg     rms          rms(c)
DAV:   1    -0.122319210925E+04    0.79338E-04   -0.10019E-04   672   0.531E-03    0.799E-02
DAV:   2    -0.122319285507E+04   -0.74581E-03   -0.78753E-04   900   0.187E-02    0.379E-01
DAV:   3    -0.122319275050E+04    0.10457E-03   -0.24937E-03   972   0.326E-02    0.357E-01
DAV:   4    -0.122319225927E+04    0.49122E-03   -0.69896E-04   780   0.154E-02    0.146E-01
DAV:   5    -0.122319213466E+04    0.12461E-03   -0.94770E-05   720   0.601E-03    0.847E-02
DAV:   6    -0.122319210430E+04    0.30368E-04   -0.39677E-05   696   0.449E-03
  18 F= -.12537196E+04 E0= -.12536555E+04  d E =-.626706E-03
 curvature:  -0.00 expect dE=-0.396E-07 dE for cont linesearch -0.762E-09
 ZBRENT: bisectioning
 opt :   0.1946  next Energy= -1253.719600 (dE=-0.627E-03)
 bond charge predicted
       N       E                     dE             d eps       ncg     rms          rms(c)
DAV:   1    -0.122319208206E+04    0.52608E-04   -0.20849E-05   672   0.310E-03    0.458E-02
DAV:   2    -0.122319233458E+04   -0.25252E-03   -0.24895E-04   756   0.943E-03    0.228E-01
DAV:   3    -0.122319228624E+04    0.48339E-04   -0.75382E-04   756   0.180E-02
  19 F= -.12537198E+04 E0= -.12536519E+04  d E =-.808645E-03
 curvature:  -0.00 expect dE=-0.366E-07 dE for cont linesearch -0.260E-08
 ZBRENT: interpolating
 opt :   0.1946  next Energy= -1253.719600 (dE=-0.627E-03)
 bond charge predicted
       N       E                     dE             d eps       ncg     rms          rms(c)
DAV:   1    -0.122319213175E+04    0.20283E-03   -0.23425E-04   696   0.886E-03    0.920E-02
DAV:   2    -0.122319423662E+04   -0.21049E-02   -0.21214E-03  1008   0.311E-02    0.753E-01
DAV:   3    -0.122319303139E+04    0.12052E-02   -0.42232E-03  1032   0.431E-02    0.294E-01
DAV:   4    -0.122319230721E+04    0.72418E-03   -0.59384E-04   756   0.130E-02    0.173E-01
DAV:   5    -0.122319213703E+04    0.17018E-03   -0.97426E-05   672   0.650E-03    0.737E-02
DAV:   6    -0.122319211912E+04    0.17911E-04   -0.69294E-05   660   0.524E-03
  20 F= -.12537196E+04 E0= -.12536545E+04  d E =-.641526E-03
 curvature:  -0.00 expect dE=-0.658E-09 dE for cont linesearch -0.320E-10
 ZBRENT: interpolating
 opt :   0.1946  next Energy= -1253.719600 (dE=-0.627E-03)
 bond charge predicted
       N       E                     dE             d eps       ncg     rms          rms(c)
DAV:   1    -0.122319207639E+04    0.60639E-04   -0.29408E-05   660   0.366E-03    0.286E-02
DAV:   2    -0.122319214731E+04   -0.70924E-04   -0.26579E-05   636   0.254E-03
  21 F= -.12537196E+04 E0= -.12536546E+04  d E =-.669723E-03
 curvature:  -0.00 expect dE=-0.628E-09 dE for cont linesearch -0.396E-10
 ZBRENT:  can not reach accuracy
 opt :   0.0000  next Energy=************* (dE=-0.287+246)
 bond charge predicted
       N       E                     dE             d eps       ncg     rms          rms(c)
DAV:   1    -0.122319167806E+04    0.39833E-03   -0.36469E-02  1140   0.118E-01    0.129E-01
DAV:   2    -0.122319745899E+04   -0.57809E-02   -0.73880E-03  1236   0.653E-02    0.133E+00
DAV:   3    -0.122319367852E+04    0.37805E-02   -0.82204E-03  1140   0.610E-02    0.345E-01
DAV:   4    -0.122319228382E+04    0.13947E-02   -0.85692E-04   936   0.201E-02    0.296E-01
DAV:   5    -0.122319186940E+04    0.41442E-03   -0.28507E-04   744   0.130E-02    0.110E-01
DAV:   6    -0.122319175919E+04    0.11021E-03   -0.22157E-04   684   0.881E-03    0.118E-01
DAV:   7    -0.122319174800E+04    0.11183E-04   -0.65042E-05   684   0.704E-03
  22 F= -.12537190E+04 E0= -.12536544E+04  d E =-.238721E-04
 curvature:   0.00 expect dE= 0.000E+00 dE for cont linesearch  0.000E+00
 ZBRENT: fatal error in bracketing
     please rerun with smaller EDIFF, or copy CONTCAR
     to POSCAR and continue
