 vasp.5.4.1 05Feb16 (build Apr 21 2017 13:36:42) gamma-only                     
  
 executed on           IFC91_ompi date 2020.12.16  13:11:33
 running on   24 total cores
 distrk:  each k-point on   24 cores,    1 groups
 distr:  one band on NCORES_PER_BAND=   2 cores,   12 groups


--------------------------------------------------------------------------------------------------------


 INCAR:
 POTCAR:    PAW_PBE C 08Apr2002                   
 POTCAR:    PAW_PBE Cr 06Sep2000                  
 POTCAR:    PAW_PBE H 15Jun2001                   
 POTCAR:    PAW_PBE Mo 08Apr2002                  
 POTCAR:    PAW_PBE S 06Sep2000                   

 ----------------------------------------------------------------------------- 
|                                                                             |
|           W    W    AA    RRRRR   N    N  II  N    N   GGGG   !!!           |
|           W    W   A  A   R    R  NN   N  II  NN   N  G    G  !!!           |
|           W    W  A    A  R    R  N N  N  II  N N  N  G       !!!           |
|           W WW W  AAAAAA  RRRRR   N  N N  II  N  N N  G  GGG   !            |
|           WW  WW  A    A  R   R   N   NN  II  N   NN  G    G                |
|           W    W  A    A  R    R  N    N  II  N    N   GGGG   !!!           |
|                                                                             |
|      For optimal performance we recommend to set                            |
|        NCORE= 4 - approx SQRT( number of cores)                             |
|      NCORE specifies how many cores store one orbital (NPAR=cpu/NCORE).     |
|      This setting can  greatly improve the performance of VASP for DFT.     |
|      The default, NPAR=number of cores might be grossly inefficient         |
|      on modern multi-core architectures or massively parallel machines.     |
|      Do your own testing !!!!                                               |
|      Unfortunately you need to use the default for GW and RPA calculations. |
|      (for HF NCORE is supported but not extensively tested yet)             |
|                                                                             |
 ----------------------------------------------------------------------------- 

 POTCAR:    PAW_PBE C 08Apr2002                   
   VRHFIN =C: s2p2                                                              
   LEXCH  = PE                                                                  
   EATOM  =   147.1560 eV,   10.8157 Ry                                         
                                                                                
   TITEL  = PAW_PBE C 08Apr2002                                                 
   LULTRA =        F    use ultrasoft PP ?                                      
   IUNSCR =        1    unscreen: 0-lin 1-nonlin 2-no                           
   RPACOR =    1.200    partial core radius                                     
   POMASS =   12.011; ZVAL   =    4.000    mass and valenz                      
   RCORE  =    1.500    outmost cutoff radius                                   
   RWIGS  =    1.630; RWIGS  =    0.863    wigner-seitz radius (au A)           
   ENMAX  =  400.000; ENMIN  =  300.000 eV                                      
   ICORE  =        2    local potential                                         
   LCOR   =        T    correct aug charges                                     
   LPAW   =        T    paw PP                                                  
   EAUG   =  644.873                                                            
   DEXC   =    0.000                                                            
   RMAX   =    1.529    core radius for proj-oper                               
   RAUG   =    1.300    factor for augmentation sphere                          
   RDEP   =    1.501    radius for radial grids                                 
   RDEPT  =    1.300    core radius for aug-charge                              
                                                                                
   Atomic configuration                                                         
    4 entries                                                                   
     n  l   j            E        occ.                                          
     1  0  0.50      -273.3789   2.0000                                         
     2  0  0.50       -13.7508   2.0000                                         
     2  1  0.50        -5.2854   2.0000                                         
     3  2  1.50        -5.4423   0.0000                                         
   Description                                                                  
     l       E           TYP  RCUT    TYP  RCUT                                 
     0    -13.7508458     23  1.200                                             
     0     -8.2022199     23  1.200                                             
     1     -5.2854383     23  1.500                                             
     1     34.0145650     23  1.500                                             
     2     -5.4423304      7  1.500                                             
  local pseudopotential read in
  partial core-charges read in
  partial kinetic energy density read in
  atomic valenz-charges read in
  non local Contribution for L=           0  read in
    real space projection operators read in
  non local Contribution for L=           0  read in
    real space projection operators read in
  non local Contribution for L=           1  read in
    real space projection operators read in
  non local Contribution for L=           1  read in
    real space projection operators read in
    PAW grid and wavefunctions read in
 
   number of l-projection  operators is LMAX  =           4
   number of lm-projection operators is LMMAX =           8
 
 POTCAR:    PAW_PBE Cr 06Sep2000                  
   VRHFIN =Cr : d5 s1                                                           
   LEXCH  = PE                                                                  
   EATOM  =   276.8859 eV,   20.3505 Ry                                         
                                                                                
   TITEL  = PAW_PBE Cr 06Sep2000                                                
   LULTRA =        F    use ultrasoft PP ?                                      
   IUNSCR =        1    unscreen: 0-lin 1-nonlin 2-no                           
   RPACOR =    2.080    partial core radius                                     
   POMASS =   51.996; ZVAL   =    6.000    mass and valenz                      
   RCORE  =    2.500    outmost cutoff radius                                   
   RWIGS  =    2.500; RWIGS  =    1.323    wigner-seitz radius (au A)           
   ENMAX  =  227.080; ENMIN  =  170.310 eV                                      
   RCLOC  =    1.721    cutoff for local pot                                    
   LCOR   =        T    correct aug charges                                     
   LPAW   =        T    paw PP                                                  
   EAUG   =  402.108                                                            
   DEXC   =    0.000                                                            
   RMAX   =    2.552    core radius for proj-oper                               
   RAUG   =    1.300    factor for augmentation sphere                          
   RDEP   =    2.609    radius for radial grids                                 
   RDEPT  =    2.065    core radius for aug-charge                              
                                                                                
   Atomic configuration                                                         
    9 entries                                                                   
     n  l   j            E        occ.                                          
     1  0  0.50     -5880.4963   2.0000                                         
     2  0  0.50      -667.0865   2.0000                                         
     2  1  1.50      -560.6250   6.0000                                         
     3  0  0.50       -73.9860   2.0000                                         
     3  1  1.50       -45.4378   6.0000                                         
     3  2  2.50        -2.9137   5.0000                                         
     4  0  0.50        -4.0071   1.0000                                         
     4  1  0.50        -1.2789   0.0000                                         
     4  3  2.50        -1.3606   0.0000                                         
   Description                                                                  
     l       E           TYP  RCUT    TYP  RCUT                                 
     2     -2.9136677     23  2.500                                             
     2     -4.2742503     23  2.500                                             
     0     -4.0071322     23  2.500                                             
     0      9.4498801     23  2.500                                             
     1     -5.4423304     23  2.500                                             
     1     27.2116520     23  2.500                                             
  local pseudopotential read in
  partial core-charges read in
  partial kinetic energy density read in
  atomic valenz-charges read in
  non local Contribution for L=           2  read in
    real space projection operators read in
  non local Contribution for L=           2  read in
    real space projection operators read in
  non local Contribution for L=           0  read in
    real space projection operators read in
  non local Contribution for L=           0  read in
    real space projection operators read in
  non local Contribution for L=           1  read in
    real space projection operators read in
  non local Contribution for L=           1  read in
    real space projection operators read in
    PAW grid and wavefunctions read in
 
   number of l-projection  operators is LMAX  =           6
   number of lm-projection operators is LMMAX =          18
 
 POTCAR:    PAW_PBE H 15Jun2001                   
   VRHFIN =H: ultrasoft test                                                    
   LEXCH  = PE                                                                  
   EATOM  =    12.4884 eV,    0.9179 Ry                                         
                                                                                
   TITEL  = PAW_PBE H 15Jun2001                                                 
   LULTRA =        F    use ultrasoft PP ?                                      
   IUNSCR =        0    unscreen: 0-lin 1-nonlin 2-no                           
   RPACOR =    0.000    partial core radius                                     
   POMASS =    1.000; ZVAL   =    1.000    mass and valenz                      
   RCORE  =    1.100    outmost cutoff radius                                   
   RWIGS  =    0.700; RWIGS  =    0.370    wigner-seitz radius (au A)           
   ENMAX  =  250.000; ENMIN  =  200.000 eV                                      
   RCLOC  =    0.701    cutoff for local pot                                    
   LCOR   =        T    correct aug charges                                     
   LPAW   =        T    paw PP                                                  
   EAUG   =  400.000                                                            
   RMAX   =    1.123    core radius for proj-oper                               
   RAUG   =    1.200    factor for augmentation sphere                          
   RDEP   =    1.112    radius for radial grids                                 
   RDEPT  =    0.926    core radius for aug-charge                              
                                                                                
   Atomic configuration                                                         
    2 entries                                                                   
     n  l   j            E        occ.                                          
     1  0  0.50        -6.4927   1.0000                                         
     2  1  0.50        -3.4015   0.0000                                         
   Description                                                                  
     l       E           TYP  RCUT    TYP  RCUT                                 
     0     -6.4927494     23  1.100                                             
     0      6.8029130     23  1.100                                             
     1     -4.0817478     23  1.100                                             
  local pseudopotential read in
  atomic valenz-charges read in
  non local Contribution for L=           0  read in
    real space projection operators read in
  non local Contribution for L=           0  read in
    real space projection operators read in
  non local Contribution for L=           1  read in
    real space projection operators read in
    PAW grid and wavefunctions read in
 
   number of l-projection  operators is LMAX  =           3
   number of lm-projection operators is LMMAX =           5
 
 POTCAR:    PAW_PBE Mo 08Apr2002                  
   VRHFIN =Mo: 4p5s4d                                                           
   LEXCH  = PE                                                                  
   EATOM  =   217.5176 eV,   15.9871 Ry                                         
                                                                                
   TITEL  = PAW_PBE Mo 08Apr2002                                                
   LULTRA =        F    use ultrasoft PP ?                                      
   IUNSCR =        1    unscreen: 0-lin 1-nonlin 2-no                           
   RPACOR =    2.200    partial core radius                                     
   POMASS =   95.940; ZVAL   =    6.000    mass and valenz                      
   RCORE  =    2.750    outmost cutoff radius                                   
   RWIGS  =    2.750; RWIGS  =    1.455    wigner-seitz radius (au A)           
   ENMAX  =  224.584; ENMIN  =  168.438 eV                                      
   RCLOC  =    2.111    cutoff for local pot                                    
   LCOR   =        T    correct aug charges                                     
   LPAW   =        T    paw PP                                                  
   EAUG   =  345.278                                                            
   DEXC   =    0.000                                                            
   RMAX   =    2.821    core radius for proj-oper                               
   RAUG   =    1.300    factor for augmentation sphere                          
   RDEP   =    2.815    radius for radial grids                                 
   RDEPT  =    2.211    core radius for aug-charge                              
                                                                                
   Atomic configuration                                                         
   12 entries                                                                   
     n  l   j            E        occ.                                          
     1  0  0.50    -19819.0341   2.0000                                         
     2  0  0.50     -2799.0127   2.0000                                         
     2  1  1.50     -2502.0276   6.0000                                         
     3  0  0.50      -476.4448   2.0000                                         
     3  1  1.50      -379.1496   6.0000                                         
     3  2  2.50      -220.9367  10.0000                                         
     4  0  0.50       -64.3378   2.0000                                         
     4  1  1.50       -38.4773   6.0000                                         
     4  2  2.50        -3.7535   5.0000                                         
     5  0  0.50        -4.0862   1.0000                                         
     5  1  0.50        -2.7701   0.0000                                         
     4  3  2.50        -1.3606   0.0000                                         
   Description                                                                  
     l       E           TYP  RCUT    TYP  RCUT                                 
     2     -3.7534765     23  2.500                                             
     2     -5.1140591     23  2.500                                             
     0     -4.0861560     23  2.600                                             
     0     13.6058260     23  2.600                                             
     1      5.4423304     23  2.750                                             
     1     27.2116520     23  2.750                                             
  local pseudopotential read in
  partial core-charges read in
  partial kinetic energy density read in
  atomic valenz-charges read in
  non local Contribution for L=           2  read in
    real space projection operators read in
  non local Contribution for L=           2  read in
    real space projection operators read in
  non local Contribution for L=           0  read in
    real space projection operators read in
  non local Contribution for L=           0  read in
    real space projection operators read in
  non local Contribution for L=           1  read in
    real space projection operators read in
  non local Contribution for L=           1  read in
    real space projection operators read in
    PAW grid and wavefunctions read in
 
   number of l-projection  operators is LMAX  =           6
   number of lm-projection operators is LMMAX =          18
 
 POTCAR:    PAW_PBE S 06Sep2000                   
   VRHFIN =S : s2p4                                                             
   LEXCH  = PE                                                                  
   EATOM  =   276.8230 eV,   20.3459 Ry                                         
                                                                                
   TITEL  = PAW_PBE S 06Sep2000                                                 
   LULTRA =        F    use ultrasoft PP ?                                      
   IUNSCR =        1    unscreen: 0-lin 1-nonlin 2-no                           
   RPACOR =    1.500    partial core radius                                     
   POMASS =   32.066; ZVAL   =    6.000    mass and valenz                      
   RCORE  =    1.900    outmost cutoff radius                                   
   RWIGS  =    2.200; RWIGS  =    1.164    wigner-seitz radius (au A)           
   ENMAX  =  258.689; ENMIN  =  194.016 eV                                      
   ICORE  =        2    local potential                                         
   LCOR   =        T    correct aug charges                                     
   LPAW   =        T    paw PP                                                  
   EAUG   =  335.092                                                            
   DEXC   =    0.000                                                            
   RMAX   =    1.942    core radius for proj-oper                               
   RAUG   =    1.300    factor for augmentation sphere                          
   RDEP   =    1.954    radius for radial grids                                 
   RDEPT  =    1.744    core radius for aug-charge                              
                                                                                
   Atomic configuration                                                         
    6 entries                                                                   
     n  l   j            E        occ.                                          
     1  0  0.50     -2405.8406   2.0000                                         
     2  0  0.50      -211.7007   2.0000                                         
     2  1  1.50      -156.4958   6.0000                                         
     3  0  0.50       -17.2562   2.0000                                         
     3  1  0.50        -7.0085   4.0000                                         
     3  2  1.50        -6.8029   0.0000                                         
   Description                                                                  
     l       E           TYP  RCUT    TYP  RCUT                                 
     0    -17.2561641     23  1.900                                             
     0    -15.8743224     23  1.900                                             
     1     -7.0085400     23  1.900                                             
     1     -2.7779785     23  1.900                                             
     2     -6.8029130     23  1.900                                             
  local pseudopotential read in
  partial core-charges read in
  partial kinetic energy density read in
  atomic valenz-charges read in
  non local Contribution for L=           0  read in
    real space projection operators read in
  non local Contribution for L=           0  read in
    real space projection operators read in
  non local Contribution for L=           1  read in
    real space projection operators read in
  non local Contribution for L=           1  read in
    real space projection operators read in
    PAW grid and wavefunctions read in
 
   number of l-projection  operators is LMAX  =           4
   number of lm-projection operators is LMMAX =           8
 
 Optimization of the real space projectors (new method)

 maximal supplied QI-value         = 25.13
 optimisation between [QCUT,QGAM] = [ 10.05, 20.36] = [ 28.30,116.06] Ry 
 Optimized for a Real-space Cutoff    1.51 Angstroem

   l    n(q)    QCUT    max X(q) W(low)/X(q) W(high)/X(q)  e(spline) 
   0      9    10.053   115.676    0.19E-03    0.21E-03    0.38E-06
   0      9    10.053    87.132    0.19E-03    0.21E-03    0.38E-06
   1      9    10.053     4.429    0.87E-04    0.11E-03    0.39E-06
   1      9    10.053     2.733    0.59E-04    0.62E-04    0.43E-06
 Optimization of the real space projectors (new method)

 maximal supplied QI-value         = 15.12
 optimisation between [QCUT,QGAM] = [ 10.13, 20.41] = [ 28.73,116.64] Ry 
 Optimized for a Real-space Cutoff    1.55 Angstroem

   l    n(q)    QCUT    max X(q) W(low)/X(q) W(high)/X(q)  e(spline) 
   2      9    10.129    94.395    0.23E-03    0.29E-03    0.30E-06
   2      9    10.129    88.078    0.23E-03    0.29E-03    0.30E-06
   0      9    10.129    50.173    0.57E-04    0.58E-04    0.11E-06
   0      9    10.129    24.906    0.50E-04    0.51E-04    0.96E-07
   1      9    10.129    12.133    0.24E-03    0.21E-04    0.16E-06
   1      9    10.129     7.290    0.17E-03    0.12E-04    0.12E-06
 Optimization of the real space projectors (new method)

 maximal supplied QI-value         = 34.20
 optimisation between [QCUT,QGAM] = [  9.92, 20.18] = [ 27.55,114.04] Ry 
 Optimized for a Real-space Cutoff    1.34 Angstroem

   l    n(q)    QCUT    max X(q) W(low)/X(q) W(high)/X(q)  e(spline) 
   0      8     9.919    19.460    0.16E-03    0.20E-03    0.36E-06
   0      8     9.919    12.209    0.16E-03    0.20E-03    0.35E-06
   1      8     9.919     4.655    0.19E-03    0.46E-03    0.40E-06
 Optimization of the real space projectors (new method)

 maximal supplied QI-value         = 13.61
 optimisation between [QCUT,QGAM] = [ 10.20, 20.41] = [ 29.16,116.64] Ry 
 Optimized for a Real-space Cutoff    1.65 Angstroem

   l    n(q)    QCUT    max X(q) W(low)/X(q) W(high)/X(q)  e(spline) 
   2      9    10.205    80.908    0.21E-03    0.30E-03    0.60E-06
   2      9    10.205    79.000    0.21E-03    0.30E-03    0.60E-06
   0     10    10.205    52.066    0.39E-04    0.38E-04    0.19E-06
   0     10    10.205    24.514    0.33E-04    0.32E-04    0.16E-06
   1     10    10.205    16.033    0.64E-04    0.17E-03    0.19E-06
   1     10    10.205    11.179    0.49E-04    0.13E-03    0.15E-06
 Optimization of the real space projectors (new method)

 maximal supplied QI-value         = 19.84
 optimisation between [QCUT,QGAM] = [ 10.12, 20.44] = [ 28.68,116.96] Ry 
 Optimized for a Real-space Cutoff    1.42 Angstroem

   l    n(q)    QCUT    max X(q) W(low)/X(q) W(high)/X(q)  e(spline) 
   0      9    10.119   187.594    0.52E-04    0.93E-04    0.64E-07
   0      9    10.119   164.243    0.51E-04    0.92E-04    0.63E-07
   1      8    10.119    67.533    0.16E-03    0.17E-03    0.23E-06
   1      8    10.119    50.729    0.16E-03    0.16E-03    0.23E-06
  PAW_PBE C 08Apr2002                   :
 energy of atom  1       EATOM= -147.1560
 kinetic energy error for atom=    0.0288 (will be added to EATOM!!)
  PAW_PBE Cr 06Sep2000                  :
 energy of atom  2       EATOM= -276.8859
 kinetic energy error for atom=    0.0018 (will be added to EATOM!!)
  PAW_PBE H 15Jun2001                   :
 energy of atom  3       EATOM=  -12.4884
 kinetic energy error for atom=    0.0098 (will be added to EATOM!!)
  PAW_PBE Mo 08Apr2002                  :
 energy of atom  4       EATOM= -217.5176
 kinetic energy error for atom=    0.0025 (will be added to EATOM!!)
  PAW_PBE S 06Sep2000                   :
 energy of atom  5       EATOM= -276.8230
 kinetic energy error for atom=    0.0046 (will be added to EATOM!!)
 
 
 POSCAR:  C Cr  H Mo  S                          
  positions in cartesian coordinates
  No initial velocities read in
 exchange correlation table for  LEXCH =        8
   RHO(1)=    0.500       N(1)  =     2000
   RHO(2)=  100.500       N(2)  =     4000

 VTST: version 3.1, (03/28/14)

 CHAIN: initializing optimizer
 
 OPT: Using VASP Conjugate-Gradient optimizer
 CHAIN: Read ICHAIN            0
 
 POSCAR:  C Cr  H Mo  S                          
  positions in cartesian coordinates
  No initial velocities read in
 


--------------------------------------------------------------------------------------------------------


 ion  position               nearest neighbor table
   1  0.449  0.344  0.381-  18 1.09   2 1.42   3 1.43  11 2.20
   2  0.490  0.318  0.414-  17 1.09   1 1.42   5 1.43  11 2.18
   3  0.505  0.447  0.376-  19 1.09   1 1.43   4 1.44  11 2.15
   4  0.583  0.485  0.405-  20 1.09   3 1.44   5 1.44  11 2.09
   5  0.573  0.404  0.430-  12 1.09   2 1.43   4 1.44  11 2.11
   6  0.332  0.357  0.479-  14 1.09  10 1.44   8 1.44  11 2.11
   7  0.460  0.515  0.488-  15 1.09   9 1.43   8 1.44  11 2.15
   8  0.422  0.416  0.501-  13 1.09   7 1.44   6 1.44  11 2.10
   9  0.395  0.517  0.458-  16 1.09  10 1.42   7 1.43  11 2.20
  10  0.317  0.421  0.453-  21 1.09   9 1.42   6 1.44  11 2.18
  11  0.451  0.422  0.438-   4 2.09   8 2.10   5 2.11   6 2.11   3 2.15   7 2.15  10 2.18   2 2.18
                             1 2.20   9 2.20
  12  0.620  0.407  0.454-   5 1.09
  13  0.453  0.391  0.525-   8 1.09
  14  0.284  0.280  0.482-   6 1.09
  15  0.528  0.577  0.498-   7 1.09
  16  0.407  0.581  0.441-   9 1.09
  17  0.461  0.245  0.427-   2 1.09
  18  0.383  0.295  0.364-   1 1.09
  19  0.491  0.489  0.353-   3 1.09
  20  0.640  0.560  0.408-   4 1.09
  21  0.257  0.399  0.431-  10 1.09
  22  0.600  0.600  0.657-  97 2.43 148 2.43 144 2.43  98 2.43 149 2.43 145 2.43  56 3.18  27 3.18
                            61 3.18  44 3.18  38 3.18  47 3.18
  23  0.200  0.800  0.219- 126 2.43 162 2.43 121 2.43 139 2.43 163 2.43 122 2.43  26 3.18  49 3.18
                            51 3.18  64 3.18  54 3.18  70 3.18
  24  0.200  0.600  0.657- 127 2.43 164 2.43 123 2.43 128 2.43 165 2.43 124 2.43  46 3.18  33 3.18
                            47 3.18  63 3.18  34 3.18  66 3.18
  25  0.600  0.800  0.219-  92 2.43 146 2.43 112 2.43  94 2.43 147 2.43 143 2.43  35 3.18  58 3.18
                            29 3.18  36 3.18  50 3.18  49 3.18
  26  0.200  0.600  0.219- 129 2.43 166 2.43 126 2.43 130 2.43 167 2.43 139 2.43  49 3.18  36 3.18
                            23 3.18  62 3.18  28 3.18  64 3.18
  27  0.600  0.800  0.657-  96 2.43 144 2.43 110 2.43  93 2.43 145 2.43 170 2.43  22 3.18  56 3.18
                            31 3.18  47 3.18  48 3.18  46 3.18
  28  0.200  0.400  0.219- 133 2.43 142 2.43 129 2.43 141 2.43 134 2.43 130 2.43  32 3.18  42 3.18
                            36 3.18  59 3.18  26 3.18  62 3.18
  29  0.800  0.000  0.219-  72 2.43  92 2.43  84 2.43  94 2.43 108 2.43  86 2.43  50 3.18  25 3.18
                            59 3.18  58 3.18  52 3.18  55 3.18
  30  0.200  0.200  0.657- 135 2.43 140 2.43 131 2.43 136 2.43 125 2.43 132 2.43  44 3.18  41 3.18
                            34 3.18  57 3.18  53 3.18  60 3.18
  31  0.800  0.000  0.657-  85 2.43  96 2.43  80 2.43  93 2.43  82 2.43  81 2.43  48 3.18  27 3.18
                            60 3.18  56 3.18  71 3.18  57 3.18
  32  0.200  0.200  0.219- 113 2.43 137 2.43 133 2.43 114 2.43 138 2.43 134 2.43  42 3.18  39 3.18
                            28 3.18  55 3.18  54 3.18  59 3.18
  33  0.200  0.800  0.657- 123 2.43 160 2.43 119 2.43 124 2.43 161 2.43 120 2.43  24 3.18  46 3.18
                            37 3.18  66 3.18  53 3.18  69 3.18
  34  0.200  0.400  0.657- 131 2.43 168 2.43 127 2.43 132 2.43 169 2.43 128 2.43  30 3.18  44 3.18
                            47 3.18  60 3.18  24 3.18  63 3.18
  35  0.600  0.600  0.219- 100 2.43 150 2.43 146 2.43 102 2.43 151 2.43 147 2.43  58 3.18  25 3.18
                            67 3.18  42 3.18  40 3.18  36 3.18
  36  0.400  0.600  0.219- 166 2.43 146 2.43 142 2.43 167 2.43 141 2.43 147 2.43  26 3.18  49 3.18
                            28 3.18  25 3.18  42 3.18  35 3.18
  37  0.400  0.000  0.657- 156 2.43 160 2.43 115 2.43 111 2.43 161 2.43 116 2.43  53 3.18  33 3.18
                            43 3.18  46 3.18  41 3.18  48 3.18
  38  0.600  0.400  0.657- 105 2.43 152 2.43 148 2.43 106 2.43 153 2.43 149 2.43  43 3.18  65 3.18
                            61 3.18  41 3.18  22 3.18  44 3.18
  39  0.400  0.200  0.219- 113 2.43 117 2.43 154 2.43 114 2.43 118 2.43 155 2.43  32 3.18  42 3.18
                            54 3.18  40 3.18  51 3.18  45 3.18
  40  0.600  0.400  0.219-  91 2.43 154 2.43 150 2.43  90 2.43 155 2.43 151 2.43  45 3.18  68 3.18
                            67 3.18  39 3.18  35 3.18  42 3.18
  41  0.400  0.200  0.657- 140 2.43 115 2.43 152 2.43 125 2.43 116 2.43 153 2.43  30 3.18  44 3.18
                            53 3.18  38 3.18  37 3.18  43 3.18
  42  0.400  0.400  0.219- 113 2.43 150 2.43 142 2.43 114 2.43 151 2.43 141 2.43  32 3.18  28 3.18
                            39 3.18  35 3.18  36 3.18  40 3.18
  43  0.600  0.200  0.657-  73 2.43 156 2.43 152 2.43  74 2.43 111 2.43 153 2.43  65 3.18  38 3.18
                            71 3.18  37 3.18  48 3.18  41 3.18
  44  0.400  0.400  0.657- 140 2.43 148 2.43 168 2.43 149 2.43 125 2.43 169 2.43  30 3.18  34 3.18
                            41 3.18  22 3.18  47 3.18  38 3.18
  45  0.600  0.200  0.219-  77 2.43 158 2.43 154 2.43  78 2.43 159 2.43 155 2.43  68 3.18  52 3.18
                            40 3.18  51 3.18  50 3.18  39 3.18
  46  0.400  0.800  0.657- 110 2.43 164 2.43 160 2.43 165 2.43 170 2.43 161 2.43  24 3.18  33 3.18
                            47 3.18  48 3.18  37 3.18  27 3.18
  47  0.400  0.600  0.657- 164 2.43 144 2.43 168 2.43 165 2.43 145 2.43 169 2.43  24 3.18  46 3.18
                            34 3.18  27 3.18  44 3.18  22 3.18
  48  0.600  0.000  0.657-  80 2.43 110 2.43 156 2.43  81 2.43 170 2.43 111 2.43  31 3.18  71 3.18
                            46 3.18  27 3.18  43 3.18  37 3.18
  49  0.400  0.800  0.219- 112 2.43 166 2.43 162 2.43 143 2.43 167 2.43 163 2.43  26 3.18  23 3.18
                            36 3.18  50 3.18  51 3.18  25 3.18
  50  0.600  0.000  0.219-  84 2.43 112 2.43 158 2.43 143 2.43  86 2.43 159 2.43  29 3.18  52 3.18
                            49 3.18  25 3.18  45 3.18  51 3.18
  51  0.400  0.000  0.219- 158 2.43 162 2.43 117 2.43 159 2.43 163 2.43 118 2.43  54 3.18  23 3.18
                            45 3.18  49 3.18  39 3.18  50 3.18
  52  0.800  0.200  0.219-  77 2.43  84 2.43  87 2.43  78 2.43  86 2.43 104 2.43  45 3.18  68 3.18
                            50 3.18  62 3.18  29 3.18  59 3.18
  53  0.200  0.000  0.657- 115 2.43 119 2.43 135 2.43 120 2.43 116 2.43 136 2.43  37 3.18  41 3.18
                            69 3.18  33 3.18  30 3.18  57 3.18
  54  0.200  0.000  0.219- 117 2.43 121 2.43 137 2.43 122 2.43 118 2.43 138 2.43  51 3.18  39 3.18
                            70 3.18  32 3.18  23 3.18  55 3.18
  55  0.000  0.000  0.219-  83 2.43 137 2.43  72 2.43  89 2.43 138 2.43 108 2.43  32 3.18  58 3.18
                            59 3.18  70 3.18  54 3.18  29 3.18
  56  0.800  0.800  0.657-  97 2.43  96 2.43 171 2.43  98 2.43  93 2.43 157 2.43  22 3.18  27 3.18
                            61 3.18  57 3.18  31 3.18  69 3.18
  57  0.000  0.000  0.657- 135 2.43 171 2.43  85 2.43 157 2.43 136 2.43  82 2.43  30 3.18  56 3.18
                            60 3.18  69 3.18  53 3.18  31 3.18
  58  0.800  0.800  0.219- 100 2.43  92 2.43  83 2.43 102 2.43  94 2.43  89 2.43  35 3.18  25 3.18
                            67 3.18  55 3.18  29 3.18  70 3.18
  59  0.000  0.200  0.219-  72 2.43 133 2.43  87 2.43 108 2.43 134 2.43 104 2.43  62 3.18  28 3.18
                            29 3.18  55 3.18  32 3.18  52 3.18
  60  0.000  0.200  0.657-  85 2.43 131 2.43 103 2.43  82 2.43 132 2.43  88 2.43  63 3.18  34 3.18
                            31 3.18  57 3.18  30 3.18  71 3.18
  61  0.800  0.600  0.657-  97 2.43 105 2.43  76 2.43  98 2.43 106 2.43  75 2.43  22 3.18  56 3.18
                            38 3.18  69 3.18  65 3.18  66 3.18
  62  0.000  0.400  0.219-  87 2.43 129 2.43  95 2.43 104 2.43 130 2.43  79 2.43  59 3.18  52 3.18
                            26 3.18  64 3.18  28 3.18  68 3.18
  63  0.000  0.400  0.657- 103 2.43 127 2.43 101 2.43  88 2.43 128 2.43  99 2.43  60 3.18  71 3.18
                            24 3.18  66 3.18  34 3.18  65 3.18
  64  0.000  0.600  0.219- 109 2.43  95 2.43 126 2.43 107 2.43  79 2.43 139 2.43  70 3.18  23 3.18
                            68 3.18  62 3.18  26 3.18  67 3.18
  65  0.800  0.400  0.657-  73 2.43 105 2.43 101 2.43  74 2.43 106 2.43  99 2.43  43 3.18  38 3.18
                            71 3.18  66 3.18  61 3.18  63 3.18
  66  0.000  0.600  0.657-  76 2.43 101 2.43 123 2.43  75 2.43  99 2.43 124 2.43  69 3.18  33 3.18
                            65 3.18  63 3.18  61 3.18  24 3.18
  67  0.800  0.600  0.219- 100 2.43  91 2.43 109 2.43 102 2.43  90 2.43 107 2.43  35 3.18  58 3.18
                            40 3.18  70 3.18  68 3.18  64 3.18
  68  0.800  0.400  0.219-  77 2.43  91 2.43  95 2.43  78 2.43  90 2.43  79 2.43  45 3.18  40 3.18
                            52 3.18  64 3.18  67 3.18  62 3.18
  69  0.000  0.800  0.657-  76 2.43 119 2.43 171 2.43 120 2.43  75 2.43 157 2.43  66 3.18  61 3.18
                            53 3.18  57 3.18  56 3.18  33 3.18
  70  0.000  0.800  0.219- 109 2.43 121 2.43  83 2.43 107 2.43 122 2.43  89 2.43  64 3.18  67 3.18
                            54 3.18  55 3.18  23 3.18  58 3.18
  71  0.800  0.200  0.657-  73 2.43  80 2.43 103 2.43  74 2.43  88 2.43  81 2.43  43 3.18  65 3.18
                            48 3.18  63 3.18  31 3.18  60 3.18
  72  0.933  0.067  0.170-  29 2.43  59 2.43  55 2.43
  73  0.733  0.267  0.608-  71 2.43  65 2.43  43 2.43
  74  0.733  0.267  0.707-  71 2.43  65 2.43  43 2.43
  75  0.933  0.667  0.707-  66 2.43  69 2.43  61 2.43
  76  0.933  0.667  0.608-  66 2.43  69 2.43  61 2.43
  77  0.733  0.267  0.170-  52 2.43  45 2.43  68 2.43
  78  0.733  0.267  0.268-  52 2.43  45 2.43  68 2.43
  79  0.933  0.467  0.268-  64 2.43  62 2.43  68 2.43
  80  0.733  0.067  0.608-  48 2.43  71 2.43  31 2.43
  81  0.733  0.067  0.707-  48 2.43  71 2.43  31 2.43
  82  0.933  0.067  0.707-  31 2.43  60 2.43  57 2.43
  83  0.933  0.867  0.170-  55 2.43  70 2.43  58 2.43
  84  0.733  0.067  0.170-  50 2.43  52 2.43  29 2.43
  85  0.933  0.067  0.608-  31 2.43  60 2.43  57 2.43
  86  0.733  0.067  0.268-  50 2.43  52 2.43  29 2.43
  87  0.933  0.267  0.170-  52 2.43  62 2.43  59 2.43
  88  0.933  0.267  0.707-  63 2.43  71 2.43  60 2.43
  89  0.933  0.867  0.268-  55 2.43  70 2.43  58 2.43
  90  0.733  0.467  0.268-  40 2.43  67 2.43  68 2.43
  91  0.733  0.467  0.170-  40 2.43  67 2.43  68 2.43
  92  0.733  0.867  0.170-  25 2.43  29 2.43  58 2.43
  93  0.733  0.867  0.707-  27 2.43  31 2.43  56 2.43
  94  0.733  0.867  0.268-  25 2.43  29 2.43  58 2.43
  95  0.933  0.467  0.170-  64 2.43  62 2.43  68 2.43
  96  0.733  0.867  0.608-  27 2.43  31 2.43  56 2.43
  97  0.733  0.667  0.608-  61 2.43  56 2.43  22 2.43
  98  0.733  0.667  0.707-  61 2.43  56 2.43  22 2.43
  99  0.933  0.467  0.707-  66 2.43  63 2.43  65 2.43
 100  0.733  0.667  0.170-  67 2.43  58 2.43  35 2.43
 101  0.933  0.467  0.608-  66 2.43  63 2.43  65 2.43
 102  0.733  0.667  0.268-  67 2.43  58 2.43  35 2.43
 103  0.933  0.267  0.608-  63 2.43  71 2.43  60 2.43
 104  0.933  0.267  0.268-  52 2.43  62 2.43  59 2.43
 105  0.733  0.467  0.608-  38 2.43  61 2.43  65 2.43
 106  0.733  0.467  0.707-  38 2.43  61 2.43  65 2.43
 107  0.933  0.667  0.268-  64 2.43  70 2.43  67 2.43
 108  0.933  0.067  0.268-  29 2.43  59 2.43  55 2.43
 109  0.933  0.667  0.170-  64 2.43  70 2.43  67 2.43
 110  0.533  0.867  0.608-  46 2.43  48 2.43  27 2.43
 111  0.533  0.067  0.707-  37 2.43  43 2.43  48 2.43
 112  0.533  0.867  0.170-  49 2.43  50 2.43  25 2.43
 113  0.333  0.267  0.170-  39 2.43  32 2.43  42 2.43
 114  0.333  0.267  0.268-  39 2.43  32 2.43  42 2.43
 115  0.333  0.067  0.608-  41 2.43  53 2.43  37 2.43
 116  0.333  0.067  0.707-  41 2.43  53 2.43  37 2.43
 117  0.333  0.067  0.170-  39 2.43  54 2.43  51 2.43
 118  0.333  0.067  0.268-  39 2.43  54 2.43  51 2.43
 119  0.133  0.867  0.608-  53 2.43  69 2.43  33 2.43
 120  0.133  0.867  0.707-  53 2.43  69 2.43  33 2.43
 121  0.133  0.867  0.170-  54 2.43  70 2.43  23 2.43
 122  0.133  0.867  0.268-  54 2.43  70 2.43  23 2.43
 123  0.133  0.667  0.608-  33 2.43  66 2.43  24 2.43
 124  0.133  0.667  0.707-  33 2.43  66 2.43  24 2.43
 125  0.333  0.267  0.707-  41 2.43  30 2.43  44 2.43
 126  0.133  0.667  0.170-  23 2.43  64 2.43  26 2.43
 127  0.133  0.467  0.608-  24 2.43  63 2.43  34 2.43
 128  0.133  0.467  0.707-  24 2.43  63 2.43  34 2.43
 129  0.133  0.467  0.170-  26 2.43  62 2.43  28 2.43
 130  0.133  0.467  0.268-  26 2.43  62 2.43  28 2.43
 131  0.133  0.267  0.608-  34 2.43  60 2.43  30 2.43
 132  0.133  0.267  0.707-  34 2.43  60 2.43  30 2.43
 133  0.133  0.267  0.170-  28 2.43  59 2.43  32 2.43
 134  0.133  0.267  0.268-  28 2.43  59 2.43  32 2.43
 135  0.133  0.067  0.608-  30 2.43  57 2.43  53 2.43
 136  0.133  0.067  0.707-  30 2.43  57 2.43  53 2.43
 137  0.133  0.067  0.170-  32 2.43  55 2.43  54 2.43
 138  0.133  0.067  0.268-  32 2.43  55 2.43  54 2.43
 139  0.133  0.667  0.268-  23 2.43  64 2.43  26 2.43
 140  0.333  0.267  0.608-  41 2.43  30 2.43  44 2.43
 141  0.333  0.467  0.268-  28 2.43  36 2.43  42 2.43
 142  0.333  0.467  0.170-  28 2.43  36 2.43  42 2.43
 143  0.533  0.867  0.268-  49 2.43  50 2.43  25 2.43
 144  0.533  0.667  0.608-  27 2.43  47 2.43  22 2.43
 145  0.533  0.667  0.707-  27 2.43  47 2.43  22 2.43
 146  0.533  0.667  0.170-  25 2.43  36 2.43  35 2.43
 147  0.533  0.667  0.268-  25 2.43  36 2.43  35 2.43
 148  0.533  0.467  0.608-  22 2.43  44 2.43  38 2.43
 149  0.533  0.467  0.707-  22 2.43  44 2.43  38 2.43
 150  0.533  0.467  0.170-  35 2.43  42 2.43  40 2.43
 151  0.533  0.467  0.268-  35 2.43  42 2.43  40 2.43
 152  0.533  0.267  0.608-  38 2.43  41 2.43  43 2.43
 153  0.533  0.267  0.707-  38 2.43  41 2.43  43 2.43
 154  0.533  0.267  0.170-  39 2.43  40 2.43  45 2.43
 155  0.533  0.267  0.268-  39 2.43  40 2.43  45 2.43
 156  0.533  0.067  0.608-  37 2.43  43 2.43  48 2.43
 157  0.933  0.867  0.707-  57 2.43  69 2.43  56 2.43
 158  0.533  0.067  0.170-  45 2.43  51 2.43  50 2.43
 159  0.533  0.067  0.268-  45 2.43  51 2.43  50 2.43
 160  0.333  0.867  0.608-  33 2.43  37 2.43  46 2.43
 161  0.333  0.867  0.707-  33 2.43  37 2.43  46 2.43
 162  0.333  0.867  0.170-  23 2.43  51 2.43  49 2.43
 163  0.333  0.867  0.268-  23 2.43  51 2.43  49 2.43
 164  0.333  0.667  0.608-  47 2.43  46 2.43  24 2.43
 165  0.333  0.667  0.707-  47 2.43  46 2.43  24 2.43
 166  0.333  0.667  0.170-  36 2.43  26 2.43  49 2.43
 167  0.333  0.667  0.268-  36 2.43  26 2.43  49 2.43
 168  0.333  0.467  0.608-  34 2.43  47 2.43  44 2.43
 169  0.333  0.467  0.707-  34 2.43  47 2.43  44 2.43
 170  0.533  0.867  0.707-  46 2.43  48 2.43  27 2.43
 171  0.933  0.867  0.608-  57 2.43  69 2.43  56 2.43
 
  LATTYP: Found a hexagonal cell.
 ALAT       =    15.9000000000
 C/A-ratio  =     2.0364779874
  
  Lattice vectors:
  
 A1 = (  15.9000000000,   0.0000000000,   0.0000000000)
 A2 = (  -7.9500000000,  13.7698039202,   0.0000000000)
 A3 = (   0.0000000000,   0.0000000000,  32.3800000000)


Analysis of symmetry for initial positions (statically):
=====================================================================
 Subroutine PRICEL returns:
 Original cell was already a primitive cell.
 

 Routine SETGRP: Setting up the symmetry group for a 
 hexagonal supercell.


 Subroutine GETGRP returns: Found  1 space group operations
 (whereof  1 operations were pure point group operations)
 out of a pool of 24 trial point group operations.


The static configuration has the point symmetry C_1 .


Analysis of symmetry for dynamics (positions and initial velocities):
=====================================================================
 Subroutine PRICEL returns:
 Original cell was already a primitive cell.
 

 Routine SETGRP: Setting up the symmetry group for a 
 hexagonal supercell.


 Subroutine GETGRP returns: Found  1 space group operations
 (whereof  1 operations were pure point group operations)
 out of a pool of 24 trial point group operations.


The dynamic configuration has the point symmetry C_1 .


Analysis of constrained symmetry for selective dynamics:
=====================================================================
 Subroutine PRICEL returns:
 Original cell was already a primitive cell.
 

 Routine SETGRP: Setting up the symmetry group for a 
 hexagonal supercell.


 Subroutine GETGRP returns: Found  1 space group operations
 (whereof  1 operations were pure point group operations)
 out of a pool of 24 trial point group operations.


The constrained configuration has the point symmetry C_1 .


 Subroutine INISYM returns: Found  1 space group operations
 (whereof  1 operations are pure point group operations),
 and found     1 'primitive' translations

 
 
 KPOINTS: Gamma-point only                        
  k-points in reciprocal lattice
Space group operators:
 irot       det(A)        alpha          n_x          n_y          n_z        tau_x        tau_y        tau_z
    1     1.000000     0.000001     1.000000     0.000000     0.000000     0.000000     0.000000     0.000000


--------------------------------------------------------------------------------------------------------




 Dimension of arrays:
   k-points           NKPTS =      1   k-points in BZ     NKDIM =      1   number of bands    NBANDS=    576
   number of dos      NEDOS =    301   number of ions     NIONS =    171
   non local maximal  LDIM  =      6   non local SUM 2l+1 LMDIM =     18
   total plane-waves  NPLWV = ******
   max r-space proj   IRMAX =   6718   max aug-charges    IRDMAX=  23014
   dimension x,y,z NGX =   108 NGY =  108 NGZ =  216
   dimension x,y,z NGXF=   216 NGYF=  216 NGZF=  432
   support grid    NGXF=   216 NGYF=  216 NGZF=  432
   ions per type =              10   1  10  50 100
 NGX,Y,Z   is equivalent  to a cutoff of  11.29, 11.29, 11.09 a.u.
 NGXF,Y,Z  is equivalent  to a cutoff of  22.58, 22.58, 22.18 a.u.


 I would recommend the setting:
   dimension x,y,z NGX =   104 NGY =  104 NGZ =  211
 SYSTEM =  basalPlane                              
 POSCAR =   C Cr  H Mo  S                          

 Startparameter for this run:
   NWRITE =      2    write-flag & timer
   PREC   = accura    normal or accurate (medium, high low for compatibility)
   ISTART =      0    job   : 0-new  1-cont  2-samecut
   ICHARG =      2    charge: 1-file 2-atom 10-const
   ISPIN  =      1    spin polarized calculation?
   LNONCOLLINEAR =      F non collinear calculations
   LSORBIT =      F    spin-orbit coupling
   INIWAV =      1    electr: 0-lowe 1-rand  2-diag
   LASPH  =      F    aspherical Exc in radial PAW
   METAGGA=      F    non-selfconsistent MetaGGA calc.

 Electronic Relaxation 1
   ENCUT  =  400.0 eV  29.40 Ry    5.42 a.u.  25.93 25.93 52.80*2*pi/ulx,y,z
   ENINI  =  400.0     initial cutoff
   ENAUG  =  645.0 eV  augmentation charge cutoff
   NELM   =    200;   NELMIN=  2; NELMDL= -5     # of ELM steps 
   EDIFF  = 0.1E-03   stopping-criterion for ELM
   LREAL  =      T    real-space projection
   NLSPLINE    = F    spline interpolate recip. space projectors
   LCOMPAT=      F    compatible to vasp.4.4
   GGA_COMPAT  = T    GGA compatible to vasp.4.4-vasp.4.6
   LMAXPAW     = -100 max onsite density
   LMAXMIX     =    2 max onsite mixed and CHGCAR
   VOSKOWN=      0    Vosko Wilk Nusair interpolation
   ROPT   =   -0.00025  -0.00025  -0.00025  -0.00025
   ROPT   =   -0.00025
 Ionic relaxation
   EDIFFG = -.2E-01   stopping-criterion for IOM
   NSW    =  10000    number of steps for IOM
   NBLOCK =      1;   KBLOCK =  10000    inner block; outer block 
   IBRION =      2    ionic relax: 0-MD 1-quasi-New 2-CG
   NFREE  =      1    steps in history (QN), initial steepest desc. (CG)
   ISIF   =      2    stress and relaxation
   IWAVPR =     11    prediction:  0-non 1-charg 2-wave 3-comb
   ISYM   =      2    0-nonsym 1-usesym 2-fastsym
   LCORR  =      T    Harris-Foulkes like correction to forces

   POTIM  = 0.5000    time-step for ionic-motion
   TEIN   =    0.0    initial temperature
   TEBEG  =    0.0;   TEEND  =   0.0 temperature during run
   SMASS  =  -3.00    Nose mass-parameter (am)
   estimated Nose-frequenzy (Omega)   =  0.10E-29 period in steps =****** mass=  -0.578E-26a.u.
   SCALEE = 1.0000    scale energy and forces
   NPACO  =    256;   APACO  = 16.0  distance and # of slots for P.C.
   PSTRESS=    0.0 pullay stress

  Mass of Ions in am
   POMASS =  12.01 52.00  1.00 95.94 32.07
  Ionic Valenz
   ZVAL   =   4.00  6.00  1.00  6.00  6.00
  Atomic Wigner-Seitz radii
   RWIGS  =  -1.00 -1.00 -1.00 -1.00 -1.00
  virtual crystal weights 
   VCA    =   1.00  1.00  1.00  1.00  1.00
   NELECT =     956.0000    total number of electrons
   NUPDOWN=      -1.0000    fix difference up-down

 DOS related values:
   EMIN   =  10.00;   EMAX   =-10.00  energy-range for DOS
   EFERMI =   0.00
   ISMEAR =     0;   SIGMA  =   0.10  broadening in eV -4-tet -1-fermi 0-gaus

 Electronic relaxation 2 (details)
   IALGO  =     38    algorithm
   LDIAG  =      T    sub-space diagonalisation (order eigenvalues)
   LSUBROT=      F    optimize rotation matrix (better conditioning)
   TURBO    =      0    0=normal 1=particle mesh
   IRESTART =      0    0=no restart 2=restart with 2 vectors
   NREBOOT  =      0    no. of reboots
   NMIN     =      0    reboot dimension
   EREF     =   0.00    reference energy to select bands
   IMIX   =      4    mixing-type and parameters
     AMIX     =   0.40;   BMIX     =  1.00
     AMIX_MAG =   1.60;   BMIX_MAG =  1.00
     AMIN     =   0.10
     WC   =   100.;   INIMIX=   1;  MIXPRE=   1;  MAXMIX= -45

 Intra band minimization:
   WEIMIN = 0.0010     energy-eigenvalue tresh-hold
   EBREAK =  0.43E-07  absolut break condition
   DEPER  =   0.30     relativ break condition  

   TIME   =   0.40     timestep for ELM

  volume/ion in A,a.u.               =      41.46       279.77
  Fermi-wavevector in a.u.,A,eV,Ry     =   0.839512  1.586448  9.589119  0.704780
  Thomas-Fermi vector in A             =   1.953743
 
 Write flags
   LWAVE  =      F    write WAVECAR
   LCHARG =      F    write CHGCAR
   LVTOT  =      F    write LOCPOT, total local potential
   LVHAR  =      F    write LOCPOT, Hartree potential only
   LELF   =      F    write electronic localiz. function (ELF)
   LORBIT =      0    0 simple, 1 ext, 2 COOP (PROOUT)


 Dipole corrections
   LMONO  =      F    monopole corrections only (constant potential shift)
   LDIPOL =      F    correct potential (dipole corrections)
   IDIPOL =      0    1-x, 2-y, 3-z, 4-all directions 
   EPSILON=  1.0000000 bulk dielectric constant

 Exchange correlation treatment:
   GGA     =    --    GGA type
   LEXCH   =     8    internal setting for exchange type
   VOSKOWN=      0    Vosko Wilk Nusair interpolation
   LHFCALC =     F    Hartree Fock is set to
   LHFONE  =     F    Hartree Fock one center treatment
   AEXX    =    0.0000 exact exchange contribution

 Linear response parameters
   LEPSILON=     F    determine dielectric tensor
   LRPA    =     F    only Hartree local field effects (RPA)
   LNABLA  =     F    use nabla operator in PAW spheres
   LVEL    =     F    velocity operator in full k-point grid
   LINTERFAST=   F  fast interpolation
   KINTER  =     0    interpolate to denser k-point grid
   CSHIFT  =0.1000    complex shift for real part using Kramers Kronig
   OMEGAMAX=  -1.0    maximum frequency
   DEG_THRESHOLD= 0.2000000E-02 threshold for treating states as degnerate
   RTIME   =    0.100 relaxation time in fs

 Orbital magnetization related:
   ORBITALMAG=     F  switch on orbital magnetization
   LCHIMAG   =     F  perturbation theory with respect to B field
   DQ        =  0.001000  dq finite difference perturbation B field



--------------------------------------------------------------------------------------------------------


 conjugate gradient relaxation of ions
   using selective dynamics as specified on POSCAR
   WARNING: If single coordinates had been selected the selection of coordinates
            is made according to the corresponding   d i r e c t   coordinates!
            Don't support selection of single cartesian coordinates -- sorry ...
  !
 charge density and potential will be updated during run
 non-spin polarized calculation
 Variant of blocked Davidson
 Davidson routine will perform the subspace rotation
 perform sub-space diagonalisation
    after iterative eigenvector-optimisation
 modified Broyden-mixing scheme, WC =      100.0
 initial mixing is a Kerker type mixing with AMIX =  0.4000 and BMIX =      1.0000
 Hartree-type preconditioning will be used
 using additional bands           98
 real space projection scheme for non local part
 use partial core corrections
 calculate Harris-corrections to forces 
   (improved forces if not selfconsistent)
 use gradient corrections 
 use of overlap-Matrix (Vanderbilt PP)
 Gauss-broadening in eV      SIGMA  =   0.10


--------------------------------------------------------------------------------------------------------


  energy-cutoff  :      400.00
  volume of cell :     7089.27
      direct lattice vectors                 reciprocal lattice vectors
    15.900000000  0.000000000  0.000000000     0.062893082  0.036311338  0.000000000
    -7.950000000 13.769803920  0.000000000     0.000000000  0.072622675  0.000000000
     0.000000000  0.000000000 32.380000000     0.000000000  0.000000000  0.030883261

  length of vectors
    15.900000000 15.900000000 32.380000000     0.072622675  0.072622675  0.030883261


 
 k-points in units of 2pi/SCALE and weight: Gamma-point only                        
   0.00000000  0.00000000  0.00000000       1.000
 
 k-points in reciprocal lattice and weights: Gamma-point only                        
   0.00000000  0.00000000  0.00000000       1.000
 
 position of ions in fractional coordinates (direct lattice) 
   0.44899474  0.34431437  0.38109241
   0.48992389  0.31765206  0.41412604
   0.50524645  0.44695982  0.37553779
   0.58266168  0.48487813  0.40547213
   0.57264678  0.40386411  0.42954009
   0.33225082  0.35748484  0.47893801
   0.46038229  0.51503652  0.48803296
   0.42180418  0.41604516  0.50118863
   0.39547076  0.51745106  0.45831363
   0.31697449  0.42114927  0.45251255
   0.45099551  0.42204322  0.43778823
   0.62013454  0.40728549  0.45444525
   0.45299959  0.39051554  0.52450071
   0.28384708  0.27966028  0.48223938
   0.52801866  0.57711597  0.49841357
   0.40683834  0.58130404  0.44126661
   0.46117226  0.24477374  0.42651773
   0.38310316  0.29526416  0.36431231
   0.49136863  0.48896943  0.35282712
   0.63990511  0.56020892  0.40846119
   0.25722756  0.39949275  0.43089089
   0.60000000  0.60000000  0.65735022
   0.20000000  0.80000000  0.21911674
   0.20000000  0.60000000  0.65735022
   0.60000000  0.80000000  0.21911674
   0.20000000  0.60000000  0.21911674
   0.60000000  0.80000000  0.65735022
   0.20000000  0.40000000  0.21911674
   0.80000000  0.00000000  0.21911674
   0.20000000  0.20000000  0.65735022
   0.80000000  0.00000000  0.65735022
   0.20000000  0.20000000  0.21911674
   0.20000000  0.80000000  0.65735022
   0.20000000  0.40000000  0.65735022
   0.60000000  0.60000000  0.21911674
   0.40000000  0.60000000  0.21911674
   0.40000000  0.00000000  0.65735022
   0.60000000  0.40000000  0.65735022
   0.40000000  0.20000000  0.21911674
   0.60000000  0.40000000  0.21911674
   0.40000000  0.20000000  0.65735022
   0.40000000  0.40000000  0.21911674
   0.60000000  0.20000000  0.65735022
   0.40000000  0.40000000  0.65735022
   0.60000000  0.20000000  0.21911674
   0.40000000  0.80000000  0.65735022
   0.40000000  0.60000000  0.65735022
   0.60000000  0.00000000  0.65735022
   0.40000000  0.80000000  0.21911674
   0.60000000  0.00000000  0.21911674
   0.40000000  0.00000000  0.21911674
   0.80000000  0.20000000  0.21911674
   0.20000000  0.00000000  0.65735022
   0.20000000  0.00000000  0.21911674
   0.00000000  0.00000000  0.21911674
   0.80000000  0.80000000  0.65735022
   0.00000000  0.00000000  0.65735022
   0.80000000  0.80000000  0.21911674
   0.00000000  0.20000000  0.21911674
   0.00000000  0.20000000  0.65735022
   0.80000000  0.60000000  0.65735022
   0.00000000  0.40000000  0.21911674
   0.00000000  0.40000000  0.65735022
   0.00000000  0.60000000  0.21911674
   0.80000000  0.40000000  0.65735022
   0.00000000  0.60000000  0.65735022
   0.80000000  0.60000000  0.21911674
   0.80000000  0.40000000  0.21911674
   0.00000000  0.80000000  0.65735022
   0.00000000  0.80000000  0.21911674
   0.80000000  0.20000000  0.65735022
   0.93333333  0.06666667  0.16985794
   0.73333333  0.26666667  0.60809141
   0.73333333  0.26666667  0.70660902
   0.93333333  0.66666667  0.70660902
   0.93333333  0.66666667  0.60809141
   0.73333333  0.26666667  0.16985794
   0.73333333  0.26666667  0.26837554
   0.93333333  0.46666667  0.26837554
   0.73333333  0.06666667  0.60809141
   0.73333333  0.06666667  0.70660902
   0.93333333  0.06666667  0.70660902
   0.93333333  0.86666667  0.16985794
   0.73333333  0.06666667  0.16985794
   0.93333333  0.06666667  0.60809141
   0.73333333  0.06666667  0.26837554
   0.93333333  0.26666667  0.16985794
   0.93333333  0.26666667  0.70660902
   0.93333333  0.86666667  0.26837554
   0.73333333  0.46666667  0.26837554
   0.73333333  0.46666667  0.16985794
   0.73333333  0.86666667  0.16985794
   0.73333333  0.86666667  0.70660902
   0.73333333  0.86666667  0.26837554
   0.93333333  0.46666667  0.16985794
   0.73333333  0.86666667  0.60809141
   0.73333333  0.66666667  0.60809141
   0.73333333  0.66666667  0.70660902
   0.93333333  0.46666667  0.70660902
   0.73333333  0.66666667  0.16985794
   0.93333333  0.46666667  0.60809141
   0.73333333  0.66666667  0.26837554
   0.93333333  0.26666667  0.60809141
   0.93333333  0.26666667  0.26837554
   0.73333333  0.46666667  0.60809141
   0.73333333  0.46666667  0.70660902
   0.93333333  0.66666667  0.26837554
   0.93333333  0.06666667  0.26837554
   0.93333333  0.66666667  0.16985794
   0.53333333  0.86666667  0.60809141
   0.53333333  0.06666667  0.70660902
   0.53333333  0.86666667  0.16985794
   0.33333333  0.26666667  0.16985794
   0.33333333  0.26666667  0.26837554
   0.33333333  0.06666667  0.60809141
   0.33333333  0.06666667  0.70660902
   0.33333333  0.06666667  0.16985794
   0.33333333  0.06666667  0.26837554
   0.13333333  0.86666667  0.60809141
   0.13333333  0.86666667  0.70660902
   0.13333333  0.86666667  0.16985794
   0.13333333  0.86666667  0.26837554
   0.13333333  0.66666667  0.60809141
   0.13333333  0.66666667  0.70660902
   0.33333333  0.26666667  0.70660902
   0.13333333  0.66666667  0.16985794
   0.13333333  0.46666667  0.60809141
   0.13333333  0.46666667  0.70660902
   0.13333333  0.46666667  0.16985794
   0.13333333  0.46666667  0.26837554
   0.13333333  0.26666667  0.60809141
   0.13333333  0.26666667  0.70660902
   0.13333333  0.26666667  0.16985794
   0.13333333  0.26666667  0.26837554
   0.13333333  0.06666667  0.60809141
   0.13333333  0.06666667  0.70660902
   0.13333333  0.06666667  0.16985794
   0.13333333  0.06666667  0.26837554
   0.13333333  0.66666667  0.26837554
   0.33333333  0.26666667  0.60809141
   0.33333333  0.46666667  0.26837554
   0.33333333  0.46666667  0.16985794
   0.53333333  0.86666667  0.26837554
   0.53333333  0.66666667  0.60809141
   0.53333333  0.66666667  0.70660902
   0.53333333  0.66666667  0.16985794
   0.53333333  0.66666667  0.26837554
   0.53333333  0.46666667  0.60809141
   0.53333333  0.46666667  0.70660902
   0.53333333  0.46666667  0.16985794
   0.53333333  0.46666667  0.26837554
   0.53333333  0.26666667  0.60809141
   0.53333333  0.26666667  0.70660902
   0.53333333  0.26666667  0.16985794
   0.53333333  0.26666667  0.26837554
   0.53333333  0.06666667  0.60809141
   0.93333333  0.86666667  0.70660902
   0.53333333  0.06666667  0.16985794
   0.53333333  0.06666667  0.26837554
   0.33333333  0.86666667  0.60809141
   0.33333333  0.86666667  0.70660902
   0.33333333  0.86666667  0.16985794
   0.33333333  0.86666667  0.26837554
   0.33333333  0.66666667  0.60809141
   0.33333333  0.66666667  0.70660902
   0.33333333  0.66666667  0.16985794
   0.33333333  0.66666667  0.26837554
   0.33333333  0.46666667  0.60809141
   0.33333333  0.46666667  0.70660902
   0.53333333  0.86666667  0.70660902
   0.93333333  0.86666667  0.60809141
 
 position of ions in cartesian coordinates  (Angst):
   4.40171707  4.74114136 12.33977232
   5.26445598  4.37400657 13.40940125
   4.48008796  6.15454906 12.15991350
   5.40953960  6.67667682 13.12918759
   5.89436411  5.56112958 13.90850815
   2.44078354  4.92249620 15.50801271
   3.22553808  7.09195195 15.80250709
   3.39912734  5.72886032 16.22848797
   2.17424920  7.12519965 14.84019525
   1.69175769  5.79914281 14.65235646
   3.81558496  5.81145236 14.17558286
   6.62221954  5.60824136 14.71493704
   4.09809500  5.37732239 16.98333284
   2.28986933  3.85086726 15.61491127
   3.80742473  7.94677369 16.13863139
   1.84736258  8.00444260 14.28821280
   5.38668770  3.37048641 13.81064396
   3.74399016  4.06572956 11.79643274
   3.92545419  6.73301316 11.42454208
   5.72083028  7.71396698 13.22597349
   0.91395082  5.50093677 13.95224694
   4.77000000  8.26188235 21.28500000
  -3.18000000 11.01584314  7.09500000
  -1.59000000  8.26188235 21.28500000
   3.18000000 11.01584314  7.09500000
  -1.59000000  8.26188235  7.09500000
   3.18000000 11.01584314 21.28500000
   0.00000000  5.50792157  7.09500000
  12.72000000  0.00000000  7.09500000
   1.59000000  2.75396078 21.28500000
  12.72000000  0.00000000 21.28500000
   1.59000000  2.75396078  7.09500000
  -3.18000000 11.01584314 21.28500000
   0.00000000  5.50792157 21.28500000
   4.77000000  8.26188235  7.09500000
   1.59000000  8.26188235  7.09500000
   6.36000000  0.00000000 21.28500000
   6.36000000  5.50792157 21.28500000
   4.77000000  2.75396078  7.09500000
   6.36000000  5.50792157  7.09500000
   4.77000000  2.75396078 21.28500000
   3.18000000  5.50792157  7.09500000
   7.95000000  2.75396078 21.28500000
   3.18000000  5.50792157 21.28500000
   7.95000000  2.75396078  7.09500000
  -0.00000000 11.01584314 21.28500000
   1.59000000  8.26188235 21.28500000
   9.54000000  0.00000000 21.28500000
  -0.00000000 11.01584314  7.09500000
   9.54000000  0.00000000  7.09500000
   6.36000000  0.00000000  7.09500000
  11.13000000  2.75396078  7.09500000
   3.18000000  0.00000000 21.28500000
   3.18000000  0.00000000  7.09500000
   0.00000000  0.00000000  7.09500000
   6.36000000 11.01584314 21.28500000
   0.00000000  0.00000000 21.28500000
   6.36000000 11.01584314  7.09500000
  -1.59000000  2.75396078  7.09500000
  -1.59000000  2.75396078 21.28500000
   7.95000000  8.26188235 21.28500000
  -3.18000000  5.50792157  7.09500000
  -3.18000000  5.50792157 21.28500000
  -4.77000000  8.26188235  7.09500000
   9.54000000  5.50792157 21.28500000
  -4.77000000  8.26188235 21.28500000
   7.95000000  8.26188235  7.09500000
   9.54000000  5.50792157  7.09500000
  -6.36000000 11.01584314 21.28500000
  -6.36000000 11.01584314  7.09500000
  11.13000000  2.75396078 21.28500000
  14.31000000  0.91798693  5.50000000
   9.54000000  3.67194771 19.69000000
   9.54000000  3.67194771 22.88000000
   9.54000000  9.17986928 22.88000000
   9.54000000  9.17986928 19.69000000
   9.54000000  3.67194771  5.50000000
   9.54000000  3.67194771  8.69000000
  11.13000000  6.42590850  8.69000000
  11.13000000  0.91798693 19.69000000
  11.13000000  0.91798693 22.88000000
  14.31000000  0.91798693 22.88000000
   7.95000000 11.93383006  5.50000000
  11.13000000  0.91798693  5.50000000
  14.31000000  0.91798693 19.69000000
  11.13000000  0.91798693  8.69000000
  12.72000000  3.67194771  5.50000000
  12.72000000  3.67194771 22.88000000
   7.95000000 11.93383006  8.69000000
   7.95000000  6.42590850  8.69000000
   7.95000000  6.42590850  5.50000000
   4.77000000 11.93383006  5.50000000
   4.77000000 11.93383006 22.88000000
   4.77000000 11.93383006  8.69000000
  11.13000000  6.42590850  5.50000000
   4.77000000 11.93383006 19.69000000
   6.36000000  9.17986928 19.69000000
   6.36000000  9.17986928 22.88000000
  11.13000000  6.42590850 22.88000000
   6.36000000  9.17986928  5.50000000
  11.13000000  6.42590850 19.69000000
   6.36000000  9.17986928  8.69000000
  12.72000000  3.67194771 19.69000000
  12.72000000  3.67194771  8.69000000
   7.95000000  6.42590850 19.69000000
   7.95000000  6.42590850 22.88000000
   9.54000000  9.17986928  8.69000000
  14.31000000  0.91798693  8.69000000
   9.54000000  9.17986928  5.50000000
   1.59000000 11.93383006 19.69000000
   7.95000000  0.91798693 22.88000000
   1.59000000 11.93383006  5.50000000
   3.18000000  3.67194771  5.50000000
   3.18000000  3.67194771  8.69000000
   4.77000000  0.91798693 19.69000000
   4.77000000  0.91798693 22.88000000
   4.77000000  0.91798693  5.50000000
   4.77000000  0.91798693  8.69000000
  -4.77000000 11.93383006 19.69000000
  -4.77000000 11.93383006 22.88000000
  -4.77000000 11.93383006  5.50000000
  -4.77000000 11.93383006  8.69000000
  -3.18000000  9.17986928 19.69000000
  -3.18000000  9.17986928 22.88000000
   3.18000000  3.67194771 22.88000000
  -3.18000000  9.17986928  5.50000000
  -1.59000000  6.42590850 19.69000000
  -1.59000000  6.42590850 22.88000000
  -1.59000000  6.42590850  5.50000000
  -1.59000000  6.42590850  8.69000000
  -0.00000000  3.67194771 19.69000000
  -0.00000000  3.67194771 22.88000000
  -0.00000000  3.67194771  5.50000000
  -0.00000000  3.67194771  8.69000000
   1.59000000  0.91798693 19.69000000
   1.59000000  0.91798693 22.88000000
   1.59000000  0.91798693  5.50000000
   1.59000000  0.91798693  8.69000000
  -3.18000000  9.17986928  8.69000000
   3.18000000  3.67194771 19.69000000
   1.59000000  6.42590850  8.69000000
   1.59000000  6.42590850  5.50000000
   1.59000000 11.93383006  8.69000000
   3.18000000  9.17986928 19.69000000
   3.18000000  9.17986928 22.88000000
   3.18000000  9.17986928  5.50000000
   3.18000000  9.17986928  8.69000000
   4.77000000  6.42590850 19.69000000
   4.77000000  6.42590850 22.88000000
   4.77000000  6.42590850  5.50000000
   4.77000000  6.42590850  8.69000000
   6.36000000  3.67194771 19.69000000
   6.36000000  3.67194771 22.88000000
   6.36000000  3.67194771  5.50000000
   6.36000000  3.67194771  8.69000000
   7.95000000  0.91798693 19.69000000
   7.95000000 11.93383006 22.88000000
   7.95000000  0.91798693  5.50000000
   7.95000000  0.91798693  8.69000000
  -1.59000000 11.93383006 19.69000000
  -1.59000000 11.93383006 22.88000000
  -1.59000000 11.93383006  5.50000000
  -1.59000000 11.93383006  8.69000000
   0.00000000  9.17986928 19.69000000
   0.00000000  9.17986928 22.88000000
   0.00000000  9.17986928  5.50000000
   0.00000000  9.17986928  8.69000000
   1.59000000  6.42590850 19.69000000
   1.59000000  6.42590850 22.88000000
   1.59000000 11.93383006 22.88000000
   7.95000000 11.93383006 19.69000000
 


--------------------------------------------------------------------------------------------------------


 use parallel FFT for wavefunctions z direction half grid
 k-point  1 :   0.0000 0.0000 0.0000  plane waves:   64319

 maximum and minimum number of plane-waves per node :     32161    32158

 maximum number of plane-waves:     64319
 maximum index in each direction: 
   IXMAX=   25   IYMAX=   25   IZMAX=   52
   IXMIN=  -25   IYMIN=  -25   IZMIN=    0

 NGX is ok and might be reduce to 102
 NGY is ok and might be reduce to 102
 NGZ is ok and might be reduce to 210

 real space projection operators:
  total allocation   :      76632.08 KBytes
  max/ min on nodes  :      38327.99      38304.09


 parallel 3D FFT for wavefunctions:
    minimum data exchange during FFTs selected (reduces bandwidth)
 parallel 3D FFT for charge:
    minimum data exchange during FFTs selected (reduces bandwidth)


 total amount of memory used by VASP on root node   275417. kBytes
========================================================================

   base      :      30000. kBytes
   nonlr-proj:      47097. kBytes
   fftplans  :      54670. kBytes
   grid      :     117915. kBytes
   one-center:        668. kBytes
   wavefun   :      25067. kBytes
 
     INWAV:  cpu time    0.0001: real time    0.0005
 Broyden mixing: mesh for mixing (old mesh)
   NGX = 51   NGY = 51   NGZ =105
  (NGX  =216   NGY  =216   NGZ  =432)
  gives a total of 273105 points

 initial charge density was supplied:
 charge density of overlapping atoms calculated
 number of electron     956.0000000 magnetization 
 keeping initial charge density in first step


--------------------------------------------------------------------------------------------------------


 Maximum index for non-local projection operator         3254
 Maximum index for augmentation-charges         1032 (set IRDMAX)


--------------------------------------------------------------------------------------------------------


 First call to EWALD:  gamma=   0.092
 Maximum number of real-space cells 4x 4x 2
 Maximum number of reciprocal cells 2x 2x 4

 FEWALD executed in parallel
    FEWALD:  cpu time    0.0116: real time    0.0123


----------------------------------------- Iteration    1(   1)  ---------------------------------------


    POTLOK:  cpu time    0.9127: real time    0.9201
    SETDIJ:  cpu time    0.0279: real time    0.0279
     EDDAV:  cpu time   25.1129: real time   25.6063
       DOS:  cpu time    0.0017: real time    0.0017
    --------------------------------------------
      LOOP:  cpu time   26.0639: real time   26.5939

 eigenvalue-minimisations  :  1200
 total energy-change (2. order) : 0.7646604E+04  (-0.3649064E+05)
 number of electron     956.0000000 magnetization 
 augmentation part      956.0000000 magnetization 

 Free energy of the ion-electron system (eV)
  ---------------------------------------------------
  alpha Z        PSCENC =      1150.89500911
  Ewald energy   TEWEN  =     87387.30982081
  -Hartree energ DENC   =   -125360.69053065
  -exchange      EXHF   =         0.00000000
  -V(xc)+E(xc)   XCENC  =     -1684.41629088
  PAW double counting   =     36411.78182824   -32520.45026120
  entropy T*S    EENTRO =        -0.30569230
  eigenvalues    EBANDS =      1831.94031825
  atomic energy  EATOM  =     40430.53995508
  Solvation  Ediel_sol  =         0.00000000
  ---------------------------------------------------
  free energy    TOTEN  =      7646.60415645 eV

  energy without entropy =     7646.90984875  energy(sigma->0) =     7646.75700260


--------------------------------------------------------------------------------------------------------




----------------------------------------- Iteration    1(   2)  ---------------------------------------


     EDDAV:  cpu time   31.4884: real time   31.5405
       DOS:  cpu time    0.0022: real time    0.0022
    --------------------------------------------
      LOOP:  cpu time   31.4932: real time   31.6449

 eigenvalue-minimisations  :  1584
 total energy-change (2. order) :-0.7906798E+04  (-0.7669020E+04)
 number of electron     956.0000000 magnetization 
 augmentation part      956.0000000 magnetization 

 Free energy of the ion-electron system (eV)
  ---------------------------------------------------
  alpha Z        PSCENC =      1150.89500911
  Ewald energy   TEWEN  =     87387.30982081
  -Hartree energ DENC   =   -125360.69053065
  -exchange      EXHF   =         0.00000000
  -V(xc)+E(xc)   XCENC  =     -1684.41629088
  PAW double counting   =     36411.78182824   -32520.45026120
  entropy T*S    EENTRO =        -0.13485385
  eigenvalues    EBANDS =     -6075.02835841
  atomic energy  EATOM  =     40430.53995508
  Solvation  Ediel_sol  =         0.00000000
  ---------------------------------------------------
  free energy    TOTEN  =      -260.19368176 eV

  energy without entropy =     -260.05882791  energy(sigma->0) =     -260.12625483


--------------------------------------------------------------------------------------------------------




----------------------------------------- Iteration    1(   3)  ---------------------------------------


     EDDAV:  cpu time   27.6132: real time   28.1625
       DOS:  cpu time    0.0019: real time    0.0019
    --------------------------------------------
      LOOP:  cpu time   27.6167: real time   28.2028

 eigenvalue-minimisations  :  1356
 total energy-change (2. order) :-0.1001893E+04  (-0.9886003E+03)
 number of electron     956.0000000 magnetization 
 augmentation part      956.0000000 magnetization 

 Free energy of the ion-electron system (eV)
  ---------------------------------------------------
  alpha Z        PSCENC =      1150.89500911
  Ewald energy   TEWEN  =     87387.30982081
  -Hartree energ DENC   =   -125360.69053065
  -exchange      EXHF   =         0.00000000
  -V(xc)+E(xc)   XCENC  =     -1684.41629088
  PAW double counting   =     36411.78182824   -32520.45026120
  entropy T*S    EENTRO =        -0.00000090
  eigenvalues    EBANDS =     -7077.05651781
  atomic energy  EATOM  =     40430.53995508
  Solvation  Ediel_sol  =         0.00000000
  ---------------------------------------------------
  free energy    TOTEN  =     -1262.08698821 eV

  energy without entropy =    -1262.08698731  energy(sigma->0) =    -1262.08698776


--------------------------------------------------------------------------------------------------------




----------------------------------------- Iteration    1(   4)  ---------------------------------------


     EDDAV:  cpu time   34.2549: real time   34.3757
       DOS:  cpu time    0.0011: real time    0.0011
    --------------------------------------------
      LOOP:  cpu time   34.2569: real time   34.3893

 eigenvalue-minimisations  :  1764
 total energy-change (2. order) :-0.5901635E+02  (-0.5871936E+02)
 number of electron     956.0000000 magnetization 
 augmentation part      956.0000000 magnetization 

 Free energy of the ion-electron system (eV)
  ---------------------------------------------------
  alpha Z        PSCENC =      1150.89500911
  Ewald energy   TEWEN  =     87387.30982081
  -Hartree energ DENC   =   -125360.69053065
  -exchange      EXHF   =         0.00000000
  -V(xc)+E(xc)   XCENC  =     -1684.41629088
  PAW double counting   =     36411.78182824   -32520.45026120
  entropy T*S    EENTRO =        -0.00000000
  eigenvalues    EBANDS =     -7136.07286518
  atomic energy  EATOM  =     40430.53995508
  Solvation  Ediel_sol  =         0.00000000
  ---------------------------------------------------
  free energy    TOTEN  =     -1321.10333468 eV

  energy without entropy =    -1321.10333468  energy(sigma->0) =    -1321.10333468


--------------------------------------------------------------------------------------------------------




----------------------------------------- Iteration    1(   5)  ---------------------------------------


     EDDAV:  cpu time   34.2208: real time   34.6173
       DOS:  cpu time    0.0018: real time    0.0018
    CHARGE:  cpu time    2.3661: real time    2.3688
    MIXING:  cpu time    0.0267: real time    0.0267
    --------------------------------------------
      LOOP:  cpu time   36.6167: real time   37.0650

 eigenvalue-minimisations  :  1764
 total energy-change (2. order) :-0.2001880E+01  (-0.1992035E+01)
 number of electron     955.9999996 magnetization 
 augmentation part      -44.8991972 magnetization 

 Broyden mixing:
  rms(total) = 0.16952E+02    rms(broyden)= 0.16952E+02
  rms(prec ) = 0.17055E+02
  weight for this iteration     100.00

 Free energy of the ion-electron system (eV)
  ---------------------------------------------------
  alpha Z        PSCENC =      1150.89500911
  Ewald energy   TEWEN  =     87387.30982081
  -Hartree energ DENC   =   -125360.69053065
  -exchange      EXHF   =         0.00000000
  -V(xc)+E(xc)   XCENC  =     -1684.41629088
  PAW double counting   =     36411.78182824   -32520.45026120
  entropy T*S    EENTRO =        -0.00000000
  eigenvalues    EBANDS =     -7138.07474562
  atomic energy  EATOM  =     40430.53995508
  Solvation  Ediel_sol  =         0.00000000
  ---------------------------------------------------
  free energy    TOTEN  =     -1323.10521512 eV

  energy without entropy =    -1323.10521512  energy(sigma->0) =    -1323.10521512


--------------------------------------------------------------------------------------------------------




----------------------------------------- Iteration    1(   6)  ---------------------------------------


    POTLOK:  cpu time    0.8995: real time    0.8999
    SETDIJ:  cpu time    0.0270: real time    0.0270
     EDDAV:  cpu time   31.5666: real time   31.6677
       DOS:  cpu time    0.0020: real time    0.0020
    CHARGE:  cpu time    2.4211: real time    2.4356
    MIXING:  cpu time    0.0255: real time    0.0326
    --------------------------------------------
      LOOP:  cpu time   34.9438: real time   35.0878

 eigenvalue-minimisations  :  1596
 total energy-change (2. order) : 0.4729427E+02  (-0.9737595E+02)
 number of electron     956.0000001 magnetization 
 augmentation part      -10.4450366 magnetization 

 Broyden mixing:
  rms(total) = 0.92932E+01    rms(broyden)= 0.92930E+01
  rms(prec ) = 0.94692E+01
  weight for this iteration     100.00

 eigenvalues of (default mixing * dielectric matrix)
  average eigenvalue GAMMA=   0.9525
  0.9525

 Free energy of the ion-electron system (eV)
  ---------------------------------------------------
  alpha Z        PSCENC =      1150.89500911
  Ewald energy   TEWEN  =     87387.30982081
  -Hartree energ DENC   =   -125373.57431743
  -exchange      EXHF   =         0.00000000
  -V(xc)+E(xc)   XCENC  =     -1634.98511665
  PAW double counting   =     51815.28493038   -47963.77698348
  entropy T*S    EENTRO =        -0.14651025
  eigenvalues    EBANDS =     -7087.35773713
  atomic energy  EATOM  =     40430.53995508
  Solvation  Ediel_sol  =         0.00000000
  ---------------------------------------------------
  free energy    TOTEN  =     -1275.81094956 eV

  energy without entropy =    -1275.66443931  energy(sigma->0) =    -1275.73769444


--------------------------------------------------------------------------------------------------------




----------------------------------------- Iteration    1(   7)  ---------------------------------------


    POTLOK:  cpu time    0.8898: real time    0.9193
    SETDIJ:  cpu time    0.0266: real time    0.0266
     EDDAV:  cpu time   34.4320: real time   34.7387
       DOS:  cpu time    0.0020: real time    0.0020
    CHARGE:  cpu time    2.5912: real time    2.5981
    MIXING:  cpu time    0.0269: real time    0.0269
    --------------------------------------------
      LOOP:  cpu time   37.9701: real time   38.3482

 eigenvalue-minimisations  :  1776
 total energy-change (2. order) :-0.1520179E+02  (-0.1146024E+03)
 number of electron     955.9999997 magnetization 
 augmentation part      -29.8234555 magnetization 

 Broyden mixing:
  rms(total) = 0.54338E+01    rms(broyden)= 0.54337E+01
  rms(prec ) = 0.56142E+01
  weight for this iteration     100.00

 eigenvalues of (default mixing * dielectric matrix)
  average eigenvalue GAMMA=   1.1180
  1.6969  0.5390

 Free energy of the ion-electron system (eV)
  ---------------------------------------------------
  alpha Z        PSCENC =      1150.89500911
  Ewald energy   TEWEN  =     87387.30982081
  -Hartree energ DENC   =   -125765.47678783
  -exchange      EXHF   =         0.00000000
  -V(xc)+E(xc)   XCENC  =     -1644.48717538
  PAW double counting   =     64583.06016689   -60763.80218491
  entropy T*S    EENTRO =        -0.37461794
  eigenvalues    EBANDS =     -6668.67692376
  atomic energy  EATOM  =     40430.53995508
  Solvation  Ediel_sol  =         0.00000000
  ---------------------------------------------------
  free energy    TOTEN  =     -1291.01273791 eV

  energy without entropy =    -1290.63811998  energy(sigma->0) =    -1290.82542895


--------------------------------------------------------------------------------------------------------




----------------------------------------- Iteration    1(   8)  ---------------------------------------


    POTLOK:  cpu time    0.8826: real time    0.8871
    SETDIJ:  cpu time    0.0264: real time    0.0264
     EDDAV:  cpu time   28.7712: real time   29.2565
       DOS:  cpu time    0.0020: real time    0.0020
    CHARGE:  cpu time    2.5022: real time    2.5098
    MIXING:  cpu time    0.0272: real time    0.0282
    --------------------------------------------
      LOOP:  cpu time   32.2134: real time   32.7467

 eigenvalue-minimisations  :  1428
 total energy-change (2. order) : 0.5611602E+02  (-0.9830096E+01)
 number of electron     955.9999996 magnetization 
 augmentation part      -30.0787204 magnetization 

 Broyden mixing:
  rms(total) = 0.33781E+01    rms(broyden)= 0.33781E+01
  rms(prec ) = 0.35716E+01
  weight for this iteration     100.00

 eigenvalues of (default mixing * dielectric matrix)
  average eigenvalue GAMMA=   1.1290
  2.0396  0.6736  0.6736

 Free energy of the ion-electron system (eV)
  ---------------------------------------------------
  alpha Z        PSCENC =      1150.89500911
  Ewald energy   TEWEN  =     87387.30982081
  -Hartree energ DENC   =   -125806.03964496
  -exchange      EXHF   =         0.00000000
  -V(xc)+E(xc)   XCENC  =     -1634.08810227
  PAW double counting   =     76839.26284116   -73029.30885000
  entropy T*S    EENTRO =        -0.31968512
  eigenvalues    EBANDS =     -6573.14806066
  atomic energy  EATOM  =     40430.53995508
  Solvation  Ediel_sol  =         0.00000000
  ---------------------------------------------------
  free energy    TOTEN  =     -1234.89671685 eV

  energy without entropy =    -1234.57703173  energy(sigma->0) =    -1234.73687429


[...]
   0.405E+01 -.148E+02 -.284E+03   -.405E+01 0.148E+02 0.289E+03   -.234E-02 0.524E-03 -.507E+01   0.476E-03 -.215E-02 0.149E-01
   0.299E+01 -.475E+02 0.236E+03   -.299E+01 0.475E+02 -.241E+03   0.262E-02 -.321E-02 0.467E+01   0.137E-04 -.535E-02 -.196E-01
   0.764E+00 -.101E+02 -.708E+03   -.765E+00 0.101E+02 0.713E+03   0.876E-03 -.206E-02 -.470E+01   -.245E-03 -.143E-02 -.392E-02
   0.272E+01 -.966E+01 0.704E+03   -.272E+01 0.966E+01 -.708E+03   -.110E-02 -.445E-02 0.510E+01   0.291E-03 -.163E-02 0.393E-02
   0.127E+02 -.444E+02 -.243E+03   -.127E+02 0.444E+02 0.247E+03   0.690E-02 -.865E-02 -.502E+01   0.875E-03 -.598E-02 0.201E-01
   -.325E+02 -.127E+02 0.192E+03   0.326E+02 0.127E+02 -.197E+03   -.212E-01 -.971E-02 0.466E+01   -.288E-02 -.919E-03 -.234E-01
   -.538E+01 -.214E+01 -.716E+03   0.538E+01 0.214E+01 0.721E+03   -.879E-02 -.118E-02 -.471E+01   -.852E-03 -.416E-03 -.488E-02
   -.226E+01 -.319E+01 0.714E+03   0.226E+01 0.319E+01 -.719E+03   -.535E-02 -.939E-03 0.509E+01   -.420E-03 -.514E-03 0.538E-02
   -.133E+02 -.196E+02 -.174E+03   0.133E+02 0.196E+02 0.178E+03   0.504E-02 -.103E-01 -.527E+01   -.261E-02 -.297E-02 0.264E-01
   -.339E+02 0.275E+02 0.246E+03   0.339E+02 -.275E+02 -.250E+03   -.124E-02 0.446E-02 0.464E+01   -.395E-02 0.306E-02 -.189E-01
   -.780E+01 0.626E+01 -.707E+03   0.780E+01 -.626E+01 0.711E+03   -.278E-02 0.532E-03 -.470E+01   -.123E-02 0.853E-03 -.364E-02
   -.690E+01 0.666E+01 0.707E+03   0.690E+01 -.666E+01 -.712E+03   -.460E-02 0.806E-03 0.509E+01   -.106E-02 0.854E-03 0.450E-02
   -.356E+02 0.337E+02 -.224E+03   0.356E+02 -.337E+02 0.228E+03   -.121E-01 0.486E-02 -.513E+01   -.503E-02 0.385E-02 0.213E-01
   -.118E+02 0.119E+02 0.286E+03   0.118E+02 -.119E+02 -.291E+03   0.670E-03 -.262E-02 0.468E+01   -.164E-02 0.122E-02 -.147E-01
   -.159E+01 -.115E+01 -.694E+03   0.159E+01 0.115E+01 0.699E+03   0.190E-03 0.365E-03 -.470E+01   -.202E-03 -.162E-03 -.179E-02
   -.410E+01 0.484E+01 0.694E+03   0.410E+01 -.484E+01 -.699E+03   -.776E-03 -.140E-02 0.510E+01   -.673E-03 0.836E-03 0.271E-02
   -.151E+02 0.181E+02 -.280E+03   0.151E+02 -.181E+02 0.285E+03   -.880E-03 -.184E-02 -.508E+01   -.211E-02 0.232E-02 0.149E-01
   0.480E+01 -.717E-01 0.291E+03   -.480E+01 0.707E-01 -.296E+03   -.156E-02 0.605E-04 0.468E+01   0.663E-03 0.204E-04 -.141E-01
   0.150E+01 -.142E-01 -.694E+03   -.150E+01 0.137E-01 0.699E+03   -.972E-03 0.209E-03 -.470E+01   0.258E-03 0.187E-04 -.187E-02
   0.883E+00 0.158E+01 0.691E+03   -.884E+00 -.158E+01 -.696E+03   0.110E-02 0.543E-04 0.510E+01   0.146E-03 0.345E-03 0.205E-02
   0.283E+01 0.482E+01 -.289E+03   -.284E+01 -.482E+01 0.293E+03   0.141E-02 -.813E-03 -.508E+01   0.482E-03 0.670E-03 0.143E-01
   0.277E+02 -.261E+02 0.266E+03   -.277E+02 0.261E+02 -.271E+03   -.323E-03 -.228E-03 0.470E+01   0.335E-02 -.322E-02 -.167E-01
   0.685E+01 -.643E+01 -.702E+03   -.685E+01 0.643E+01 0.706E+03   0.237E-02 -.357E-02 -.470E+01   0.105E-02 -.108E-02 -.318E-02
   0.621E+01 -.505E+01 0.696E+03   -.621E+01 0.505E+01 -.701E+03   0.235E-03 0.262E-05 0.510E+01   0.941E-03 -.963E-03 0.300E-02
   0.233E+02 -.196E+02 -.272E+03   -.233E+02 0.196E+02 0.276E+03   -.228E-02 0.132E-02 -.506E+01   0.339E-02 -.313E-02 0.167E-01
   0.399E+02 -.107E+02 0.202E+03   -.399E+02 0.107E+02 -.206E+03   0.188E-01 -.869E-02 0.481E+01   0.372E-02 -.592E-03 -.225E-01
   0.720E+01 -.196E+01 -.715E+03   -.720E+01 0.196E+01 0.719E+03   0.628E-02 -.255E-02 -.470E+01   0.849E-03 -.166E-03 -.498E-02
   0.126E+01 -.571E+01 -.696E+03   -.126E+01 0.571E+01 0.701E+03   0.551E-03 0.440E-03 -.470E+01   0.995E-04 -.880E-03 -.216E-02
   -.507E+01 -.417E+01 0.291E+03   0.507E+01 0.417E+01 -.296E+03   0.133E-02 -.218E-02 0.467E+01   -.616E-03 -.570E-03 -.141E-01
 -----------------------------------------------------------------------------------------------
   0.214E+01 0.379E+00 0.185E+01   -.233E-12 -.463E-12 -.171E-11   -.208E+01 -.373E+00 -.185E+01   -.525E-01 -.626E-02 -.555E-02
 
 
 POSITION                                       TOTAL-FORCE (eV/Angst)
 -----------------------------------------------------------------------------------
      4.40445      4.74121     12.33825        -0.059481     -0.050808     -0.074888
      5.26496      4.37492     13.40691         0.052150     -0.117779      0.046194
      4.47992      6.15376     12.16176        -0.041827      0.045999     -0.045389
      5.40953      6.67562     13.12814         0.046129      0.036652      0.043931
      5.89486      5.55996     13.90765         0.023858      0.030204     -0.001236
      2.43992      4.92366     15.50814        -0.013580     -0.051715      0.014886
      3.22298      7.09186     15.80295         0.059694      0.067388      0.064563
      3.39791      5.72914     16.22787         0.059299     -0.022256      0.084834
      2.17248      7.12424     14.84227        -0.039048      0.104299     -0.022941
      1.69077      5.80106     14.65463        -0.069982     -0.069694     -0.020699
      3.81726      5.81125     14.17745        -0.003316      0.000261      0.007757
      6.62179      5.60792     14.71521        -0.007556     -0.012825     -0.004720
      4.09888      5.37739     16.98408        -0.037187      0.024848     -0.033311
      2.29042      3.85098     15.61537         0.005021      0.030619      0.001204
      3.80780      7.94732     16.13933        -0.038887     -0.039877     -0.010603
      1.84719      8.00383     14.28839        -0.002096     -0.030617      0.019185
      5.38648      3.37026     13.81063        -0.009083      0.046489     -0.031391
      3.74357      4.06606     11.79499         0.032227      0.035833     -0.000363
      3.92497      6.73290     11.42615         0.001774     -0.014728      0.041394
      5.72069      7.71382     13.22618        -0.010904     -0.029786     -0.004057
      0.91449      5.50092     13.95250         0.021120      0.013783      0.020848
      4.77006      8.26215     21.28502        -0.002285     -0.000205     -0.005461
     -3.18000     11.01584      7.09500        -0.000352      0.000251      0.002943
     -1.58991      8.26195     21.28483         0.001039     -0.002188     -0.000563
      3.18000     11.01584      7.09500         0.001792      0.006604      0.002339
     -1.59000      8.26188      7.09500         0.001849      0.000891      0.003681
      3.18013     11.01601     21.28501        -0.001741     -0.007279     -0.005704
      0.00000      5.50792      7.09500        -0.003468     -0.006692      0.003342
     12.72000      0.00000      7.09500        -0.001806     -0.000015      0.003077
      1.58990      2.75414     21.28503         0.004514      0.003103     -0.009928
     12.72002      0.00004     21.28494         0.000101     -0.000029      0.000022
      1.59000      2.75396      7.09500        -0.005706      0.001430     -0.002668
     -3.18010     11.01584     21.28492         0.001321      0.000107      0.000918
      0.00038      5.50788     21.28499         0.004722      0.003084     -0.008048
      4.77000      8.26188      7.09500        -0.001119     -0.017792     -0.008423
      1.59000      8.26188      7.09500        -0.000545      0.002197      0.003994
      6.35972      0.00001     21.28490         0.002068      0.000895     -0.000716
      6.36001      5.50812     21.28520        -0.000266     -0.002755     -0.004253
      4.77000      2.75396      7.09500         0.005319      0.004907      0.010634
      6.36000      5.50792      7.09500        -0.010296      0.003578      0.005778
      4.76969      2.75392     21.28506        -0.002009      0.004615     -0.009078
      3.18000      5.50792      7.09500         0.018197      0.010525      0.005761
      7.95028      2.75392     21.28494        -0.005784      0.002192     -0.004695
      3.17955      5.50791     21.28370        -0.000102      0.000711     -0.000250
      7.95000      2.75396      7.09500        -0.001430     -0.001919     -0.001646
     -0.00000     11.01564     21.28495         0.001765     -0.000447     -0.001377
      1.59005      8.26151     21.28472         0.002256     -0.004830     -0.007611
      9.54038      0.00001     21.28490        -0.003087     -0.000828      0.000198
     -0.00000     11.01584      7.09500         0.000450     -0.001489      0.003414
      9.54000      0.00000      7.09500        -0.001561     -0.000824      0.000056
      6.36000      0.00000      7.09500         0.004012     -0.000293      0.001165
     11.13000      2.75396      7.09500         0.002076     -0.001139      0.002869
      3.18001      0.00003     21.28492        -0.001224      0.000986     -0.000807
      3.18000      0.00000      7.09500         0.000991     -0.000066      0.002323
      0.00000      0.00000      7.09500        -0.001032     -0.001032     -0.005931
      6.36005     11.01603     21.28492        -0.000931     -0.002879     -0.001291
     -0.00013     -0.00014     21.28462         0.001671      0.002492      0.001762
      6.36000     11.01584      7.09500        -0.003454      0.003249      0.000240
     -1.59000      2.75396      7.09500        -0.002067      0.000825      0.003358
     -1.59010      2.75388     21.28505         0.004293      0.003108     -0.003325
      7.94999      8.26199     21.28476        -0.001061     -0.000172     -0.001127
     -3.18000      5.50792      7.09500         0.000030      0.001321      0.000046
     -3.17983      5.50766     21.28496         0.001469      0.002241     -0.001391
     -4.77000      8.26188      7.09500         0.002003     -0.000747      0.000083
      9.53998      5.50779     21.28488        -0.000982      0.001325     -0.001203
     -4.77020      8.26223     21.28490         0.001934     -0.003742      0.001096
      7.95000      8.26188      7.09500        -0.002335     -0.003685      0.005029
      9.54000      5.50792      7.09500         0.000586     -0.000803      0.000885
     -6.36006     11.01579     21.28494        -0.000548      0.001090      0.001264
     -6.36000     11.01584      7.09500         0.001829     -0.000403      0.002201
     11.13018      2.75388     21.28487        -0.000243      0.000602      0.000631
     14.31000      0.91799      5.50000         0.000277      0.000058      0.586357
      9.54005      3.67192     19.72239         0.001461     -0.000761      0.001087
      9.53998      3.67194     22.84757         0.001575     -0.000747     -0.003272
      9.53999      9.17987     22.84762        -0.002391      0.000582     -0.002595
      9.54003      9.17988     19.72240        -0.001033      0.001425     -0.000356
      9.54000      3.67195      5.50000        -0.000613      0.000268      0.586961
      9.54000      3.67195      8.69000        -0.002523      0.001187     -0.583942
     11.13000      6.42591      8.69000        -0.003216     -0.000605     -0.584976
     11.13003      0.91799     19.72239         0.002328      0.000295     -0.000043
     11.13002      0.91797     22.84763         0.002029      0.000757     -0.002117
     14.31000      0.91800     22.84760         0.000816     -0.001325     -0.003574
      7.95000     11.93383      5.50000        -0.000123      0.000236      0.585980
     11.13000      0.91799      5.50000        -0.000055     -0.000603      0.585805
     14.31000      0.91809     19.72237        -0.000892      0.001042      0.000330
     11.13000      0.91799      8.69000        -0.000176      0.000738     -0.585522
     12.72000      3.67195      5.50000         0.000427      0.000125      0.585795
     12.72000      3.67194     22.84763         0.000009     -0.001555     -0.001574
      7.95000     11.93383      8.69000        -0.000247     -0.001642     -0.585237
      7.95000      6.42591      8.69000        -0.002141     -0.000473     -0.574187
      7.95000      6.42591      5.50000        -0.000968     -0.001448      0.585429
      4.77000     11.93383      5.50000        -0.000624      0.000128      0.587083
      4.76998     11.93381     22.84760         0.000685      0.001021     -0.002424
      4.77000     11.93383      8.69000         0.000925      0.000923     -0.586445
     11.13000      6.42591      5.50000        -0.000570     -0.000188      0.585782
      4.76994     11.93381     19.72236        -0.000306      0.000562      0.000994
      6.35996      9.17987     19.72208        -0.000222      0.002189      0.001356
      6.35990      9.17986     22.84763         0.001116      0.001655     -0.004287
     11.12999      6.42590     22.84763         0.000252      0.000491     -0.005710
      6.36000      9.17987      5.50000        -0.001099     -0.000507      0.585940
     11.13006      6.42590     19.72236         0.001699      0.000571      0.002993
      6.36000      9.17987      8.69000         0.002317     -0.003742     -0.574515
     12.72009      3.67198     19.72232         0.001685     -0.001041      0.000739
     12.72000      3.67195      8.69000        -0.001047     -0.000448     -0.585208
      7.94998      6.42595     19.72214        -0.000557     -0.000377      0.002064
      7.94998      6.42590     22.84758         0.001089      0.001436     -0.004028
      9.54000      9.17987      8.69000        -0.001111     -0.001624     -0.585412
     14.31000      0.91799      8.69000        -0.001191      0.000253     -0.586244
      9.54000      9.17987      5.50000         0.000246     -0.000013      0.586202
      1.59000     11.93378     19.72232         0.000736     -0.000827      0.001398
      7.95001      0.91802     22.84760         0.000865     -0.000816     -0.005095
      1.59000     11.93383      5.50000         0.000808      0.000167      0.585468
      3.18000      3.67195      5.50000         0.000683      0.001545      0.585273
      3.18000      3.67195      8.69000         0.002711     -0.001786     -0.572093
      4.76993      0.91799     19.72226        -0.002278      0.001237      0.002114
      4.76999      0.91799     22.84761        -0.001823      0.000722     -0.002626
      4.77000      0.91799      5.50000         0.000061      0.000031      0.585919
      4.77000      0.91799      8.69000         0.000906      0.001629     -0.582102
     -4.77000     11.93382     19.72241        -0.000249     -0.000136      0.000880
     -4.77000     11.93384     22.84761        -0.000522      0.000199     -0.003236
     -4.77000     11.93383      5.50000        -0.000014      0.000160      0.586006
     -4.77000     11.93383      8.69000        -0.000401     -0.000061     -0.586167
     -3.17996      9.17983     19.72239        -0.000239      0.000492     -0.000116
     -3.18001      9.17986     22.84762        -0.000351      0.000410     -0.003323
      3.18002      3.67200     22.84778        -0.001844      0.005108     -0.009849
     -3.18000      9.17987      5.50000        -0.000644     -0.000337      0.585896
     -1.58975      6.42587     19.72217         0.003189     -0.001487      0.001601
     -1.59000      6.42589     22.84762         0.002203     -0.000695     -0.004497
     -1.59000      6.42591      5.50000         0.000415     -0.000586      0.585699
     -1.59000      6.42591      8.69000        -0.001085     -0.000370     -0.585015
      0.00011      3.67216     19.72186        -0.000210      0.000936      0.001139
      0.00006      3.67191     22.84758         0.000305      0.000143     -0.003276
     -0.00000      3.67195      5.50000        -0.000089     -0.000009      0.587404
     -0.00000      3.67195      8.69000        -0.000955     -0.000683     -0.583802
      1.58999      0.91806     19.72223        -0.000180      0.001829      0.002275
      1.58997      0.91804     22.84761        -0.002094      0.000232     -0.005997
      1.59000      0.91799      5.50000        -0.000420      0.000398      0.586535
      1.59000      0.91799      8.69000         0.000813     -0.000197     -0.584258
     -3.18000      9.17987      8.69000        -0.001222     -0.000278     -0.586081
      3.18008      3.67230     19.72101        -0.000893     -0.002097     -0.005251
      1.59000      6.42591      8.69000         0.005084      0.003620     -0.567982
      1.59000      6.42591      5.50000         0.001951     -0.000871      0.585368
      1.59000     11.93383      8.69000        -0.000153      0.001657     -0.585081
      3.17988      9.17960     19.72146         0.000287     -0.000218     -0.000327
      3.18012      9.17982     22.84759        -0.000517     -0.000409     -0.005870
      3.18000      9.17987      5.50000         0.001394     -0.001087      0.586169
      3.18000      9.17987      8.69000         0.000377     -0.005801     -0.572224
      4.77023      6.42604     19.72246         0.003294      0.003065      0.000526
      4.76997      6.42589     22.84782        -0.006921     -0.000933     -0.009436
      4.77000      6.42591      5.50000        -0.001365     -0.000242      0.578545
      4.77000      6.42591      8.69000         0.021824      0.000094     -0.662751
      6.35973      3.67206     19.72178        -0.001651      0.001428      0.005563
      6.35995      3.67200     22.84757        -0.000247     -0.000516     -0.005967
      6.36000      3.67195      5.50000        -0.000038      0.001225      0.584314
      6.36000      3.67195      8.69000        -0.001918      0.003096     -0.565146
      7.95004      0.91797     19.72237         0.000934     -0.001410      0.002656
      7.94999     11.93382     22.84761         0.000013      0.000941     -0.003560
      7.95000      0.91799      5.50000        -0.000156      0.000572      0.585970
      7.95000      0.91799      8.69000        -0.000559      0.003421     -0.583700
     -1.58998     11.93378     19.72239        -0.000471     -0.001007      0.001132
     -1.59001     11.93384     22.84762        -0.000851     -0.000219     -0.003451
     -1.59000     11.93383      5.50000        -0.000114      0.000874      0.585967
     -1.59000     11.93383      8.69000        -0.000308      0.000734     -0.586541
      0.00013      9.17963     19.72208         0.001495     -0.002397      0.000771
      0.00000      9.17986     22.84767         0.001983     -0.002573     -0.006037
      0.00000      9.17987      5.50000         0.000380     -0.000319      0.587391
      0.00000      9.17987      8.69000        -0.000956      0.000334     -0.585964
      1.59011      6.42584     19.72072        -0.003069      0.000070     -0.011803
      1.59003      6.42589     22.84780         0.003949     -0.002272     -0.007777
      1.59003     11.93384     22.84761         0.000769      0.000078     -0.002973
      7.95003     11.93383     19.72239         0.000369     -0.001012     -0.000648
 -----------------------------------------------------------------------------------
    total drift:                                0.000784      0.000103     -0.005523


--------------------------------------------------------------------------------------------------------



  FREE ENERGIE OF THE ION-ELECTRON SYSTEM (eV)
  ---------------------------------------------------
  free  energy   TOTEN  =     -1253.71899737 eV

  energy  without entropy=    -1253.58986753  energy(sigma->0) =    -1253.65443245
 
 d Force =-0.6482753E-03[-0.121E-02,-0.849E-04]  d Energy =-0.6458513E-03-0.242E-05
 d Force = 0.1555399E+00[ 0.153E+00, 0.158E+00]  d Ewald  = 0.1555399E+00-0.359E-07


--------------------------------------------------------------------------------------------------------


    POTLOK:  cpu time    0.9360: real time    0.9397


--------------------------------------------------------------------------------------------------------


 stress matrix after NEB project (eV)
     -3.70389     -0.04574      0.10760
     -0.04574     -3.67850      0.09459
      0.10760      0.09459    -51.65075
  FORCES: max atom, RMS     0.136841    0.025742
  FORCE total and by dimension    0.336620    0.117779
  Stress total and by dimension   51.914306   51.650748
