<?xml version="1.0" encoding="ISO-8859-1"?>
<modeling>
 <generator>
  <i name="program" type="string">vasp </i>
  <i name="version" type="string">5.4.1  </i>
  <i name="subversion" type="string">05Feb16 (build Apr 21 2017 13:36:42) gamma-only                       parallel </i>
  <i name="platform" type="string">IFC91_ompi </i>
  <i name="date" type="string">2020 12 16 </i>
  <i name="time" type="string">13:11:33 </i>
 </generator>
 <incar>
  <i type="string" name="SYSTEM"> basalPlane</i>
  <i type="int" name="ISTART">     0</i>
  <i type="string" name="PREC">accurate  !=accurate, max(enmax) no wra</i>
  <i type="string" name="ALGO"> Normal    !=Normal, blocked Davidson it</i>
  <i type="int" name="NSIM">     4</i>
  <i type="int" name="ISPIN">     1</i>
  <i type="int" name="ICHARG">     2</i>
  <i type="int" name="INIWAV">     1</i>
  <i type="int" name="NELM">   200</i>
  <i type="int" name="NELMDL">    -5</i>
  <i type="int" name="NELMIN">     2</i>
  <i type="int" name="IBRION">     2</i>
  <i name="EDIFF">      0.00010000</i>
  <i name="EDIFFG">     -0.02000000</i>
  <i type="int" name="NSW"> 10000</i>
  <i type="int" name="ISIF">     2</i>
  <i type="int" name="ISYM">     2</i>
  <i name="ENCUT">    400.00000000</i>
  <i name="ENAUG">    645.00000000</i>
  <i type="string" name="LREAL"> Auto     !=Auto projection operators ev</i>
  <i type="logical" name="LPLANE"> T  </i>
  <i type="int" name="ISMEAR">     0</i>
  <i name="SIGMA">      0.10000000</i>
  <i type="int" name="NWRITE">     2</i>
  <i type="logical" name="LWAVE"> F  </i>
  <i type="logical" name="LCHARG"> F  </i>
  <i type="logical" name="LORBIT"> F  </i>
  <i type="logical" name="LELF"> F  </i>
  <i type="logical" name="LSCALU"> F  </i>
  <v type="int" name="KPOINT_BSE">    -1     0     0     0</v>
  <i type="int" name="NELM">   200</i>
 </incar>
 <kpoints>
  <varray name="kpointlist" >
   <v>       0.00000000       0.00000000       0.00000000 </v>
  </varray>
  <varray name="weights" >
   <v>       1.00000000 </v>
  </varray>
 </kpoints>
 <parameters>
  <separator name="general" >
   <i type="string" name="SYSTEM">basalPlane</i>
   <i type="logical" name="LCOMPAT"> F  </i>
  </separator>
  <separator name="electronic" >
   <i type="string" name="PREC">accura</i>
   <i name="ENMAX">    400.00000000</i>
   <i name="ENAUG">    645.00000000</i>
   <i name="EDIFF">      0.00010000</i>
   <i type="int" name="IALGO">    38</i>
   <i type="int" name="IWAVPR">    11</i>
   <i type="int" name="NBANDS">   576</i>
   <i name="NELECT">    956.00000000</i>
   <i type="int" name="TURBO">     0</i>
   <i type="int" name="IRESTART">     0</i>
   <i type="int" name="NREBOOT">     0</i>
   <i type="int" name="NMIN">     0</i>
   <i name="EREF">      0.00000000</i>
   <separator name="electronic smearing" >
    <i type="int" name="ISMEAR">     0</i>
    <i name="SIGMA">      0.10000000</i>
    <i name="KSPACING">      0.50000000</i>
    <i type="logical" name="KGAMMA"> T  </i>
   </separator>
   <separator name="electronic projectors" >
    <i type="logical" name="LREAL"> T  </i>
    <v name="ROPT">     -0.00025000     -0.00025000     -0.00025000     -0.00025000     -0.00025000</v>
    <i type="int" name="LMAXPAW">  -100</i>
    <i type="int" name="LMAXMIX">     2</i>
    <i type="logical" name="NLSPLINE"> F  </i>
   </separator>
   <separator name="electronic startup" >
    <i type="int" name="ISTART">     0</i>
    <i type="int" name="ICHARG">     2</i>
    <i type="int" name="INIWAV">     1</i>
   </separator>
   <separator name="electronic spin" >
    <i type="int" name="ISPIN">     1</i>
    <i type="logical" name="LNONCOLLINEAR"> F  </i>
    <v name="MAGMOM">      1.00000000      1.00000000      1.00000000      1.00000000      1.00000000      1.00000000      1.00000000      1.00000000      1.00000000      1.00000000      1.00000000      1.00000000      1.00000000      1.00000000      1.00000000      1.00000000      1.00000000      1.00000000      1.00000000      1.00000000
      1.00000000      1.00000000      1.00000000      1.00000000      1.00000000      1.00000000      1.00000000      1.00000000      1.00000000      1.00000000      1.00000000      1.00000000      1.00000000      1.00000000      1.00000000      1.00000000      1.00000000      1.00000000      1.00000000      1.00000000
      1.00000000      1.00000000      1.00000000      1.00000000      1.00000000      1.00000000      1.00000000      1.00000000      1.00000000      1.00000000      1.00000000      1.00000000      1.00000000      1.00000000      1.00000000      1.00000000      1.00000000      1.00000000      1.00000000      1.00000000
      1.00000000      1.00000000      1.00000000      1.00000000      1.00000000      1.00000000      1.00000000      1.00000000      1.00000000      1.00000000      1.00000000      1.00000000      1.00000000      1.00000000      1.00000000      1.00000000      1.00000000      1.00000000      1.00000000      1.00000000
      1.00000000      1.00000000      1.00000000      1.00000000      1.00000000      1.00000000      1.00000000      1.00000000      1.00000000      1.00000000      1.00000000      1.00000000      1.00000000      1.00000000      1.00000000      1.00000000      1.00000000      1.00000000      1.00000000      1.00000000
      1.00000000      1.00000000      1.00000000      1.00000000      1.00000000      1.00000000      1.00000000      1.00000000      1.00000000      1.00000000      1.00000000      1.00000000      1.00000000      1.00000000      1.00000000      1.00000000      1.00000000      1.00000000      1.00000000      1.00000000
      1.00000000      1.00000000      1.00000000      1.00000000      1.00000000      1.00000000      1.00000000      1.00000000      1.00000000      1.00000000      1.00000000      1.00000000      1.00000000      1.00000000      1.00000000      1.00000000      1.00000000      1.00000000      1.00000000      1.00000000
      1.00000000      1.00000000      1.00000000      1.00000000      1.00000000      1.00000000      1.00000000      1.00000000      1.00000000      1.00000000      1.00000000      1.00000000      1.00000000      1.00000000      1.00000000      1.00000000      1.00000000      1.00000000      1.00000000      1.00000000
      1.00000000      1.00000000      1.00000000      1.00000000      1.00000000      1.00000000      1.00000000      1.00000000      1.00000000      1.00000000      1.00000000</v>
    <i name="NUPDOWN">     -1.00000000</i>
    <i type="logical" name="LSORBIT"> F  </i>
    <v name="SAXIS">      0.00000000      0.00000000      1.00000000</v>
    <i type="logical" name="LSPIRAL"> F  </i>
    <v name="QSPIRAL">      0.00000000      0.00000000      0.00000000</v>
    <i type="logical" name="LZEROZ"> F  </i>
   </separator>
   <separator name="electronic exchange-correlation" >
    <i type="logical" name="LASPH"> F  </i>
    <i type="logical" name="LMETAGGA"> F  </i>
   </separator>
   <separator name="electronic convergence" >
    <i type="int" name="NELM">   200</i>
    <i type="int" name="NELMDL">    -5</i>
    <i type="int" name="NELMIN">     2</i>
    <i name="ENINI">    400.00000000</i>
    <separator name="electronic convergence detail" >
     <i type="logical" name="LDIAG"> T  </i>
     <i type="logical" name="LSUBROT"> F  </i>
     <i name="WEIMIN">      0.00100000</i>
     <i name="EBREAK">      0.00000004</i>
     <i name="DEPER">      0.30000000</i>
     <i type="int" name="NRMM">     4</i>
     <i name="TIME">      0.40000000</i>
    </separator>
   </separator>
   <separator name="electronic mixer" >
    <i name="AMIX">      0.40000000</i>
    <i name="BMIX">      1.00000000</i>
    <i name="AMIN">      0.10000000</i>
    <i name="AMIX_MAG">      1.60000000</i>
    <i name="BMIX_MAG">      1.00000000</i>
    <separator name="electronic mixer details" >
     <i type="int" name="IMIX">     4</i>
     <i type="logical" name="MIXFIRST"> F  </i>
     <i type="int" name="MAXMIX">   -45</i>
     <i name="WC">    100.00000000</i>
     <i type="int" name="INIMIX">     1</i>
     <i type="int" name="MIXPRE">     1</i>
     <i type="int" name="MREMOVE">     5</i>
    </separator>
   </separator>
   <separator name="electronic dipolcorrection" >
    <i type="logical" name="LDIPOL"> F  </i>
    <i type="logical" name="LMONO"> F  </i>
    <i type="int" name="IDIPOL">     0</i>
    <i name="EPSILON">      1.00000000</i>
    <v name="DIPOL">   -100.00000000   -100.00000000   -100.00000000</v>
    <i name="EFIELD">      0.00000000</i>
   </separator>
  </separator>
  <separator name="grids" >
   <i type="int" name="NGX">   108</i>
   <i type="int" name="NGY">   108</i>
   <i type="int" name="NGZ">   216</i>
   <i type="int" name="NGXF">   216</i>
   <i type="int" name="NGYF">   216</i>
   <i type="int" name="NGZF">   432</i>
   <i type="logical" name="ADDGRID"> F  </i>
  </separator>
  <separator name="ionic" >
   <i type="int" name="NSW"> 10000</i>
   <i type="int" name="IBRION">     2</i>
   <i type="int" name="ISIF">     2</i>
   <i name="PSTRESS">      0.00000000</i>
   <i name="EDIFFG">     -0.02000000</i>
   <i type="int" name="NFREE">     1</i>
   <i name="POTIM">      0.50000000</i>
   <i name="SMASS">     -3.00000000</i>
   <i name="SCALEE">      1.00000000</i>
  </separator>
  <separator name="ionic md" >
   <i name="TEBEG">      0.00010000</i>
   <i name="TEEND">      0.00010000</i>
   <i type="int" name="NBLOCK">     1</i>
   <i type="int" name="KBLOCK"> 10000</i>
   <i type="int" name="NPACO">   256</i>
   <i name="APACO">     16.00000000</i>
  </separator>
  <separator name="symmetry" >
   <i type="int" name="ISYM">     2</i>
   <i name="SYMPREC">      0.00001000</i>
  </separator>
  <separator name="dos" >
   <i type="logical" name="LORBIT"> F  </i>
   <v name="RWIGS">     -1.00000000     -1.00000000     -1.00000000     -1.00000000     -1.00000000</v>
   <i type="int" name="NEDOS">   301</i>
   <i name="EMIN">     10.00000000</i>
   <i name="EMAX">    -10.00000000</i>
   <i name="EFERMI">      0.00000000</i>
  </separator>
  <separator name="writing" >
   <i type="int" name="NWRITE">     2</i>
   <i type="logical" name="LWAVE"> F  </i>
   <i type="logical" name="LCHARG"> F  </i>
   <i type="logical" name="LPARD"> F  </i>
   <i type="logical" name="LVTOT"> F  </i>
   <i type="logical" name="LVHAR"> F  </i>
   <i type="logical" name="LELF"> F  </i>
   <i type="logical" name="LOPTICS"> F  </i>
   <v name="STM">      0.00000000      0.00000000      0.00000000      0.00000000      0.00000000      0.00000000      0.00000000</v>
  </separator>
  <separator name="performance" >
   <i type="int" name="NPAR">    12</i>
   <i type="int" name="NSIM">     4</i>
   <i type="int" name="NBLK">    -1</i>
   <i type="logical" name="LPLANE"> T  </i>
   <i type="logical" name="LSCALAPACK"> T  </i>
   <i type="logical" name="LSCAAWARE"> F  </i>
   <i type="logical" name="LSCALU"> F  </i>
   <i type="logical" name="LASYNC"> F  </i>
   <i type="logical" name="LORBITALREAL"> F  </i>
  </separator>
  <separator name="miscellaneous" >
   <i type="int" name="IDIOT">     3</i>
   <i type="logical" name="LMUSIC"> F  </i>
   <v name="POMASS">     12.01100000     51.99600000      1.00000000     95.94000000     32.06600000</v>
   <v name="DARWINR">      0.00000000      0.00000000      0.00000000      0.00000000      0.00000000</v>
   <v name="DARWINV">      1.00000000      1.00000000      1.00000000      1.00000000      1.00000000</v>
   <i type="logical" name="LCORR"> T  </i>
  </separator>
  <i type="logical" name="GGA_COMPAT"> T  </i>
  <i type="logical" name="LBERRY"> F  </i>
  <i type="int" name="ICORELEVEL">     0</i>
  <i type="logical" name="LDAU"> F  </i>
  <i type="int" name="I_CONSTRAINED_M">     0</i>
  <separator name="electronic exchange-correlation" >
   <i type="string" name="GGA">--</i>
   <i type="int" name="VOSKOWN">     0</i>
   <i type="logical" name="LHFCALC"> F  </i>
   <i type="string" name="PRECFOCK"></i>
   <i type="logical" name="LSYMGRAD"> F  </i>
   <i type="logical" name="LHFONE"> F  </i>
   <i type="logical" name="LRHFCALC"> F  </i>
   <i type="logical" name="LTHOMAS"> F  </i>
   <i type="logical" name="LMODELHF"> F  </i>
   <i name="ENCUT4O">     -1.00000000</i>
   <i type="int" name="EXXOEP">     0</i>
   <i type="int" name="FOURORBIT">     0</i>
   <i name="AEXX">      0.00000000</i>
   <i name="HFALPHA">      0.00000000</i>
   <i name="MCALPHA">      0.00000000</i>
   <i name="ALDAX">      1.00000000</i>
   <i name="AGGAX">      1.00000000</i>
   <i name="ALDAC">      1.00000000</i>
   <i name="AGGAC">      1.00000000</i>
   <i type="int" name="NKREDX">     1</i>
   <i type="int" name="NKREDY">     1</i>
   <i type="int" name="NKREDZ">     1</i>
   <i type="logical" name="SHIFTRED"> F  </i>
   <i type="logical" name="ODDONLY"> F  </i>
   <i type="logical" name="EVENONLY"> F  </i>
   <i type="int" name="LMAXFOCK">     0</i>
   <i type="int" name="NMAXFOCKAE">     0</i>
   <i type="logical" name="LFOCKAEDFT"> F  </i>
   <i name="HFSCREEN">      0.00000000</i>
   <i name="HFSCREENC">      0.00000000</i>
   <i type="int" name="NBANDSGWLOW">     0</i>
  </separator>
  <separator name="vdW DFT" >
   <i type="logical" name="LUSE_VDW"> F  </i>
   <i name="Zab_VDW">     -0.84910000</i>
   <i name="PARAM1">      0.12340000</i>
   <i name="PARAM2">      1.00000000</i>
   <i name="PARAM3">      0.00000000</i>
  </separator>
  <separator name="model GW" >
   <i type="int" name="MODEL_GW">     0</i>
   <i name="MODEL_EPS0">     24.87464347</i>
   <i name="MODEL_ALPHA">      1.00000000</i>
  </separator>
  <separator name="linear response parameters" >
   <i type="logical" name="LEPSILON"> F  </i>
   <i type="logical" name="LRPA"> F  </i>
   <i type="logical" name="LNABLA"> F  </i>
   <i type="logical" name="LVEL"> F  </i>
   <i type="int" name="KINTER">     0</i>
   <i name="CSHIFT">      0.10000000</i>
   <i name="OMEGAMAX">     -1.00000000</i>
   <i name="DEG_THRESHOLD">      0.00200000</i>
  </separator>
  <separator name="orbital magnetization" >
   <i type="logical" name="NUCIND"> F  </i>
   <v name="MAGPOS">      0.00000000      0.00000000      0.00000000</v>
   <i type="logical" name="LNICSALL"> T  </i>
   <i type="logical" name="ORBITALMAG"> F  </i>
   <i type="logical" name="LMAGBLOCH"> F  </i>
   <i type="logical" name="LCHIMAG"> F  </i>
   <i type="logical" name="LGAUGE"> T  </i>
   <i type="int" name="MAGATOM">     0</i>
   <v name="MAGDIPOL">      0.00000000      0.00000000      0.00000000</v>
   <v name="AVECCONST">      0.00000000      0.00000000      0.00000000</v>
  </separator>
  <separator name="response functions" >
   <i type="logical" name="LADDER"> F  </i>
   <i type="logical" name="LFXC"> F  </i>
   <i type="logical" name="LHARTREE"> T  </i>
   <i type="int" name="IBSE">     0</i>
   <v type="int" name="KPOINT">    -1     0     0     0</v>
   <i type="logical" name="LTCTE"> F  </i>
   <i type="logical" name="LTETE"> F  </i>
   <i type="logical" name="LTRIPLET"> F  </i>
   <i type="logical" name="LFXCEPS"> F  </i>
   <i type="logical" name="LFXHEG"> F  </i>
   <i type="int" name="NATURALO">     0</i>
   <i type="logical" name="L2ORDER"> F  </i>
   <i type="logical" name="LUSEW"> F  </i>
   <i name="ENCUTGW">     -2.00000000</i>
   <i name="ENCUTGWSOFT">     -2.00000000</i>
   <i name="ENCUTLF">     -1.00000000</i>
   <i type="int" name="LMAXMP2">    -1</i>
   <i name="SCISSOR">      0.00000000</i>
   <i type="int" name="NOMEGA">     0</i>
   <i type="int" name="NOMEGAR">     0</i>
   <i type="int" name="NBANDSGW">    -1</i>
   <i type="int" name="NBANDSO">    -1</i>
   <i type="int" name="NBANDSV">    -1</i>
   <i type="int" name="NELM">   200</i>
   <i type="int" name="NELMHF">     1</i>
   <i type="int" name="DIM">     3</i>
   <i type="int" name="ANTIRES">     0</i>
   <i name="OMEGAMAX">    -30.00000000</i>
   <i name="OMEGAMIN">    -30.00000000</i>
   <i name="OMEGATL">   -200.00000000</i>
   <i type="int" name="OMEGAGRID">     0</i>
   <i name="CSHIFT">     -0.10000000</i>
   <i type="logical" name="SELFENERGY"> F  </i>
   <i type="logical" name="LSPECTRAL"> F  </i>
   <i type="logical" name="LSPECTRALGW"> F  </i>
   <i type="logical" name="LSINGLES"> F  </i>
   <i type="logical" name="LFERMIGW"> F  </i>
   <i type="logical" name="ODDONLYGW"> F  </i>
   <i type="logical" name="EVENONLYGW"> F  </i>
   <i type="int" name="NKREDLFX">     1</i>
   <i type="int" name="NKREDLFY">     1</i>
   <i type="int" name="NKREDLFZ">     1</i>
   <i type="int" name="MAXMEM">  1800</i>
   <i type="int" name="TELESCOPE">     0</i>
   <i type="int" name="TAUPAR">     1</i>
   <i type="int" name="OMEGAPAR">    -1</i>
   <i name="LAMBDA">      1.00000000</i>
  </separator>
  <separator name="External order field" >
   <i name="OFIELD_KAPPA">      0.00000000</i>
   <v name="OFIELD_K">      0.00000000      0.00000000      0.00000000</v>
   <i name="OFIELD_Q6_NEAR">      0.00000000</i>
   <i name="OFIELD_Q6_FAR">      0.00000000</i>
   <i name="OFIELD_A">      0.00000000</i>
  </separator>
 </parameters>
 <atominfo>
  <atoms>     171 </atoms>
  <types>       5 </types>
  <array name="atoms" >
   <dimension dim="1">ion</dimension>
   <field type="string">element</field>
   <field type="int">atomtype</field>
   <set>
    <rc><c>C </c><c>   1</c></rc>
    <rc><c>C </c><c>   1</c></rc>
    <rc><c>C </c><c>   1</c></rc>
    <rc><c>C </c><c>   1</c></rc>
    <rc><c>C </c><c>   1</c></rc>
    <rc><c>C </c><c>   1</c></rc>
    <rc><c>C </c><c>   1</c></rc>
    <rc><c>C </c><c>   1</c></rc>
    <rc><c>C </c><c>   1</c></rc>
    <rc><c>C </c><c>   1</c></rc>
    <rc><c>Cr</c><c>   2</c></rc>
    <rc><c>H </c><c>   3</c></rc>
    <rc><c>H </c><c>   3</c></rc>
    <rc><c>H </c><c>   3</c></rc>
    <rc><c>H </c><c>   3</c></rc>
    <rc><c>H </c><c>   3</c></rc>
    <rc><c>H </c><c>   3</c></rc>
    <rc><c>H </c><c>   3</c></rc>
    <rc><c>H </c><c>   3</c></rc>
    <rc><c>H </c><c>   3</c></rc>
    <rc><c>H </c><c>   3</c></rc>
    <rc><c>Mo</c><c>   4</c></rc>
    <rc><c>Mo</c><c>   4</c></rc>
    <rc><c>Mo</c><c>   4</c></rc>
    <rc><c>Mo</c><c>   4</c></rc>
    <rc><c>Mo</c><c>   4</c></rc>
    <rc><c>Mo</c><c>   4</c></rc>
    <rc><c>Mo</c><c>   4</c></rc>
    <rc><c>Mo</c><c>   4</c></rc>
    <rc><c>Mo</c><c>   4</c></rc>
    <rc><c>Mo</c><c>   4</c></rc>
    <rc><c>Mo</c><c>   4</c></rc>
    <rc><c>Mo</c><c>   4</c></rc>
    <rc><c>Mo</c><c>   4</c></rc>
    <rc><c>Mo</c><c>   4</c></rc>
    <rc><c>Mo</c><c>   4</c></rc>
    <rc><c>Mo</c><c>   4</c></rc>
    <rc><c>Mo</c><c>   4</c></rc>
    <rc><c>Mo</c><c>   4</c></rc>
    <rc><c>Mo</c><c>   4</c></rc>
    <rc><c>Mo</c><c>   4</c></rc>
    <rc><c>Mo</c><c>   4</c></rc>
    <rc><c>Mo</c><c>   4</c></rc>
    <rc><c>Mo</c><c>   4</c></rc>
    <rc><c>Mo</c><c>   4</c></rc>
    <rc><c>Mo</c><c>   4</c></rc>
    <rc><c>Mo</c><c>   4</c></rc>
    <rc><c>Mo</c><c>   4</c></rc>
    <rc><c>Mo</c><c>   4</c></rc>
    <rc><c>Mo</c><c>   4</c></rc>
    <rc><c>Mo</c><c>   4</c></rc>
    <rc><c>Mo</c><c>   4</c></rc>
    <rc><c>Mo</c><c>   4</c></rc>
    <rc><c>Mo</c><c>   4</c></rc>
    <rc><c>Mo</c><c>   4</c></rc>
    <rc><c>Mo</c><c>   4</c></rc>
    <rc><c>Mo</c><c>   4</c></rc>
    <rc><c>Mo</c><c>   4</c></rc>
    <rc><c>Mo</c><c>   4</c></rc>
    <rc><c>Mo</c><c>   4</c></rc>
    <rc><c>Mo</c><c>   4</c></rc>
    <rc><c>Mo</c><c>   4</c></rc>
    <rc><c>Mo</c><c>   4</c></rc>
    <rc><c>Mo</c><c>   4</c></rc>
    <rc><c>Mo</c><c>   4</c></rc>
    <rc><c>Mo</c><c>   4</c></rc>
    <rc><c>Mo</c><c>   4</c></rc>
    <rc><c>Mo</c><c>   4</c></rc>
    <rc><c>Mo</c><c>   4</c></rc>
    <rc><c>Mo</c><c>   4</c></rc>
    <rc><c>Mo</c><c>   4</c></rc>
    <rc><c>S </c><c>   5</c></rc>
    <rc><c>S </c><c>   5</c></rc>
    <rc><c>S </c><c>   5</c></rc>
    <rc><c>S </c><c>   5</c></rc>
    <rc><c>S </c><c>   5</c></rc>
    <rc><c>S </c><c>   5</c></rc>
    <rc><c>S </c><c>   5</c></rc>
    <rc><c>S </c><c>   5</c></rc>
    <rc><c>S </c><c>   5</c></rc>
    <rc><c>S </c><c>   5</c></rc>
    <rc><c>S </c><c>   5</c></rc>
    <rc><c>S </c><c>   5</c></rc>
    <rc><c>S </c><c>   5</c></rc>
    <rc><c>S </c><c>   5</c></rc>
    <rc><c>S </c><c>   5</c></rc>
    <rc><c>S </c><c>   5</c></rc>
    <rc><c>S </c><c>   5</c></rc>
    <rc><c>S </c><c>   5</c></rc>
    <rc><c>S </c><c>   5</c></rc>
    <rc><c>S </c><c>   5</c></rc>
    <rc><c>S </c><c>   5</c></rc>
    <rc><c>S </c><c>   5</c></rc>
    <rc><c>S </c><c>   5</c></rc>
    <rc><c>S </c><c>   5</c></rc>
    <rc><c>S </c><c>   5</c></rc>
    <rc><c>S </c><c>   5</c></rc>
    <rc><c>S </c><c>   5</c></rc>
    <rc><c>S </c><c>   5</c></rc>
    <rc><c>S </c><c>   5</c></rc>
    <rc><c>S </c><c>   5</c></rc>
    <rc><c>S </c><c>   5</c></rc>
    <rc><c>S </c><c>   5</c></rc>
    <rc><c>S </c><c>   5</c></rc>
    <rc><c>S </c><c>   5</c></rc>
    <rc><c>S </c><c>   5</c></rc>
    <rc><c>S </c><c>   5</c></rc>
    <rc><c>S </c><c>   5</c></rc>
    <rc><c>S </c><c>   5</c></rc>
    <rc><c>S </c><c>   5</c></rc>
    <rc><c>S </c><c>   5</c></rc>
    <rc><c>S </c><c>   5</c></rc>
    <rc><c>S </c><c>   5</c></rc>
    <rc><c>S </c><c>   5</c></rc>
    <rc><c>S </c><c>   5</c></rc>
    <rc><c>S </c><c>   5</c></rc>
    <rc><c>S </c><c>   5</c></rc>
    <rc><c>S </c><c>   5</c></rc>
    <rc><c>S </c><c>   5</c></rc>
    <rc><c>S </c><c>   5</c></rc>
    <rc><c>S </c><c>   5</c></rc>
    <rc><c>S </c><c>   5</c></rc>
    <rc><c>S </c><c>   5</c></rc>
    <rc><c>S </c><c>   5</c></rc>
    <rc><c>S </c><c>   5</c></rc>
    <rc><c>S </c><c>   5</c></rc>
    <rc><c>S </c><c>   5</c></rc>
    <rc><c>S </c><c>   5</c></rc>
    <rc><c>S </c><c>   5</c></rc>
    <rc><c>S </c><c>   5</c></rc>
    <rc><c>S </c><c>   5</c></rc>
    <rc><c>S </c><c>   5</c></rc>
    <rc><c>S </c><c>   5</c></rc>
    <rc><c>S </c><c>   5</c></rc>
    <rc><c>S </c><c>   5</c></rc>
    <rc><c>S </c><c>   5</c></rc>
    <rc><c>S </c><c>   5</c></rc>
    <rc><c>S </c><c>   5</c></rc>
    <rc><c>S </c><c>   5</c></rc>
    <rc><c>S </c><c>   5</c></rc>
    <rc><c>S </c><c>   5</c></rc>
    <rc><c>S </c><c>   5</c></rc>
    <rc><c>S </c><c>   5</c></rc>
    <rc><c>S </c><c>   5</c></rc>
    <rc><c>S </c><c>   5</c></rc>
    <rc><c>S </c><c>   5</c></rc>
    <rc><c>S </c><c>   5</c></rc>
    <rc><c>S </c><c>   5</c></rc>
    <rc><c>S </c><c>   5</c></rc>
    <rc><c>S </c><c>   5</c></rc>
    <rc><c>S </c><c>   5</c></rc>
    <rc><c>S </c><c>   5</c></rc>
    <rc><c>S </c><c>   5</c></rc>
    <rc><c>S </c><c>   5</c></rc>
    <rc><c>S </c><c>   5</c></rc>
    <rc><c>S </c><c>   5</c></rc>
    <rc><c>S </c><c>   5</c></rc>
    <rc><c>S </c><c>   5</c></rc>
    <rc><c>S </c><c>   5</c></rc>
    <rc><c>S </c><c>   5</c></rc>
    <rc><c>S </c><c>   5</c></rc>
    <rc><c>S </c><c>   5</c></rc>
    <rc><c>S </c><c>   5</c></rc>
    <rc><c>S </c><c>   5</c></rc>
    <rc><c>S </c><c>   5</c></rc>
    <rc><c>S </c><c>   5</c></rc>
    <rc><c>S </c><c>   5</c></rc>
    <rc><c>S </c><c>   5</c></rc>
    <rc><c>S </c><c>   5</c></rc>
    <rc><c>S </c><c>   5</c></rc>
    <rc><c>S </c><c>   5</c></rc>
   </set>
  </array>
  <array name="atomtypes" >
   <dimension dim="1">type</dimension>
   <field type="int">atomspertype</field>
   <field type="string">element</field>
   <field>mass</field>
   <field>valence</field>
   <field type="string">pseudopotential</field>
   <set>
    <rc><c>  10</c><c>C </c><c>     12.01100000</c><c>      4.00000000</c><c>  PAW_PBE C 08Apr2002                   </c></rc>
    <rc><c>   1</c><c>Cr</c><c>     51.99600000</c><c>      6.00000000</c><c>  PAW_PBE Cr 06Sep2000                  </c></rc>
    <rc><c>  10</c><c>H </c><c>      1.00000000</c><c>      1.00000000</c><c>  PAW_PBE H 15Jun2001                   </c></rc>
    <rc><c>  50</c><c>Mo</c><c>     95.94000000</c><c>      6.00000000</c><c>  PAW_PBE Mo 08Apr2002                  </c></rc>
    <rc><c> 100</c><c>S </c><c>     32.06600000</c><c>      6.00000000</c><c>  PAW_PBE S 06Sep2000                   </c></rc>
   </set>
  </array>
 </atominfo>
 <structure name="initialpos" >
  <crystal>
   <varray name="basis" >
    <v>      15.90000000       0.00000000       0.00000000 </v>
    <v>      -7.95000000      13.76980392       0.00000000 </v>
    <v>       0.00000000       0.00000000      32.38000000 </v>
   </varray>
   <i name="volume">   7089.27338987 </i>
   <varray name="rec_basis" >
    <v>       0.06289308       0.03631134       0.00000000 </v>
    <v>       0.00000000       0.07262268       0.00000000 </v>
    <v>       0.00000000       0.00000000       0.03088326 </v>
   </varray>
  </crystal>
  <varray name="positions" >
   <v>       0.44899474       0.34431437       0.38109241 </v>
   <v>       0.48992389       0.31765206       0.41412604 </v>
   <v>       0.50524645       0.44695982       0.37553779 </v>
   <v>       0.58266168       0.48487813       0.40547213 </v>
   <v>       0.57264678       0.40386411       0.42954009 </v>
   <v>       0.33225082       0.35748484       0.47893801 </v>
   <v>       0.46038229       0.51503652       0.48803296 </v>
   <v>       0.42180418       0.41604516       0.50118863 </v>
   <v>       0.39547076       0.51745106       0.45831363 </v>
   <v>       0.31697449       0.42114927       0.45251255 </v>
   <v>       0.45099551       0.42204322       0.43778823 </v>
   <v>       0.62013454       0.40728549       0.45444525 </v>
   <v>       0.45299959       0.39051554       0.52450071 </v>
   <v>       0.28384708       0.27966028       0.48223938 </v>
   <v>       0.52801866       0.57711597       0.49841357 </v>
   <v>       0.40683834       0.58130404       0.44126661 </v>
   <v>       0.46117226       0.24477374       0.42651773 </v>
   <v>       0.38310316       0.29526416       0.36431231 </v>
   <v>       0.49136863       0.48896943       0.35282712 </v>
   <v>       0.63990511       0.56020892       0.40846119 </v>
   <v>       0.25722756       0.39949275       0.43089089 </v>
   <v>       0.60000000       0.60000000       0.65735022 </v>
   <v>       0.20000000       0.80000000       0.21911674 </v>
   <v>       0.20000000       0.60000000       0.65735022 </v>
   <v>       0.60000000       0.80000000       0.21911674 </v>
   <v>       0.20000000       0.60000000       0.21911674 </v>
   <v>       0.60000000       0.80000000       0.65735022 </v>
   <v>       0.20000000       0.40000000       0.21911674 </v>
   <v>       0.80000000       0.00000000       0.21911674 </v>
   <v>       0.20000000       0.20000000       0.65735022 </v>
   <v>       0.80000000       0.00000000       0.65735022 </v>
   <v>       0.20000000       0.20000000       0.21911674 </v>
   <v>       0.20000000       0.80000000       0.65735022 </v>
   <v>       0.20000000       0.40000000       0.65735022 </v>
   <v>       0.60000000       0.60000000       0.21911674 </v>
   <v>       0.40000000       0.60000000       0.21911674 </v>
   <v>       0.40000000       0.00000000       0.65735022 </v>
   <v>       0.60000000       0.40000000       0.65735022 </v>
   <v>       0.40000000       0.20000000       0.21911674 </v>
   <v>       0.60000000       0.40000000       0.21911674 </v>
   <v>       0.40000000       0.20000000       0.65735022 </v>
   <v>       0.40000000       0.40000000       0.21911674 </v>
   <v>       0.60000000       0.20000000       0.65735022 </v>
   <v>       0.40000000       0.40000000       0.65735022 </v>
   <v>       0.60000000       0.20000000       0.21911674 </v>
   <v>       0.40000000       0.80000000       0.65735022 </v>
   <v>       0.40000000       0.60000000       0.65735022 </v>
   <v>       0.60000000       0.00000000       0.65735022 </v>
   <v>       0.40000000       0.80000000       0.21911674 </v>
   <v>       0.60000000       0.00000000       0.21911674 </v>
   <v>       0.40000000       0.00000000       0.21911674 </v>
   <v>       0.80000000       0.20000000       0.21911674 </v>
   <v>       0.20000000       0.00000000       0.65735022 </v>
   <v>       0.20000000       0.00000000       0.21911674 </v>
   <v>       0.00000000       0.00000000       0.21911674 </v>
   <v>       0.80000000       0.80000000       0.65735022 </v>
   <v>       0.00000000       0.00000000       0.65735022 </v>
   <v>       0.80000000       0.80000000       0.21911674 </v>
   <v>       0.00000000       0.20000000       0.21911674 </v>
   <v>       0.00000000       0.20000000       0.65735022 </v>
   <v>       0.80000000       0.60000000       0.65735022 </v>
   <v>       0.00000000       0.40000000       0.21911674 </v>
   <v>       0.00000000       0.40000000       0.65735022 </v>
   <v>       0.00000000       0.60000000       0.21911674 </v>
   <v>       0.80000000       0.40000000       0.65735022 </v>
   <v>       0.00000000       0.60000000       0.65735022 </v>
   <v>       0.80000000       0.60000000       0.21911674 </v>
   <v>       0.80000000       0.40000000       0.21911674 </v>
   <v>       0.00000000       0.80000000       0.65735022 </v>
   <v>       0.00000000       0.80000000       0.21911674 </v>
   <v>       0.80000000       0.20000000       0.65735022 </v>
   <v>       0.93333333       0.06666667       0.16985794 </v>
   <v>       0.73333333       0.26666667       0.60809141 </v>
   <v>       0.73333333       0.26666667       0.70660902 </v>
   <v>       0.93333333       0.66666667       0.70660902 </v>
   <v>       0.93333333       0.66666667       0.60809141 </v>
   <v>       0.73333333       0.26666667       0.16985794 </v>
   <v>       0.73333333       0.26666667       0.26837554 </v>
   <v>       0.93333333       0.46666667       0.26837554 </v>
   <v>       0.73333333       0.06666667       0.60809141 </v>
   <v>       0.73333333       0.06666667       0.70660902 </v>
   <v>       0.93333333       0.06666667       0.70660902 </v>
   <v>       0.93333333       0.86666667       0.16985794 </v>
   <v>       0.73333333       0.06666667       0.16985794 </v>
   <v>       0.93333333       0.06666667       0.60809141 </v>
   <v>       0.73333333       0.06666667       0.26837554 </v>
   <v>       0.93333333       0.26666667       0.16985794 </v>
   <v>       0.93333333       0.26666667       0.70660902 </v>
   <v>       0.93333333       0.86666667       0.26837554 </v>
   <v>       0.73333333       0.46666667       0.26837554 </v>
   <v>       0.73333333       0.46666667       0.16985794 </v>
   <v>       0.73333333       0.86666667       0.16985794 </v>
   <v>       0.73333333       0.86666667       0.70660902 </v>
   <v>       0.73333333       0.86666667       0.26837554 </v>
   <v>       0.93333333       0.46666667       0.16985794 </v>
   <v>       0.73333333       0.86666667       0.60809141 </v>
   <v>       0.73333333       0.66666667       0.60809141 </v>
   <v>       0.73333333       0.66666667       0.70660902 </v>
   <v>       0.93333333       0.46666667       0.70660902 </v>
   <v>       0.73333333       0.66666667       0.16985794 </v>
   <v>       0.93333333       0.46666667       0.60809141 </v>
   <v>       0.73333333       0.66666667       0.26837554 </v>
   <v>       0.93333333       0.26666667       0.60809141 </v>
   <v>       0.93333333       0.26666667       0.26837554 </v>
   <v>       0.73333333       0.46666667       0.60809141 </v>
   <v>       0.73333333       0.46666667       0.70660902 </v>
   <v>       0.93333333       0.66666667       0.26837554 </v>
   <v>       0.93333333       0.06666667       0.26837554 </v>
   <v>       0.93333333       0.66666667       0.16985794 </v>
   <v>       0.53333333       0.86666667       0.60809141 </v>
   <v>       0.53333333       0.06666667       0.70660902 </v>
   <v>       0.53333333       0.86666667       0.16985794 </v>
   <v>       0.33333333       0.26666667       0.16985794 </v>
   <v>       0.33333333       0.26666667       0.26837554 </v>
   <v>       0.33333333       0.06666667       0.60809141 </v>
   <v>       0.33333333       0.06666667       0.70660902 </v>
   <v>       0.33333333       0.06666667       0.16985794 </v>
   <v>       0.33333333       0.06666667       0.26837554 </v>
   <v>       0.13333333       0.86666667       0.60809141 </v>
   <v>       0.13333333       0.86666667       0.70660902 </v>
   <v>       0.13333333       0.86666667       0.16985794 </v>
   <v>       0.13333333       0.86666667       0.26837554 </v>
   <v>       0.13333333       0.66666667       0.60809141 </v>
   <v>       0.13333333       0.66666667       0.70660902 </v>
   <v>       0.33333333       0.26666667       0.70660902 </v>
   <v>       0.13333333       0.66666667       0.16985794 </v>
   <v>       0.13333333       0.46666667       0.60809141 </v>
   <v>       0.13333333       0.46666667       0.70660902 </v>
   <v>       0.13333333       0.46666667       0.16985794 </v>
   <v>       0.13333333       0.46666667       0.26837554 </v>
   <v>       0.13333333       0.26666667       0.60809141 </v>
   <v>       0.13333333       0.26666667       0.70660902 </v>
   <v>       0.13333333       0.26666667       0.16985794 </v>
   <v>       0.13333333       0.26666667       0.26837554 </v>
   <v>       0.13333333       0.06666667       0.60809141 </v>
   <v>       0.13333333       0.06666667       0.70660902 </v>
   <v>       0.13333333       0.06666667       0.16985794 </v>
   <v>       0.13333333       0.06666667       0.26837554 </v>
   <v>       0.13333333       0.66666667       0.26837554 </v>
   <v>       0.33333333       0.26666667       0.60809141 </v>
   <v>       0.33333333       0.46666667       0.26837554 </v>
   <v>       0.33333333       0.46666667       0.16985794 </v>
   <v>       0.53333333       0.86666667       0.26837554 </v>
   <v>       0.53333333       0.66666667       0.60809141 </v>
   <v>       0.53333333       0.66666667       0.70660902 </v>
   <v>       0.53333333       0.66666667       0.16985794 </v>
   <v>       0.53333333       0.66666667       0.26837554 </v>
   <v>       0.53333333       0.46666667       0.60809141 </v>
   <v>       0.53333333       0.46666667       0.70660902 </v>
   <v>       0.53333333       0.46666667       0.16985794 </v>
   <v>       0.53333333       0.46666667       0.26837554 </v>
   <v>       0.53333333       0.26666667       0.60809141 </v>
   <v>       0.53333333       0.26666667       0.70660902 </v>
   <v>       0.53333333       0.26666667       0.16985794 </v>
   <v>       0.53333333       0.26666667       0.26837554 </v>
   <v>       0.53333333       0.06666667       0.60809141 </v>
   <v>       0.93333333       0.86666667       0.70660902 </v>
   <v>       0.53333333       0.06666667       0.16985794 </v>
   <v>       0.53333333       0.06666667       0.26837554 </v>
   <v>       0.33333333       0.86666667       0.60809141 </v>
   <v>       0.33333333       0.86666667       0.70660902 </v>
   <v>       0.33333333       0.86666667       0.16985794 </v>
   <v>       0.33333333       0.86666667       0.26837554 </v>
   <v>       0.33333333       0.66666667       0.60809141 </v>
   <v>       0.33333333       0.66666667       0.70660902 </v>
   <v>       0.33333333       0.66666667       0.16985794 </v>
   <v>       0.33333333       0.66666667       0.26837554 </v>
   <v>       0.33333333       0.46666667       0.60809141 </v>
   <v>       0.33333333       0.46666667       0.70660902 </v>
   <v>       0.53333333       0.86666667       0.70660902 </v>
   <v>       0.93333333       0.86666667       0.60809141 </v>
  </varray>
  <varray name="selective"  type="logical" >
   <v type="logical" >  T  T  T </v>
   <v type="logical" >  T  T  T </v>
   <v type="logical" >  T  T  T </v>
   <v type="logical" >  T  T  T </v>
   <v type="logical" >  T  T  T </v>
   <v type="logical" >  T  T  T </v>
   <v type="logical" >  T  T  T </v>
   <v type="logical" >  T  T  T </v>
   <v type="logical" >  T  T  T </v>
   <v type="logical" >  T  T  T </v>
   <v type="logical" >  T  T  T </v>
   <v type="logical" >  T  T  T </v>
   <v type="logical" >  T  T  T </v>
   <v type="logical" >  T  T  T </v>
   <v type="logical" >  T  T  T </v>
   <v type="logical" >  T  T  T </v>
   <v type="logical" >  T  T  T </v>
   <v type="logical" >  T  T  T </v>
   <v type="logical" >  T  T  T </v>
   <v type="logical" >  T  T  T </v>
   <v type="logical" >  T  T  T </v>
   <v type="logical" >  T  T  T </v>
   <v type="logical" >  F  F  F </v>
   <v type="logical" >  T  T  T </v>
   <v type="logical" >  F  F  F </v>
   <v type="logical" >  F  F  F </v>
   <v type="logical" >  T  T  T </v>
   <v type="logical" >  F  F  F </v>
   <v type="logical" >  F  F  F </v>
   <v type="logical" >  T  T  T </v>
   <v type="logical" >  T  T  T </v>
   <v type="logical" >  F  F  F </v>
   <v type="logical" >  T  T  T </v>
   <v type="logical" >  T  T  T </v>
   <v type="logical" >  F  F  F </v>
   <v type="logical" >  F  F  F </v>
   <v type="logical" >  T  T  T </v>
   <v type="logical" >  T  T  T </v>
   <v type="logical" >  F  F  F </v>
   <v type="logical" >  F  F  F </v>
   <v type="logical" >  T  T  T </v>
   <v type="logical" >  F  F  F </v>
   <v type="logical" >  T  T  T </v>
   <v type="logical" >  T  T  T </v>
   <v type="logical" >  F  F  F </v>
   <v type="logical" >  T  T  T </v>
   <v type="logical" >  T  T  T </v>
   <v type="logical" >  T  T  T </v>
   <v type="logical" >  F  F  F </v>
   <v type="logical" >  F  F  F </v>
   <v type="logical" >  F  F  F </v>
   <v type="logical" >  F  F  F </v>
   <v type="logical" >  T  T  T </v>
   <v type="logical" >  F  F  F </v>
   <v type="logical" >  F  F  F </v>
   <v type="logical" >  T  T  T </v>
   <v type="logical" >  T  T  T </v>
   <v type="logical" >  F  F  F </v>
   <v type="logical" >  F  F  F </v>
   <v type="logical" >  T  T  T </v>
   <v type="logical" >  T  T  T </v>
   <v type="logical" >  F  F  F </v>
   <v type="logical" >  T  T  T </v>
   <v type="logical" >  F  F  F </v>
   <v type="logical" >  T  T  T </v>
   <v type="logical" >  T  T  T </v>
   <v type="logical" >  F  F  F </v>
   <v type="logical" >  F  F  F </v>
   <v type="logical" >  T  T  T </v>
   <v type="logical" >  F  F  F </v>
   <v type="logical" >  T  T  T </v>
   <v type="logical" >  F  F  F </v>
   <v type="logical" >  T  T  T </v>
   <v type="logical" >  T  T  T </v>
   <v type="logical" >  T  T  T </v>
   <v type="logical" >  T  T  T </v>
   <v type="logical" >  F  F  F </v>
   <v type="logical" >  F  F  F </v>
   <v type="logical" >  F  F  F </v>
   <v type="logical" >  T  T  T </v>
   <v type="logical" >  T  T  T </v>
   <v type="logical" >  T  T  T </v>
   <v type="logical" >  F  F  F </v>
   <v type="logical" >  F  F  F </v>
   <v type="logical" >  T  T  T </v>
   <v type="logical" >  F  F  F </v>
   <v type="logical" >  F  F  F </v>
   <v type="logical" >  T  T  T </v>
   <v type="logical" >  F  F  F </v>
   <v type="logical" >  F  F  F </v>
   <v type="logical" >  F  F  F </v>
   <v type="logical" >  F  F  F </v>
   <v type="logical" >  T  T  T </v>
   <v type="logical" >  F  F  F </v>
   <v type="logical" >  F  F  F </v>
   <v type="logical" >  T  T  T </v>
   <v type="logical" >  T  T  T </v>
   <v type="logical" >  T  T  T </v>
   <v type="logical" >  T  T  T </v>
   <v type="logical" >  F  F  F </v>
   <v type="logical" >  T  T  T </v>
   <v type="logical" >  F  F  F </v>
   <v type="logical" >  T  T  T </v>
   <v type="logical" >  F  F  F </v>
   <v type="logical" >  T  T  T </v>
   <v type="logical" >  T  T  T </v>
   <v type="logical" >  F  F  F </v>
   <v type="logical" >  F  F  F </v>
   <v type="logical" >  F  F  F </v>
   <v type="logical" >  T  T  T </v>
   <v type="logical" >  T  T  T </v>
   <v type="logical" >  F  F  F </v>
   <v type="logical" >  F  F  F </v>
   <v type="logical" >  F  F  F </v>
   <v type="logical" >  T  T  T </v>
   <v type="logical" >  T  T  T </v>
   <v type="logical" >  F  F  F </v>
   <v type="logical" >  F  F  F </v>
   <v type="logical" >  T  T  T </v>
   <v type="logical" >  T  T  T </v>
   <v type="logical" >  F  F  F </v>
   <v type="logical" >  F  F  F </v>
   <v type="logical" >  T  T  T </v>
   <v type="logical" >  T  T  T </v>
   <v type="logical" >  T  T  T </v>
   <v type="logical" >  F  F  F </v>
   <v type="logical" >  T  T  T </v>
   <v type="logical" >  T  T  T </v>
   <v type="logical" >  F  F  F </v>
   <v type="logical" >  F  F  F </v>
   <v type="logical" >  T  T  T </v>
   <v type="logical" >  T  T  T </v>
   <v type="logical" >  F  F  F </v>
   <v type="logical" >  F  F  F </v>
   <v type="logical" >  T  T  T </v>
   <v type="logical" >  T  T  T </v>
   <v type="logical" >  F  F  F </v>
   <v type="logical" >  F  F  F </v>
   <v type="logical" >  F  F  F </v>
   <v type="logical" >  T  T  T </v>
   <v type="logical" >  F  F  F </v>
   <v type="logical" >  F  F  F </v>
   <v type="logical" >  F  F  F </v>
   <v type="logical" >  T  T  T </v>
   <v type="logical" >  T  T  T </v>
   <v type="logical" >  F  F  F </v>
   <v type="logical" >  F  F  F </v>
   <v type="logical" >  T  T  T </v>
   <v type="logical" >  T  T  T </v>
   <v type="logical" >  F  F  F </v>
   <v type="logical" >  F  F  F </v>
   <v type="logical" >  T  T  T </v>
   <v type="logical" >  T  T  T </v>
   <v type="logical" >  F  F  F </v>
   <v type="logical" >  F  F  F </v>
   <v type="logical" >  T  T  T </v>
   <v type="logical" >  T  T  T </v>
   <v type="logical" >  F  F  F </v>
   <v type="logical" >  F  F  F </v>
   <v type="logical" >  T  T  T </v>
   <v type="logical" >  T  T  T </v>
   <v type="logical" >  F  F  F </v>
   <v type="logical" >  F  F  F </v>
   <v type="logical" >  T  T  T </v>
   <v type="logical" >  T  T  T </v>
   <v type="logical" >  F  F  F </v>
   <v type="logical" >  F  F  F </v>
   <v type="logical" >  T  T  T </v>
   <v type="logical" >  T  T  T </v>
   <v type="logical" >  T  T  T </v>
   <v type="logical" >  T  T  T </v>
  </varray>
  <nose>
   <v>      -3.00000000       0.00000000       0.00010000       0.00010000 </v>
  </nose>
 </structure>
 <calculation>
  <scstep>
   <time name="dav">   25.11   25.61</time>
   <time name="total">   26.06   26.59</time>
   <energy>
    <i name="alphaZ">   1150.89500911 </i>
    <i name="ewald">  87387.30982081 </i>
    <i name="hartreedc">-125360.69053065 </i>
    <i name="XCdc">  -1684.41629088 </i>
    <i name="pawpsdc">  36411.78182824 </i>
    <i name="pawaedc"> -32520.45026120 </i>
    <i name="eentropy">     -0.30569230 </i>
    <i name="bandstr">   1831.94031825 </i>
    <i name="atom">  40430.53995508 </i>
    <i name="e_fr_energy">   7646.60415645 </i>
    <i name="e_wo_entrp">   7646.90984875 </i>
    <i name="e_0_energy">   7646.75700260 </i>
   </energy>
  </scstep>
  <scstep>
   <time name="dav">   31.49   31.54</time>
   <time name="total">   31.49   31.64</time>
   <energy>
    <i name="e_fr_energy">   -260.19368176 </i>
    <i name="e_wo_entrp">   -260.05882791 </i>
    <i name="e_0_energy">   -260.12625483 </i>
   </energy>
  </scstep>
  <scstep>
   <time name="dav">   27.61   28.16</time>
   <time name="total">   27.62   28.20</time>
   <energy>
    <i name="e_fr_energy">  -1262.08698821 </i>
    <i name="e_wo_entrp">  -1262.08698731 </i>
    <i name="e_0_energy">  -1262.08698776 </i>
   </energy>
  </scstep>
  <scstep>
   <time name="dav">   34.25   34.38</time>
   <time name="total">   34.26   34.39</time>
   <energy>
    <i name="e_fr_energy">  -1321.10333468 </i>
    <i name="e_wo_entrp">  -1321.10333468 </i>
    <i name="e_0_energy">  -1321.10333468 </i>
   </energy>
  </scstep>
  <scstep>
   <time name="dav">   34.22   34.62</time>
   <time name="total">   36.62   37.06</time>
   <energy>
    <i name="e_fr_energy">  -1323.10521512 </i>
    <i name="e_wo_entrp">  -1323.10521512 </i>
    <i name="e_0_energy">  -1323.10521512 </i>
   </energy>
  </scstep>
  <scstep>
   <time name="dav">   31.57   31.67</time>
   <time name="total">   34.94   35.09</time>
   <energy>
    <i name="e_fr_energy">  -1275.81094956 </i>
    <i name="e_wo_entrp">  -1275.66443931 </i>
    <i name="e_0_energy">  -1275.73769444 </i>
   </energy>
  </scstep>
  <scstep>
   <time name="dav">   34.43   34.74</time>
   <time name="total">   37.97   38.35</time>
   <energy>
    <i name="e_fr_energy">  -1291.01273791 </i>
    <i name="e_wo_entrp">  -1290.63811998 </i>
    <i name="e_0_energy">  -1290.82542895 </i>
   </energy>
  </scstep>
  <scstep>
   <time name="dav">   28.77   29.26</time>
   <time name="total">   32.21   32.75</time>
   <energy>
    <i name="e_fr_energy">  -1234.89671685 </i>
    <i name="e_wo_entrp">  -1234.57703173 </i>
    <i name="e_0_energy">  -1234.73687429 </i>
   </energy>
  </scstep>
  <scstep>
   <time name="dav">   34.31   34.36</time>
   <time name="total">   37.64   37.78</time>
   <energy>
    <i name="e_fr_energy">  -1247.79171662 </i>
    <i name="e_wo_entrp">  -1247.79171662 </i>
    <i name="e_0_energy">  -1247.79171662 </i>
   </energy>
  </scstep>
  <scstep>
   <time name="dav">   34.04   34.45</time>
   <time name="total">   37.50   38.03</time>
   <energy>
    <i name="e_fr_energy">  -1214.14932334 </i>
    <i name="e_wo_entrp">  -1214.09382705 </i>
    <i name="e_0_energy">  -1214.12157520 </i>
   </energy>
  </scstep>
  <scstep>
   <time name="dav">   33.78   33.91</time>
   <time name="total">   37.15   37.63</time>
   <energy>
    <i name="e_fr_energy">  -1223.18239571 </i>
    <i name="e_wo_entrp">  -1222.98142876 </i>
    <i name="e_0_energy">  -1223.08191224 </i>
   </energy>
  </scstep>
  <scstep>
   <time name="dav">   31.75   31.85</time>
   <time name="total">   35.17   35.37</time>
   <energy>
    <i name="e_fr_energy">  -1223.88669728 </i>
    <i name="e_wo_entrp">  -1223.88668126 </i>
    <i name="e_0_energy">  -1223.88668927 </i>
   </energy>
  </scstep>
  <scstep>
   <time name="dav">   33.53   34.07</time>
   <time name="total">   36.94   38.14</time>
   <energy>
    <i name="e_fr_energy">  -1223.72247440 </i>
    <i name="e_wo_entrp">  -1223.70533302 </i>
    <i name="e_0_energy">  -1223.71390371 </i>
   </energy>
  </scstep>
  <scstep>
   <time name="dav">   32.89   33.02</time>
   <time name="total">   36.21   36.65</time>
   <energy>
    <i name="e_fr_energy">  -1223.54108483 </i>
    <i name="e_wo_entrp">  -1223.52831615 </i>
    <i name="e_0_energy">  -1223.53470049 </i>
   </energy>
  </scstep>
  <scstep>
   <time name="dav">   34.50   35.18</time>
   <time name="total">   37.82   38.61</time>
   <energy>
    <i name="e_fr_energy">  -1223.60394424 </i>
    <i name="e_wo_entrp">  -1223.49423246 </i>
    <i name="e_0_energy">  -1223.54908835 </i>
   </energy>
  </scstep>
  <scstep>
   <time name="dav">   32.49   32.97</time>
   <time name="total">   35.81   36.40</time>
   <energy>
    <i name="e_fr_energy">  -1224.35164892 </i>
    <i name="e_wo_entrp">  -1224.14248704 </i>
    <i name="e_0_energy">  -1224.24706798 </i>
   </energy>
  </scstep>
  <scstep>
   <time name="dav">   33.69   33.76</time>
   <time name="total">   37.02   37.25</time>
   <energy>
    <i name="e_fr_energy">  -1223.78551890 </i>
    <i name="e_wo_entrp">  -1223.57266836 </i>
    <i name="e_0_energy">  -1223.67909363 </i>
   </energy>
  </scstep>
  <scstep>
   <time name="dav">   32.18   32.77</time>
   <time name="total">   35.49   36.16</time>
   <energy>
    <i name="e_fr_energy">  -1224.76856762 </i>
    <i name="e_wo_entrp">  -1224.55559146 </i>
    <i name="e_0_energy">  -1224.66207954 </i>
   </energy>
  </scstep>
  <scstep>
   <time name="dav">   30.80   30.92</time>
   <time name="total">   34.11   34.38</time>
   <energy>
    <i name="e_fr_energy">  -1225.88589422 </i>
    <i name="e_wo_entrp">  -1225.67979450 </i>
    <i name="e_0_energy">  -1225.78284436 </i>
   </energy>
  </scstep>
  <scstep>
   <time name="dav">   32.43   32.90</time>
   <time name="total">   35.76   36.31</time>
   <energy>
    <i name="e_fr_energy">  -1224.78574937 </i>
    <i name="e_wo_entrp">  -1224.57257615 </i>
    <i name="e_0_energy">  -1224.67916276 </i>
   </energy>
  </scstep>
  <scstep>
   <time name="dav">   32.30   32.74</time>
   <time name="total">   35.63   36.19</time>
   <energy>
    <i name="e_fr_energy">  -1224.04780338 </i>
    <i name="e_wo_entrp">  -1223.82989009 </i>
    <i name="e_0_energy">  -1223.93884673 </i>
   </energy>
  </scstep>
  <scstep>
   <time name="dav">   33.51   33.56</time>
   <time name="total">   36.84   36.94</time>
   <energy>
    <i name="e_fr_energy">  -1223.50103978 </i>
    <i name="e_wo_entrp">  -1223.41317784 </i>
    <i name="e_0_energy">  -1223.45710881 </i>
   </energy>
  </scstep>
  <scstep>
   <time name="dav">   30.91   31.41</time>
   <time name="total">   34.25   36.19</time>
   <energy>
    <i name="e_fr_energy">  -1223.53137429 </i>
    <i name="e_wo_entrp">  -1223.30300518 </i>
    <i name="e_0_energy">  -1223.41718973 </i>
   </energy>
  </scstep>
  <scstep>
   <time name="dav">   32.71   32.83</time>
   <time name="total">   36.01   36.20</time>
   <energy>
    <i name="e_fr_energy">  -1223.35013617 </i>
    <i name="e_wo_entrp">  -1223.24337632 </i>
    <i name="e_0_energy">  -1223.29675624 </i>
   </energy>
  </scstep>
  <scstep>
   <time name="dav">   33.99   34.39</time>
   <time name="total">   37.36   37.85</time>
   <energy>
    <i name="e_fr_energy">  -1223.28956276 </i>
    <i name="e_wo_entrp">  -1223.17426053 </i>
    <i name="e_0_energy">  -1223.23191165 </i>
   </energy>
  </scstep>
  <scstep>
   <time name="dav">   31.01   31.42</time>
   <time name="total">   34.34   34.77</time>
   <energy>
    <i name="e_fr_energy">  -1223.26259065 </i>
    <i name="e_wo_entrp">  -1223.16026875 </i>
    <i name="e_0_energy">  -1223.21142970 </i>
   </energy>
  </scstep>
  <scstep>
   <time name="dav">   32.75   32.80</time>
   <time name="total">   36.08   36.18</time>
   <energy>
    <i name="e_fr_energy">  -1223.19571316 </i>
    <i name="e_wo_entrp">  -1223.08303953 </i>
    <i name="e_0_energy">  -1223.13937635 </i>
   </energy>
  </scstep>
  <scstep>
   <time name="dav">   34.17   34.69</time>
   <time name="total">   37.50   38.06</time>
   <energy>
    <i name="e_fr_energy">  -1223.14648489 </i>
    <i name="e_wo_entrp">  -1223.03561347 </i>
    <i name="e_0_energy">  -1223.09104918 </i>
   </energy>
  </scstep>
  <scstep>
   <time name="dav">   32.65   33.23</time>
   <time name="total">   36.01   36.84</time>
   <energy>
    <i name="e_fr_energy">  -1223.11956577 </i>
    <i name="e_wo_entrp">  -1223.00735961 </i>
    <i name="e_0_energy">  -1223.06346269 </i>
   </energy>
  </scstep>
  <scstep>
   <time name="dav">   30.55   30.70</time>
   <time name="total">   33.95   34.20</time>
   <energy>
    <i name="e_fr_energy">  -1223.09273110 </i>
    <i name="e_wo_entrp">  -1222.98085568 </i>
    <i name="e_0_energy">  -1223.03679339 </i>
   </energy>
  </scstep>
  <scstep>
   <time name="dav">   31.85   32.37</time>
   <time name="total">   35.26   35.82</time>
   <energy>
    <i name="e_fr_energy">  -1223.06386086 </i>
    <i name="e_wo_entrp">  -1222.95338553 </i>
    <i name="e_0_energy">  -1223.00862319 </i>
   </energy>
  </scstep>
  <scstep>
   <time name="dav">   31.57   31.64</time>
   <time name="total">   34.97   35.17</time>
   <energy>
    <i name="e_fr_energy">  -1223.03036680 </i>
    <i name="e_wo_entrp">  -1222.92373402 </i>
    <i name="e_0_energy">  -1222.97705041 </i>
   </energy>
  </scstep>
  <scstep>
   <time name="dav">   31.72   32.17</time>
   <time name="total">   35.13   35.70</time>
   <energy>
    <i name="e_fr_energy">  -1223.00898626 </i>
    <i name="e_wo_entrp">  -1222.89816619 </i>
    <i name="e_0_energy">  -1222.95357622 </i>
   </energy>
  </scstep>
  <scstep>
   <time name="dav">   30.45   30.51</time>
   <time name="total">   33.86   34.00</time>
   <energy>
    <i name="e_fr_energy">  -1222.99295631 </i>
    <i name="e_wo_entrp">  -1222.88719123 </i>
    <i name="e_0_energy">  -1222.94007377 </i>
   </energy>
  </scstep>
  <scstep>
   <time name="dav">   30.53   30.99</time>
   <time name="total">   33.95   34.50</time>
   <energy>
    <i name="e_fr_energy">  -1222.97053769 </i>
    <i name="e_wo_entrp">  -1222.86059966 </i>
    <i name="e_0_energy">  -1222.91556867 </i>
   </energy>
  </scstep>
  <scstep>
   <time name="dav">   27.68   27.79</time>
   <time name="total">   31.26   31.59</time>
   <energy>
    <i name="e_fr_energy">  -1222.95696825 </i>
    <i name="e_wo_entrp">  -1222.85199811 </i>
    <i name="e_0_energy">  -1222.90448318 </i>
   </energy>
  </scstep>
  <scstep>
   <time name="dav">   30.66   30.71</time>
   <time name="total">   34.11   35.70</time>
   <energy>
    <i name="e_fr_energy">  -1222.93489246 </i>
    <i name="e_wo_entrp">  -1222.82478567 </i>
    <i name="e_0_energy">  -1222.87983906 </i>
   </energy>
  </scstep>
  <scstep>
   <time name="dav">   28.06   28.52</time>
   <time name="total">   31.55   32.05</time>
   <energy>
    <i name="e_fr_energy">  -1222.92331301 </i>
    <i name="e_wo_entrp">  -1222.81634904 </i>
    <i name="e_0_energy">  -1222.86983102 </i>
   </energy>
  </scstep>
  <scstep>
   <time name="dav">   27.37   27.49</time>
   <time name="total">   30.86   31.15</time>
   <energy>
    <i name="e_fr_energy">  -1222.91207009 </i>
    <i name="e_wo_entrp">  -1222.80189725 </i>
    <i name="e_0_energy">  -1222.85698367 </i>
   </energy>
  </scstep>
  <scstep>
   <time name="dav">   27.15   27.54</time>
   <time name="total">   30.65   31.09</time>
   <energy>
    <i name="e_fr_energy">  -1222.89906071 </i>
    <i name="e_wo_entrp">  -1222.79055486 </i>
    <i name="e_0_energy">  -1222.84480779 </i>
   </energy>
  </scstep>
  <scstep>
   <time name="dav">   29.88   29.98</time>
   <time name="total">   33.39   33.54</time>
   <energy>
    <i name="e_fr_energy">  -1222.87353212 </i>
    <i name="e_wo_entrp">  -1222.76350097 </i>
    <i name="e_0_energy">  -1222.81851655 </i>
   </energy>
  </scstep>
  <scstep>
   <time name="dav">   26.41   26.80</time>
   <time name="total">   29.92   30.32</time>
   <energy>
    <i name="e_fr_energy">  -1222.86906052 </i>
    <i name="e_wo_entrp">  -1222.76044856 </i>
    <i name="e_0_energy">  -1222.81475454 </i>
   </energy>
  </scstep>
  <scstep>
   <time name="dav">   22.05   22.09</time>
   <time name="total">   25.56   25.63</time>
   <energy>
    <i name="e_fr_energy">  -1222.86483631 </i>
    <i name="e_wo_entrp">  -1222.75507418 </i>
    <i name="e_0_energy">  -1222.80995524 </i>
   </energy>
  </scstep>
  <scstep>
   <time name="dav">   22.87   23.31</time>
   <time name="total">   26.39   26.86</time>
   <energy>
    <i name="e_fr_energy">  -1222.86016434 </i>
    <i name="e_wo_entrp">  -1222.75138262 </i>
    <i name="e_0_energy">  -1222.80577348 </i>
   </energy>
  </scstep>
  <scstep>
   <time name="dav">   25.76   26.51</time>
   <time name="total">   29.30   30.13</time>
   <energy>
    <i name="e_fr_energy">  -1222.84994571 </i>
    <i name="e_wo_entrp">  -1222.74067431 </i>
    <i name="e_0_energy">  -1222.79531001 </i>
   </energy>
  </scstep>
  <scstep>
   <time name="dav">   30.18   30.59</time>
   <time name="total">   33.71   34.29</time>
   <energy>
    <i name="e_fr_energy">  -1222.83258747 </i>
    <i name="e_wo_entrp">  -1222.72354039 </i>
    <i name="e_0_energy">  -1222.77806393 </i>
   </energy>
  </scstep>
  <scstep>
   <time name="dav">   29.09   29.16</time>
   <time name="total">   32.63   32.82</time>
   <energy>
    <i name="e_fr_energy">  -1222.82465535 </i>
    <i name="e_wo_entrp">  -1222.71419001 </i>
    <i name="e_0_energy">  -1222.76942268 </i>
   </energy>
  </scstep>
  <scstep>
   <time name="dav">   25.10   25.42</time>
   <time name="total">   28.69   29.24</time>
   <energy>
    <i name="e_fr_energy">  -1222.82217625 </i>
    <i name="e_wo_entrp">  -1222.71160383 </i>
    <i name="e_0_energy">  -1222.76689004 </i>
   </energy>
  </scstep>
  <scstep>
   <time name="dav">   20.12   20.17</time>
   <time name="total">   23.71   23.79</time>
   <energy>
    <i name="e_fr_energy">  -1222.81917165 </i>
    <i name="e_wo_entrp">  -1222.70748988 </i>
    <i name="e_0_energy">  -1222.76333077 </i>
   </energy>
  </scstep>
  <scstep>
   <time name="dav">   19.09   19.22</time>
   <time name="total">   22.57   23.01</time>
   <energy>
    <i name="e_fr_energy">  -1222.82038603 </i>
    <i name="e_wo_entrp">  -1222.70966227 </i>
    <i name="e_0_energy">  -1222.76502415 </i>
   </energy>
  </scstep>
  <scstep>
   <time name="dav">   29.52   29.60</time>
   <time name="total">   33.06   33.33</time>
   <energy>
    <i name="e_fr_energy">  -1222.80792287 </i>
    <i name="e_wo_entrp">  -1222.69463844 </i>
    <i name="e_0_energy">  -1222.75128065 </i>
   </energy>
  </scstep>
  <scstep>
   <time name="dav">   24.55   24.75</time>
   <time name="total">   27.95   28.44</time>
   <energy>
    <i name="e_fr_energy">  -1222.80624341 </i>
    <i name="e_wo_entrp">  -1222.69261229 </i>
    <i name="e_0_energy">  -1222.74942785 </i>
   </energy>
  </scstep>
  <scstep>
   <time name="dav">   19.35   19.40</time>
   <time name="total">   22.93   23.02</time>
   <energy>
    <i name="e_fr_energy">  -1222.80489021 </i>
    <i name="e_wo_entrp">  -1222.69134647 </i>
    <i name="e_0_energy">  -1222.74811834 </i>
   </energy>
  </scstep>
  <scstep>
   <time name="dav">   25.11   25.15</time>
   <time name="total">   28.70   28.81</time>
   <energy>
    <i name="e_fr_energy">  -1222.79954941 </i>
    <i name="e_wo_entrp">  -1222.68448868 </i>
    <i name="e_0_energy">  -1222.74201905 </i>
   </energy>
  </scstep>
  <scstep>
   <time name="dav">   21.61   22.00</time>
   <time name="total">   25.18   25.63</time>
   <energy>
    <i name="e_fr_energy">  -1222.79887181 </i>
    <i name="e_wo_entrp">  -1222.68450267 </i>
    <i name="e_0_energy">  -1222.74168724 </i>
   </energy>
  </scstep>
  <scstep>
   <time name="dav">   22.83   22.87</time>
   <time name="total">   26.42   26.52</time>
   <energy>
    <i name="e_fr_energy">  -1222.79548508 </i>
    <i name="e_wo_entrp">  -1222.68233506 </i>
    <i name="e_0_energy">  -1222.73891007 </i>
   </energy>
  </scstep>
  <scstep>
   <time name="dav">   28.63   29.07</time>
   <time name="total">   32.25   32.72</time>
   <energy>
    <i name="e_fr_energy">  -1222.78805624 </i>
    <i name="e_wo_entrp">  -1222.66737412 </i>
    <i name="e_0_energy">  -1222.72771518 </i>
   </energy>
  </scstep>
  <scstep>
   <time name="dav">   26.28   26.32</time>
   <time name="total">   29.90   30.02</time>
   <energy>
    <i name="e_fr_energy">  -1222.78409568 </i>
    <i name="e_wo_entrp">  -1222.66509116 </i>
    <i name="e_0_energy">  -1222.72459342 </i>
   </energy>
  </scstep>
  <scstep>
   <time name="dav">   25.91   26.39</time>
   <time name="total">   29.56   30.22</time>
   <energy>
    <i name="e_fr_energy">  -1222.78202238 </i>
    <i name="e_wo_entrp">  -1222.66358885 </i>
    <i name="e_0_energy">  -1222.72280562 </i>
   </energy>
  </scstep>
  <scstep>
   <time name="dav">   27.36   27.46</time>
   <time name="total">   30.99   31.28</time>
   <energy>
    <i name="e_fr_energy">  -1222.77788000 </i>
    <i name="e_wo_entrp">  -1222.65877949 </i>
    <i name="e_0_energy">  -1222.71832974 </i>
   </energy>
  </scstep>
  <scstep>
   <time name="dav">   28.44   29.11</time>
   <time name="total">   32.06   32.92</time>
   <energy>
    <i name="e_fr_energy">  -1222.77473264 </i>
    <i name="e_wo_entrp">  -1222.64939240 </i>
    <i name="e_0_energy">  -1222.71206252 </i>
   </energy>
  </scstep>
  <scstep>
   <time name="dav">   25.09   25.15</time>
   <time name="total">   28.73   28.82</time>
   <energy>
    <i name="e_fr_energy">  -1222.77456889 </i>
    <i name="e_wo_entrp">  -1222.64897841 </i>
    <i name="e_0_energy">  -1222.71177365 </i>
   </energy>
  </scstep>
  <scstep>
   <time name="dav">   19.37   19.95</time>
   <time name="total">   22.89   24.19</time>
   <energy>
    <i name="e_fr_energy">  -1222.77446692 </i>
    <i name="e_wo_entrp">  -1222.64754884 </i>
    <i name="e_0_energy">  -1222.71100788 </i>
   </energy>
  </scstep>
  <scstep>
   <time name="dav">   19.36   19.51</time>
   <time name="total">   22.99   23.55</time>
   <energy>
    <i name="e_fr_energy">  -1222.77427922 </i>
    <i name="e_wo_entrp">  -1222.64416311 </i>
    <i name="e_0_energy">  -1222.70922117 </i>
   </energy>
  </scstep>
  <scstep>
   <time name="dav">   19.77   20.06</time>
   <time name="total">   20.68   21.16</time>
   <energy>
    <i name="alphaZ">   1150.89500911 </i>
    <i name="ewald">  87387.30982081 </i>
    <i name="hartreedc">-126108.55608051 </i>
    <i name="XCdc">  -1619.32219811 </i>
    <i name="pawpsdc">  82473.51480431 </i>
    <i name="pawaedc"> -78667.73268866 </i>
    <i name="eentropy">     -0.13222058 </i>
    <i name="bandstr">  -6269.29062432 </i>
    <i name="atom">  40430.53995508 </i>
    <i name="e_fr_energy">  -1222.77422287 </i>
    <i name="e_wo_entrp">  -1222.64200230 </i>
    <i name="e_0_energy">  -1222.70811259 </i>
   </energy>
  </scstep>
  <structure>
   <crystal>
    <varray name="basis" >
     <v>      15.90000000       0.00000000       0.00000000 </v>
     <v>      -7.95000000      13.76980392       0.00000000 </v>
     <v>       0.00000000       0.00000000      32.38000000 </v>
    </varray>
    <i name="volume">   7089.27338987 </i>
    <varray name="rec_basis" >
     <v>       0.06289308       0.03631134       0.00000000 </v>
     <v>       0.00000000       0.07262268       0.00000000 </v>
     <v>       0.00000000       0.00000000       0.03088326 </v>
    </varray>
   </crystal>
   <varray name="positions" >
    <v>       0.44899474       0.34431437       0.38109241 </v>
    <v>       0.48992389       0.31765206       0.41412604 </v>
    <v>       0.50524645       0.44695982       0.37553779 </v>
    <v>       0.58266168       0.48487813       0.40547213 </v>
    <v>       0.57264678       0.40386411       0.42954009 </v>
    <v>       0.33225082       0.35748484       0.47893801 </v>
    <v>       0.46038229       0.51503652       0.48803296 </v>
    <v>       0.42180418       0.41604516       0.50118863 </v>
    <v>       0.39547076       0.51745106       0.45831363 </v>
    <v>       0.31697449       0.42114927       0.45251255 </v>
    <v>       0.45099551       0.42204322       0.43778823 </v>
    <v>       0.62013454       0.40728549       0.45444525 </v>
    <v>       0.45299959       0.39051554       0.52450071 </v>
    <v>       0.28384708       0.27966028       0.48223938 </v>
    <v>       0.52801866       0.57711597       0.49841357 </v>
    <v>       0.40683834       0.58130404       0.44126661 </v>
    <v>       0.46117226       0.24477374       0.42651773 </v>
    <v>       0.38310316       0.29526416       0.36431231 </v>
    <v>       0.49136863       0.48896943       0.35282712 </v>
    <v>       0.63990511       0.56020892       0.40846119 </v>
    <v>       0.25722756       0.39949275       0.43089089 </v>
    <v>       0.60000000       0.60000000       0.65735022 </v>
    <v>       0.20000000       0.80000000       0.21911674 </v>
    <v>       0.20000000       0.60000000       0.65735022 </v>
    <v>       0.60000000       0.80000000       0.21911674 </v>
    <v>       0.20000000       0.60000000       0.21911674 </v>
    <v>       0.60000000       0.80000000       0.65735022 </v>
    <v>       0.20000000       0.40000000       0.21911674 </v>
    <v>       0.80000000       0.00000000       0.21911674 </v>
    <v>       0.20000000       0.20000000       0.65735022 </v>
    <v>       0.80000000       0.00000000       0.65735022 </v>
    <v>       0.20000000       0.20000000       0.21911674 </v>
    <v>       0.20000000       0.80000000       0.65735022 </v>
    <v>       0.20000000       0.40000000       0.65735022 </v>
    <v>       0.60000000       0.60000000       0.21911674 </v>
    <v>       0.40000000       0.60000000       0.21911674 </v>
    <v>       0.40000000       0.00000000       0.65735022 </v>
    <v>       0.60000000       0.40000000       0.65735022 </v>
    <v>       0.40000000       0.20000000       0.21911674 </v>
    <v>       0.60000000       0.40000000       0.21911674 </v>
    <v>       0.40000000       0.20000000       0.65735022 </v>
    <v>       0.40000000       0.40000000       0.21911674 </v>
    <v>       0.60000000       0.20000000       0.65735022 </v>
    <v>       0.40000000       0.40000000       0.65735022 </v>
    <v>       0.60000000       0.20000000       0.21911674 </v>
    <v>       0.40000000       0.80000000       0.65735022 </v>
    <v>       0.40000000       0.60000000       0.65735022 </v>
    <v>       0.60000000       0.00000000       0.65735022 </v>
    <v>       0.40000000       0.80000000       0.21911674 </v>
    <v>       0.60000000       0.00000000       0.21911674 </v>
    <v>       0.40000000       0.00000000       0.21911674 </v>
    <v>       0.80000000       0.20000000       0.21911674 </v>
    <v>       0.20000000       0.00000000       0.65735022 </v>
    <v>       0.20000000       0.00000000       0.21911674 </v>
    <v>       0.00000000       0.00000000       0.21911674 </v>
    <v>       0.80000000       0.80000000       0.65735022 </v>
    <v>       0.00000000       0.00000000       0.65735022 </v>
    <v>       0.80000000       0.80000000       0.21911674 </v>
    <v>       0.00000000       0.20000000       0.21911674 </v>
    <v>       0.00000000       0.20000000       0.65735022 </v>
    <v>       0.80000000       0.60000000       0.65735022 </v>
    <v>       0.00000000       0.40000000       0.21911674 </v>
    <v>       0.00000000       0.40000000       0.65735022 </v>
    <v>       0.00000000       0.60000000       0.21911674 </v>
    <v>       0.80000000       0.40000000       0.65735022 </v>
    <v>       0.00000000       0.60000000       0.65735022 </v>
    <v>       0.80000000       0.60000000       0.21911674 </v>
    <v>       0.80000000       0.40000000       0.21911674 </v>
    <v>       0.00000000       0.80000000       0.65735022 </v>
    <v>       0.00000000       0.80000000       0.21911674 </v>
    <v>       0.80000000       0.20000000       0.65735022 </v>
    <v>       0.93333333       0.06666667       0.16985794 </v>
    <v>       0.73333333       0.26666667       0.60809141 </v>
    <v>       0.73333333       0.26666667       0.70660902 </v>
    <v>       0.93333333       0.66666667       0.70660902 </v>
    <v>       0.93333333       0.66666667       0.60809141 </v>
    <v>       0.73333333       0.26666667       0.16985794 </v>
    <v>       0.73333333       0.26666667       0.26837554 </v>
    <v>       0.93333333       0.46666667       0.26837554 </v>
    <v>       0.73333333       0.06666667       0.60809141 </v>
    <v>       0.73333333       0.06666667       0.70660902 </v>
    <v>       0.93333333       0.06666667       0.70660902 </v>
    <v>       0.93333333       0.86666667       0.16985794 </v>
    <v>       0.73333333       0.06666667       0.16985794 </v>
    <v>       0.93333333       0.06666667       0.60809141 </v>
    <v>       0.73333333       0.06666667       0.26837554 </v>
    <v>       0.93333333       0.26666667       0.16985794 </v>
    <v>       0.93333333       0.26666667       0.70660902 </v>
    <v>       0.93333333       0.86666667       0.26837554 </v>
    <v>       0.73333333       0.46666667       0.26837554 </v>
    <v>       0.73333333       0.46666667       0.16985794 </v>
    <v>       0.73333333       0.86666667       0.16985794 </v>
    <v>       0.73333333       0.86666667       0.70660902 </v>
    <v>       0.73333333       0.86666667       0.26837554 </v>
    <v>       0.93333333       0.46666667       0.16985794 </v>
    <v>       0.73333333       0.86666667       0.60809141 </v>
    <v>       0.73333333       0.66666667       0.60809141 </v>
    <v>       0.73333333       0.66666667       0.70660902 </v>
    <v>       0.93333333       0.46666667       0.70660902 </v>
    <v>       0.73333333       0.66666667       0.16985794 </v>
    <v>       0.93333333       0.46666667       0.60809141 </v>
    <v>       0.73333333       0.66666667       0.26837554 </v>
    <v>       0.93333333       0.26666667       0.60809141 </v>
    <v>       0.93333333       0.26666667       0.26837554 </v>
    <v>       0.73333333       0.46666667       0.60809141 </v>
    <v>       0.73333333       0.46666667       0.70660902 </v>
    <v>       0.93333333       0.66666667       0.26837554 </v>
    <v>       0.93333333       0.06666667       0.26837554 </v>
    <v>       0.93333333       0.66666667       0.16985794 </v>
    <v>       0.53333333       0.86666667       0.60809141 </v>
    <v>       0.53333333       0.06666667       0.70660902 </v>
    <v>       0.53333333       0.86666667       0.16985794 </v>
    <v>       0.33333333       0.26666667       0.16985794 </v>
    <v>       0.33333333       0.26666667       0.26837554 </v>
    <v>       0.33333333       0.06666667       0.60809141 </v>
    <v>       0.33333333       0.06666667       0.70660902 </v>
    <v>       0.33333333       0.06666667       0.16985794 </v>
    <v>       0.33333333       0.06666667       0.26837554 </v>
    <v>       0.13333333       0.86666667       0.60809141 </v>
    <v>       0.13333333       0.86666667       0.70660902 </v>
    <v>       0.13333333       0.86666667       0.16985794 </v>
    <v>       0.13333333       0.86666667       0.26837554 </v>
    <v>       0.13333333       0.66666667       0.60809141 </v>
    <v>       0.13333333       0.66666667       0.70660902 </v>
    <v>       0.33333333       0.26666667       0.70660902 </v>
    <v>       0.13333333       0.66666667       0.16985794 </v>
    <v>       0.13333333       0.46666667       0.60809141 </v>
    <v>       0.13333333       0.46666667       0.70660902 </v>
    <v>       0.13333333       0.46666667       0.16985794 </v>
    <v>       0.13333333       0.46666667       0.26837554 </v>
    <v>       0.13333333       0.26666667       0.60809141 </v>
    <v>       0.13333333       0.26666667       0.70660902 </v>
    <v>       0.13333333       0.26666667       0.16985794 </v>
    <v>       0.13333333       0.26666667       0.26837554 </v>
    <v>       0.13333333       0.06666667       0.60809141 </v>
    <v>       0.13333333       0.06666667       0.70660902 </v>
    <v>       0.13333333       0.06666667       0.16985794 </v>
    <v>       0.13333333       0.06666667       0.26837554 </v>
    <v>       0.13333333       0.66666667       0.26837554 </v>
    <v>       0.33333333       0.26666667       0.60809141 </v>
    <v>       0.33333333       0.46666667       0.26837554 </v>
    <v>       0.33333333       0.46666667       0.16985794 </v>
    <v>       0.53333333       0.86666667       0.26837554 </v>
    <v>       0.53333333       0.66666667       0.60809141 </v>
    <v>       0.53333333       0.66666667       0.70660902 </v>
    <v>       0.53333333       0.66666667       0.16985794 </v>
    <v>       0.53333333       0.66666667       0.26837554 </v>
    <v>       0.53333333       0.46666667       0.60809141 </v>
    <v>       0.53333333       0.46666667       0.70660902 </v>
    <v>       0.53333333       0.46666667       0.16985794 </v>
    <v>       0.53333333       0.46666667       0.26837554 </v>
    <v>       0.53333333       0.26666667       0.60809141 </v>
    <v>       0.53333333       0.26666667       0.70660902 </v>
    <v>       0.53333333       0.26666667       0.16985794 </v>
    <v>       0.53333333       0.26666667       0.26837554 </v>
    <v>       0.53333333       0.06666667       0.60809141 </v>
    <v>       0.93333333       0.86666667       0.70660902 </v>
    <v>       0.53333333       0.06666667       0.16985794 </v>
    <v>       0.53333333       0.06666667       0.26837554 </v>
    <v>       0.33333333       0.86666667       0.60809141 </v>
    <v>       0.33333333       0.86666667       0.70660902 </v>
    <v>       0.33333333       0.86666667       0.16985794 </v>
    <v>       0.33333333       0.86666667       0.26837554 </v>
    <v>       0.33333333       0.66666667       0.60809141 </v>
    <v>       0.33333333       0.66666667       0.70660902 </v>
    <v>       0.33333333       0.66666667       0.16985794 </v>
    <v>       0.33333333       0.66666667       0.26837554 </v>
    <v>       0.33333333       0.46666667       0.60809141 </v>
    <v>       0.33333333       0.46666667       0.70660902 </v>
    <v>       0.53333333       0.86666667       0.70660902 </v>
    <v>       0.93333333       0.86666667       0.60809141 </v>
   </varray>
  </structure>
  <varray name="forces" >
   <v>       0.04947614       0.00124736      -0.02760702 </v>
   <v>       0.00918613       0.01646878      -0.04519008 </v>
   <v>      -0.00303226      -0.01429511       0.03341308 </v>
   <v>      -0.00018788      -0.01907290      -0.01889196 </v>
   <v>       0.00891578      -0.02112571      -0.01560066 </v>
   <v>      -0.01572600       0.02106975       0.00235443 </v>
   <v>      -0.04638328      -0.00161967       0.00794577 </v>
   <v>      -0.02197883       0.00508389      -0.01117259 </v>
   <v>      -0.03198576      -0.01743283       0.03761249 </v>
   <v>      -0.01797298       0.03475900       0.04126382 </v>
   <v>       0.03033582      -0.00365321       0.03378182 </v>
   <v>      -0.00779684      -0.00581005       0.00503083 </v>
   <v>       0.01420110       0.00118511       0.01358744 </v>
   <v>       0.00992127       0.00199426       0.00833036 </v>
   <v>       0.00684611       0.00986251       0.01272197 </v>
   <v>      -0.00319265      -0.01105275       0.00312029 </v>
   <v>      -0.00380087      -0.00419037      -0.00017195 </v>
   <v>      -0.00762086       0.00597724      -0.02603982 </v>
   <v>      -0.00882074      -0.00203403       0.02903222 </v>
   <v>      -0.00254962      -0.00261291       0.00377483 </v>
   <v>       0.00978853      -0.00021815       0.00459563 </v>
   <v>       0.00102669       0.00478163       0.00040411 </v>
   <v>      -0.00037837       0.00024448       0.00301077 </v>
   <v>       0.00162869       0.00122483      -0.00302008 </v>
   <v>       0.00179034       0.00669699       0.00237289 </v>
   <v>       0.00181866       0.00090766       0.00376647 </v>
   <v>       0.00226544       0.00306735       0.00026606 </v>
   <v>      -0.00358907      -0.00677305       0.00342474 </v>
   <v>      -0.00181717      -0.00001643       0.00312648 </v>
   <v>      -0.00174865       0.00325652       0.00056173 </v>
   <v>       0.00031834       0.00076175      -0.00111147 </v>
   <v>      -0.00577477       0.00145940      -0.00261893 </v>
   <v>      -0.00188110      -0.00004013      -0.00153759 </v>
   <v>       0.00682997      -0.00079545      -0.00025412 </v>
   <v>      -0.00112556      -0.01811078      -0.00849628 </v>
   <v>      -0.00054432       0.00222968       0.00408897 </v>
   <v>      -0.00500777       0.00011725      -0.00177040 </v>
   <v>       0.00012155       0.00360817       0.00359753 </v>
   <v>       0.00526000       0.00498920       0.01072917 </v>
   <v>      -0.01070510       0.00382929       0.00586029 </v>
   <v>      -0.00555128      -0.00071388       0.00100548 </v>
   <v>       0.01856142       0.01061312       0.00581095 </v>
   <v>       0.00507968      -0.00068988      -0.00111283 </v>
   <v>      -0.00822013      -0.00021644      -0.02357236 </v>
   <v>      -0.00129348      -0.00210553      -0.00159628 </v>
   <v>      -0.00002720      -0.00364527      -0.00088017 </v>
   <v>       0.00095299      -0.00669356      -0.00498616 </v>
   <v>       0.00680073       0.00022689      -0.00175354 </v>
   <v>       0.00042572      -0.00149210       0.00348460 </v>
   <v>      -0.00160979      -0.00079134       0.00010093 </v>
   <v>       0.00403560      -0.00032345       0.00123815 </v>
   <v>       0.00205694      -0.00113550       0.00292223 </v>
   <v>       0.00017945       0.00060875      -0.00140730 </v>
   <v>       0.00100797      -0.00013058       0.00240366 </v>
   <v>      -0.00103009      -0.00109120      -0.00588991 </v>
   <v>       0.00099372       0.00335133      -0.00137358 </v>
   <v>      -0.00226772      -0.00260907      -0.00695509 </v>
   <v>      -0.00346604       0.00336956       0.00029597 </v>
   <v>      -0.00209873       0.00083377       0.00340825 </v>
   <v>      -0.00182104      -0.00141720       0.00090431 </v>
   <v>      -0.00018779       0.00191088      -0.00433547 </v>
   <v>       0.00001339       0.00135440       0.00010454 </v>
   <v>       0.00306699      -0.00474798      -0.00063924 </v>
   <v>       0.00202045      -0.00073366       0.00015630 </v>
   <v>      -0.00031969      -0.00235401      -0.00214051 </v>
   <v>      -0.00369481       0.00623374      -0.00179215 </v>
   <v>      -0.00234728      -0.00370412       0.00514494 </v>
   <v>       0.00074821      -0.00083659       0.00095835 </v>
   <v>      -0.00099855      -0.00096533      -0.00106378 </v>
   <v>       0.00186991      -0.00039503       0.00227801 </v>
   <v>       0.00321125      -0.00145227      -0.00244117 </v>
   <v>       0.00024872       0.00006510       0.58662678 </v>
   <v>       0.00094921      -0.00044012       0.58655321 </v>
   <v>      -0.00037763      -0.00019089      -0.58737074 </v>
   <v>      -0.00017486      -0.00005175      -0.58640523 </v>
   <v>       0.00060008       0.00011124       0.58685617 </v>
   <v>      -0.00059802       0.00026523       0.58723918 </v>
   <v>      -0.00256475       0.00119841      -0.58408033 </v>
   <v>      -0.00325891      -0.00060774      -0.58514620 </v>
   <v>       0.00049618       0.00011615       0.58662573 </v>
   <v>       0.00035453      -0.00022407      -0.58622523 </v>
   <v>      -0.00001433       0.00022013      -0.58673145 </v>
   <v>      -0.00014229       0.00021747       0.58623173 </v>
   <v>      -0.00004635      -0.00059234       0.58604268 </v>
   <v>       0.00002139       0.00188857       0.58621099 </v>
   <v>      -0.00015750       0.00075228      -0.58571843 </v>
   <v>       0.00040721       0.00008633       0.58602355 </v>
   <v>       0.00007645      -0.00008937      -0.58627247 </v>
   <v>      -0.00026880      -0.00167658      -0.58544233 </v>
   <v>      -0.00221331      -0.00049298      -0.57398085 </v>
   <v>      -0.00094673      -0.00146497       0.58561169 </v>
   <v>      -0.00065238       0.00012496       0.58737165 </v>
   <v>      -0.00031171      -0.00031977      -0.58680537 </v>
   <v>       0.00088899       0.00089511      -0.58664509 </v>
   <v>      -0.00058613      -0.00018681       0.58604430 </v>
   <v>      -0.00108180      -0.00037423       0.58601675 </v>
   <v>      -0.00063967       0.00006209       0.58090356 </v>
   <v>      -0.00180195      -0.00013556      -0.58617761 </v>
   <v>      -0.00010080      -0.00009705      -0.58622883 </v>
   <v>      -0.00110857      -0.00049188       0.58611653 </v>
   <v>       0.00116645      -0.00011309       0.58598274 </v>
   <v>       0.00232868      -0.00379937      -0.57438580 </v>
   <v>       0.00166593       0.00057716       0.58535670 </v>
   <v>      -0.00106029      -0.00048653      -0.58538170 </v>
   <v>      -0.00028588       0.00081931       0.58210446 </v>
   <v>      -0.00036219      -0.00021248      -0.58719891 </v>
   <v>      -0.00113998      -0.00165346      -0.58558846 </v>
   <v>      -0.00122114       0.00028746      -0.58644574 </v>
   <v>       0.00025770      -0.00001204       0.58644544 </v>
   <v>      -0.00005447      -0.00099432       0.58533819 </v>
   <v>       0.00010555       0.00059193      -0.58671553 </v>
   <v>       0.00081828       0.00016091       0.58572265 </v>
   <v>       0.00069093       0.00154150       0.58542382 </v>
   <v>       0.00291169      -0.00169834      -0.57159077 </v>
   <v>      -0.00130362       0.00006500       0.58425040 </v>
   <v>      -0.00021772      -0.00001063      -0.58651386 </v>
   <v>       0.00006059       0.00001706       0.58612340 </v>
   <v>       0.00090662       0.00171416      -0.58214348 </v>
   <v>      -0.00005077      -0.00017230       0.58700463 </v>
[...]
    <v>       0.60000000       0.60000000       0.21911674 </v>
    <v>       0.40000000       0.60000000       0.21911674 </v>
    <v>       0.39998284       0.00000047       0.65734720 </v>
    <v>       0.60000766       0.40001447       0.65735635 </v>
    <v>       0.40000000       0.20000000       0.21911674 </v>
    <v>       0.60000000       0.40000000       0.21911674 </v>
    <v>       0.39997929       0.19999714       0.65735193 </v>
    <v>       0.40000000       0.40000000       0.21911674 </v>
    <v>       0.60001626       0.19999723       0.65734832 </v>
    <v>       0.39997102       0.39999913       0.65731002 </v>
    <v>       0.60000000       0.20000000       0.21911674 </v>
    <v>       0.39999260       0.79998538       0.65734872 </v>
    <v>       0.39998989       0.59997316       0.65734171 </v>
    <v>       0.60002407       0.00000091       0.65734723 </v>
    <v>       0.40000000       0.80000000       0.21911674 </v>
    <v>       0.60000000       0.00000000       0.21911674 </v>
    <v>       0.40000000       0.00000000       0.21911674 </v>
    <v>       0.80000000       0.20000000       0.21911674 </v>
    <v>       0.20000184       0.00000244       0.65734782 </v>
    <v>       0.20000000       0.00000000       0.21911674 </v>
    <v>       0.00000000       0.00000000       0.21911674 </v>
    <v>       0.80001017       0.80001344       0.65734787 </v>
    <v>      -0.00001311      -0.00001046       0.65733836 </v>
    <v>       0.80000000       0.80000000       0.21911674 </v>
    <v>       0.00000000       0.20000000       0.21911674 </v>
    <v>      -0.00000917       0.19999432       0.65735176 </v>
    <v>       0.80000318       0.60000766       0.65734282 </v>
    <v>       0.00000000       0.40000000       0.21911674 </v>
    <v>       0.00000113       0.39998096       0.65734913 </v>
    <v>       0.00000000       0.60000000       0.21911674 </v>
    <v>       0.79999417       0.39999056       0.65734657 </v>
    <v>      -0.00000033       0.60002500       0.65734716 </v>
    <v>       0.80000000       0.60000000       0.21911674 </v>
    <v>       0.80000000       0.40000000       0.21911674 </v>
    <v>      -0.00000540       0.79999613       0.65734840 </v>
    <v>       0.00000000       0.80000000       0.21911674 </v>
    <v>       0.80000824       0.19999418       0.65734605 </v>
    <v>       0.93333333       0.06666667       0.16985794 </v>
    <v>       0.73333575       0.26666490       0.60909166 </v>
    <v>       0.73333164       0.26666590       0.70560738 </v>
    <v>       0.93333262       0.66666646       0.70560903 </v>
    <v>       0.93333564       0.66666711       0.60909217 </v>
    <v>       0.73333333       0.26666667       0.16985794 </v>
    <v>       0.73333333       0.26666667       0.26837554 </v>
    <v>       0.93333333       0.46666667       0.26837554 </v>
    <v>       0.73333529       0.06666713       0.60909178 </v>
    <v>       0.73333412       0.06666577       0.70560934 </v>
    <v>       0.93333372       0.06666755       0.70560847 </v>
    <v>       0.93333333       0.86666667       0.16985794 </v>
    <v>       0.73333333       0.06666667       0.16985794 </v>
    <v>       0.93333719       0.06667424       0.60909107 </v>
    <v>       0.73333333       0.06666667       0.26837554 </v>
    <v>       0.93333333       0.26666667       0.16985794 </v>
    <v>       0.93333342       0.26666631       0.70560925 </v>
    <v>       0.93333333       0.86666667       0.26837554 </v>
    <v>       0.73333333       0.46666667       0.26837554 </v>
    <v>       0.73333333       0.46666667       0.16985794 </v>
    <v>       0.73333333       0.86666667       0.16985794 </v>
    <v>       0.73333161       0.86666538       0.70560835 </v>
    <v>       0.73333333       0.86666667       0.26837554 </v>
    <v>       0.93333333       0.46666667       0.16985794 </v>
    <v>       0.73332883       0.86666517       0.60909074 </v>
    <v>       0.73333124       0.66666692       0.60908202 </v>
    <v>       0.73332680       0.66666612       0.70560942 </v>
    <v>       0.93333279       0.46666628       0.70560933 </v>
    <v>       0.73333333       0.66666667       0.16985794 </v>
    <v>       0.93333716       0.46666621       0.60909068 </v>
    <v>       0.73333333       0.66666667       0.26837554 </v>
    <v>       0.93334028       0.26666898       0.60908962 </v>
    <v>       0.93333333       0.26666667       0.26837554 </v>
    <v>       0.73333398       0.46666995       0.60908407 </v>
    <v>       0.73333165       0.46666581       0.70560767 </v>
    <v>       0.93333333       0.66666667       0.26837554 </v>
    <v>       0.93333333       0.06666667       0.26837554 </v>
    <v>       0.93333333       0.66666667       0.16985794 </v>
    <v>       0.53333115       0.86666268       0.60908958 </v>
    <v>       0.53333489       0.06666904       0.70560850 </v>
    <v>       0.53333333       0.86666667       0.16985794 </v>
    <v>       0.33333333       0.26666667       0.16985794 </v>
    <v>       0.33333333       0.26666667       0.26837554 </v>
    <v>       0.33332894       0.06666693       0.60908773 </v>
    <v>       0.33333256       0.06666662       0.70560884 </v>
    <v>       0.33333333       0.06666667       0.16985794 </v>
    <v>       0.33333333       0.06666667       0.26837554 </v>
    <v>       0.13333281       0.86666598       0.60909243 </v>
    <v>       0.13333355       0.86666749       0.70560883 </v>
    <v>       0.13333333       0.86666667       0.16985794 </v>
    <v>       0.13333333       0.86666667       0.26837554 </v>
    <v>       0.13333433       0.66666384       0.60909167 </v>
    <v>       0.13333238       0.66666580       0.70560897 </v>
    <v>       0.33333634       0.26667055       0.70561383 </v>
    <v>       0.13333333       0.66666667       0.16985794 </v>
    <v>       0.13334788       0.46666416       0.60908486 </v>
    <v>       0.13333263       0.46666538       0.70560890 </v>
    <v>       0.13333333       0.46666667       0.16985794 </v>
    <v>       0.13333333       0.46666667       0.26837554 </v>
    <v>       0.13334759       0.26668176       0.60907545 </v>
    <v>       0.13333568       0.26666374       0.70560785 </v>
    <v>       0.13333333       0.26666667       0.16985794 </v>
    <v>       0.13333333       0.26666667       0.26837554 </v>
    <v>       0.13333516       0.06667169       0.60908690 </v>
    <v>       0.13333341       0.06667086       0.70560865 </v>
    <v>       0.13333333       0.06666667       0.16985794 </v>
    <v>       0.13333333       0.06666667       0.26837554 </v>
    <v>       0.13333333       0.66666667       0.26837554 </v>
    <v>       0.33335094       0.26669238       0.60904921 </v>
    <v>       0.33333333       0.46666667       0.26837554 </v>
    <v>       0.33333333       0.46666667       0.16985794 </v>
    <v>       0.53333333       0.86666667       0.26837554 </v>
    <v>       0.53331637       0.66664722       0.60906292 </v>
    <v>       0.53333894       0.66666283       0.70560797 </v>
    <v>       0.53333333       0.66666667       0.16985794 </v>
    <v>       0.53333333       0.66666667       0.26837554 </v>
    <v>       0.53335249       0.46667634       0.60909379 </v>
    <v>       0.53333082       0.46666524       0.70561516 </v>
    <v>       0.53333333       0.46666667       0.16985794 </v>
    <v>       0.53333333       0.46666667       0.26837554 </v>
    <v>       0.53332046       0.26667447       0.60907302 </v>
    <v>       0.53333197       0.26667057       0.70560761 </v>
    <v>       0.53333333       0.26666667       0.16985794 </v>
    <v>       0.53333333       0.26666667       0.26837554 </v>
    <v>       0.53333519       0.06666526       0.60909112 </v>
    <v>       0.93333267       0.86666609       0.70560885 </v>
    <v>       0.53333333       0.06666667       0.16985794 </v>
    <v>       0.53333333       0.06666667       0.26837554 </v>
    <v>       0.33333294       0.86666338       0.60909168 </v>
    <v>       0.33333331       0.86666775       0.70560888 </v>
    <v>       0.33333333       0.86666667       0.16985794 </v>
    <v>       0.33333333       0.86666667       0.26837554 </v>
    <v>       0.33333302       0.66664954       0.60908212 </v>
    <v>       0.33333326       0.66666606       0.70561070 </v>
    <v>       0.33333333       0.66666667       0.16985794 </v>
    <v>       0.33333333       0.66666667       0.26837554 </v>
    <v>       0.33333759       0.46666165       0.60904018 </v>
    <v>       0.33333485       0.46666546       0.70561467 </v>
    <v>       0.53333529       0.86666743       0.70560861 </v>
    <v>       0.93333518       0.86666638       0.60909169 </v>
   </varray>
  </structure>
  <varray name="forces" >
   <v>      -0.05948112      -0.05080776      -0.07488826 </v>
   <v>       0.05215027      -0.11777890       0.04619398 </v>
   <v>      -0.04182676       0.04599926      -0.04538936 </v>
   <v>       0.04612932       0.03665231       0.04393086 </v>
   <v>       0.02385769       0.03020390      -0.00123628 </v>
   <v>      -0.01358016      -0.05171522       0.01488601 </v>
   <v>       0.05969396       0.06738774       0.06456342 </v>
   <v>       0.05929860      -0.02225631       0.08483429 </v>
   <v>      -0.03904830       0.10429910      -0.02294126 </v>
   <v>      -0.06998205      -0.06969417      -0.02069867 </v>
   <v>      -0.00331585       0.00026149       0.00775701 </v>
   <v>      -0.00755650      -0.01282507      -0.00472009 </v>
   <v>      -0.03718711       0.02484833      -0.03331062 </v>
   <v>       0.00502078       0.03061924       0.00120424 </v>
   <v>      -0.03888688      -0.03987738      -0.01060336 </v>
   <v>      -0.00209634      -0.03061704       0.01918472 </v>
   <v>      -0.00908326       0.04648923      -0.03139089 </v>
   <v>       0.03222727       0.03583295      -0.00036286 </v>
   <v>       0.00177398      -0.01472802       0.04139389 </v>
   <v>      -0.01090432      -0.02978633      -0.00405698 </v>
   <v>       0.02111972       0.01378295       0.02084772 </v>
   <v>      -0.00228516      -0.00020535      -0.00546081 </v>
   <v>      -0.00035192       0.00025104       0.00294334 </v>
   <v>       0.00103915      -0.00218816      -0.00056303 </v>
   <v>       0.00179175       0.00660352       0.00233945 </v>
   <v>       0.00184896       0.00089107       0.00368143 </v>
   <v>      -0.00174119      -0.00727920      -0.00570357 </v>
   <v>      -0.00346775      -0.00669187       0.00334203 </v>
   <v>      -0.00180604      -0.00001538       0.00307663 </v>
   <v>       0.00451402       0.00310294      -0.00992759 </v>
   <v>       0.00010076      -0.00002862       0.00002226 </v>
   <v>      -0.00570646       0.00143009      -0.00266793 </v>
   <v>       0.00132128       0.00010665       0.00091769 </v>
   <v>       0.00472213       0.00308382      -0.00804761 </v>
   <v>      -0.00111945      -0.01779188      -0.00842277 </v>
   <v>      -0.00054543       0.00219719       0.00399414 </v>
   <v>       0.00206808       0.00089469      -0.00071562 </v>
   <v>      -0.00026648      -0.00275514      -0.00425333 </v>
   <v>       0.00531905       0.00490718       0.01063384 </v>
   <v>      -0.01029638       0.00357770       0.00577823 </v>
   <v>      -0.00200898       0.00461480      -0.00907817 </v>
   <v>       0.01819717       0.01052455       0.00576127 </v>
   <v>      -0.00578434       0.00219205      -0.00469474 </v>
   <v>      -0.00010181       0.00071089      -0.00024954 </v>
   <v>      -0.00142961      -0.00191868      -0.00164640 </v>
   <v>       0.00176513      -0.00044688      -0.00137725 </v>
   <v>       0.00225575      -0.00483027      -0.00761060 </v>
   <v>      -0.00308749      -0.00082783       0.00019849 </v>
   <v>       0.00045035      -0.00148856       0.00341449 </v>
   <v>      -0.00156078      -0.00082429       0.00005629 </v>
   <v>       0.00401181      -0.00029291       0.00116517 </v>
   <v>       0.00207552      -0.00113869       0.00286940 </v>
   <v>      -0.00122357       0.00098600      -0.00080733 </v>
   <v>       0.00099123      -0.00006649       0.00232288 </v>
   <v>      -0.00103191      -0.00103242      -0.00593063 </v>
   <v>      -0.00093131      -0.00287905      -0.00129088 </v>
   <v>       0.00167147       0.00249191       0.00176165 </v>
   <v>      -0.00345397       0.00324859       0.00024037 </v>
   <v>      -0.00206750       0.00082541       0.00335805 </v>
   <v>       0.00429319       0.00310757      -0.00332523 </v>
   <v>      -0.00106071      -0.00017185      -0.00112722 </v>
   <v>       0.00003014       0.00132110       0.00004594 </v>
   <v>       0.00146921       0.00224134      -0.00139070 </v>
   <v>       0.00200255      -0.00074667       0.00008273 </v>
   <v>      -0.00098233       0.00132529      -0.00120279 </v>
   <v>       0.00193434      -0.00374239       0.00109574 </v>
   <v>      -0.00233496      -0.00368506       0.00502868 </v>
   <v>       0.00058606      -0.00080345       0.00088509 </v>
   <v>      -0.00054772       0.00108951       0.00126425 </v>
   <v>       0.00182880      -0.00040348       0.00220050 </v>
   <v>      -0.00024250       0.00060199       0.00063117 </v>
   <v>       0.00027685       0.00005751       0.58635746 </v>
   <v>       0.00146142      -0.00076135       0.00108721 </v>
   <v>       0.00157524      -0.00074706      -0.00327204 </v>
   <v>      -0.00239069       0.00058195      -0.00259527 </v>
   <v>      -0.00103313       0.00142489      -0.00035618 </v>
   <v>      -0.00061330       0.00026810       0.58696081 </v>
   <v>      -0.00252251       0.00118708      -0.58394228 </v>
   <v>      -0.00321576      -0.00060499      -0.58497594 </v>
   <v>       0.00232773       0.00029493      -0.00004253 </v>
   <v>       0.00202930       0.00075674      -0.00211706 </v>
   <v>       0.00081647      -0.00132461      -0.00357432 </v>
   <v>      -0.00012257       0.00023558       0.58598036 </v>
   <v>      -0.00005499      -0.00060286       0.58580515 </v>
   <v>      -0.00089152       0.00104179       0.00033003 </v>
   <v>      -0.00017631       0.00073814      -0.58552169 </v>
   <v>       0.00042725       0.00012462       0.58579530 </v>
   <v>       0.00000859      -0.00155498      -0.00157443 </v>
   <v>      -0.00024669      -0.00164231      -0.58523723 </v>
   <v>      -0.00214051      -0.00047293      -0.57418651 </v>
   <v>      -0.00096751      -0.00144752       0.58542853 </v>
   <v>      -0.00062354       0.00012841       0.58708261 </v>
   <v>       0.00068483       0.00102052      -0.00242378 </v>
   <v>       0.00092479       0.00092303      -0.58644534 </v>
   <v>      -0.00057046      -0.00018765       0.58578173 </v>
   <v>      -0.00030598       0.00056214       0.00099391 </v>
   <v>      -0.00022178       0.00218865       0.00135610 </v>
   <v>       0.00111550       0.00165537      -0.00428657 </v>
   <v>       0.00025176       0.00049131      -0.00571043 </v>
   <v>      -0.00109874      -0.00050730       0.58593985 </v>
   <v>       0.00169878       0.00057079       0.00299267 </v>
   <v>       0.00231713      -0.00374233      -0.57451523 </v>
   <v>       0.00168542      -0.00104075       0.00073887 </v>
   <v>      -0.00104719      -0.00044831      -0.58520844 </v>
   <v>      -0.00055723      -0.00037700       0.00206370 </v>
   <v>       0.00108862       0.00143581      -0.00402836 </v>
   <v>      -0.00111053      -0.00162358      -0.58541228 </v>
   <v>      -0.00119113       0.00025285      -0.58624365 </v>
   <v>       0.00024614      -0.00001345       0.58620201 </v>
   <v>       0.00073554      -0.00082749       0.00139849 </v>
   <v>       0.00086508      -0.00081595      -0.00509517 </v>
   <v>       0.00080809       0.00016735       0.58546808 </v>
   <v>       0.00068286       0.00154474       0.58527276 </v>
   <v>       0.00271112      -0.00178647      -0.57209262 </v>
   <v>      -0.00227758       0.00123745       0.00211395 </v>
   <v>      -0.00182309       0.00072181      -0.00262553 </v>
   <v>       0.00006128       0.00003090       0.58591911 </v>
   <v>       0.00090618       0.00162855      -0.58210230 </v>
   <v>      -0.00024923      -0.00013562       0.00088004 </v>
   <v>      -0.00052230       0.00019902      -0.00323620 </v>
   <v>      -0.00001424       0.00016003       0.58600640 </v>
   <v>      -0.00040085      -0.00006088      -0.58616740 </v>
   <v>      -0.00023919       0.00049180      -0.00011623 </v>
   <v>      -0.00035086       0.00041030      -0.00332319 </v>
   <v>      -0.00184372       0.00510838      -0.00984926 </v>
   <v>      -0.00064357      -0.00033660       0.58589579 </v>
   <v>       0.00318876      -0.00148734       0.00160108 </v>
   <v>       0.00220271      -0.00069504      -0.00449652 </v>
   <v>       0.00041511      -0.00058639       0.58569870 </v>
   <v>      -0.00108486      -0.00036988      -0.58501472 </v>
   <v>      -0.00020951       0.00093577       0.00113870 </v>
   <v>       0.00030488       0.00014306      -0.00327562 </v>
   <v>      -0.00008878      -0.00000906       0.58740414 </v>
   <v>      -0.00095496      -0.00068264      -0.58380197 </v>
   <v>      -0.00018041       0.00182908       0.00227505 </v>
   <v>      -0.00209353       0.00023232      -0.00599729 </v>
   <v>      -0.00042021       0.00039824       0.58653469 </v>
   <v>       0.00081331      -0.00019749      -0.58425782 </v>
   <v>      -0.00122152      -0.00027800      -0.58608080 </v>
   <v>      -0.00089348      -0.00209670      -0.00525063 </v>
   <v>       0.00508395       0.00361960      -0.56798218 </v>
   <v>       0.00195081      -0.00087073       0.58536820 </v>
   <v>      -0.00015349       0.00165736      -0.58508090 </v>
   <v>       0.00028742      -0.00021760      -0.00032679 </v>
   <v>      -0.00051688      -0.00040947      -0.00586976 </v>
   <v>       0.00139373      -0.00108748       0.58616875 </v>
   <v>       0.00037664      -0.00580148      -0.57222399 </v>
   <v>       0.00329396       0.00306477       0.00052621 </v>
   <v>      -0.00692112      -0.00093334      -0.00943600 </v>
   <v>      -0.00136544      -0.00024226       0.57854501 </v>
   <v>       0.02182360       0.00009368      -0.66275076 </v>
   <v>      -0.00165105       0.00142816       0.00556333 </v>
   <v>      -0.00024731      -0.00051639      -0.00596660 </v>
   <v>      -0.00003802       0.00122516       0.58431382 </v>
   <v>      -0.00191842       0.00309578      -0.56514611 </v>
   <v>       0.00093359      -0.00140959       0.00265559 </v>
   <v>       0.00001297       0.00094131      -0.00356020 </v>
   <v>      -0.00015612       0.00057215       0.58596998 </v>
   <v>      -0.00055863       0.00342074      -0.58370048 </v>
   <v>      -0.00047139      -0.00100664       0.00113244 </v>
   <v>      -0.00085078      -0.00021873      -0.00345099 </v>
   <v>      -0.00011414       0.00087434       0.58596727 </v>
   <v>      -0.00030759       0.00073425      -0.58654060 </v>
   <v>       0.00149495      -0.00239686       0.00077116 </v>
   <v>       0.00198286      -0.00257285      -0.00603717 </v>
   <v>       0.00038047      -0.00031929       0.58739105 </v>
   <v>      -0.00095551       0.00033405      -0.58596380 </v>
   <v>      -0.00306870       0.00007007      -0.01180275 </v>
   <v>       0.00394940      -0.00227210      -0.00777741 </v>
   <v>       0.00076921       0.00007822      -0.00297330 </v>
   <v>       0.00036917      -0.00101192      -0.00064844 </v>
  </varray>
  <varray name="stress" >
   <v>      -0.83707960      -0.01033834       0.02431700 </v>
   <v>      -0.01033835      -0.83134184       0.02137767 </v>
   <v>       0.02431699       0.02137772     -11.67308030 </v>
  </varray>
  <energy>
   <i name="e_fr_energy">  -1253.71899737 </i>
   <i name="e_wo_entrp">  -1253.65443245 </i>
   <i name="e_0_energy">     -0.12912984 </i>
  </energy>
