basalPlane                              
           1
    15.900000    0.000000    0.000000
    -7.950000   13.769804    0.000000
     0.000000    0.000000   32.380000
   C    Cr   H    Mo   S 
  10   1  10  50 100
Direct configuration=     1
   0.44899474  0.34431437  0.38109241
   0.48992389  0.31765206  0.41412604
   0.50524645  0.44695982  0.37553779
   0.58266168  0.48487813  0.40547213
   0.57264678  0.40386411  0.42954009
   0.33225082  0.35748484  0.47893801
   0.46038229  0.51503652  0.48803296
   0.42180418  0.41604516  0.50118863
   0.39547076  0.51745106  0.45831363
   0.31697449  0.42114927  0.45251255
   0.45099551  0.42204322  0.43778823
   0.62013454  0.40728549  0.45444525
   0.45299959  0.39051554  0.52450071
   0.28384708  0.27966028  0.48223938
   0.52801866  0.57711597  0.49841357
   0.40683834  0.58130404  0.44126661
   0.46117226  0.24477374  0.42651773
   0.38310316  0.29526416  0.36431231
   0.49136863  0.48896943  0.35282712
   0.63990511  0.56020892  0.40846119
   0.25722756  0.39949275  0.43089089
   0.60000000  0.60000000  0.65735022
   0.20000000  0.80000000  0.21911674
   0.20000000  0.60000000  0.65735022
   0.60000000  0.80000000  0.21911674
   0.20000000  0.60000000  0.21911674
   0.60000000  0.80000000  0.65735022
   0.20000000  0.40000000  0.21911674
   0.80000000  0.00000000  0.21911674
   0.20000000  0.20000000  0.65735022
   0.80000000  0.00000000  0.65735022
   0.20000000  0.20000000  0.21911674
   0.20000000  0.80000000  0.65735022
   0.20000000  0.40000000  0.65735022
   0.60000000  0.60000000  0.21911674
   0.40000000  0.60000000  0.21911674
   0.40000000  0.00000000  0.65735022
   0.60000000  0.40000000  0.65735022
   0.40000000  0.20000000  0.21911674
   0.60000000  0.40000000  0.21911674
   0.40000000  0.20000000  0.65735022
   0.40000000  0.40000000  0.21911674
   0.60000000  0.20000000  0.65735022
   0.40000000  0.40000000  0.65735022
   0.60000000  0.20000000  0.21911674
   0.40000000  0.80000000  0.65735022
   0.40000000  0.60000000  0.65735022
   0.60000000  0.00000000  0.65735022
   0.40000000  0.80000000  0.21911674
   0.60000000  0.00000000  0.21911674
   0.40000000  0.00000000  0.21911674
   0.80000000  0.20000000  0.21911674
   0.20000000  0.00000000  0.65735022
   0.20000000  0.00000000  0.21911674
   0.00000000  0.00000000  0.21911674
   0.80000000  0.80000000  0.65735022
   0.00000000  0.00000000  0.65735022
   0.80000000  0.80000000  0.21911674
   0.00000000  0.20000000  0.21911674
   0.00000000  0.20000000  0.65735022
   0.80000000  0.60000000  0.65735022
   0.00000000  0.40000000  0.21911674
   0.00000000  0.40000000  0.65735022
   0.00000000  0.60000000  0.21911674
   0.80000000  0.40000000  0.65735022
   0.00000000  0.60000000  0.65735022
   0.80000000  0.60000000  0.21911674
   0.80000000  0.40000000  0.21911674
   0.00000000  0.80000000  0.65735022
   0.00000000  0.80000000  0.21911674
   0.80000000  0.20000000  0.65735022
   0.93333333  0.06666667  0.16985794
   0.73333333  0.26666667  0.60809141
   0.73333333  0.26666667  0.70660902
   0.93333333  0.66666667  0.70660902
   0.93333333  0.66666667  0.60809141
   0.73333333  0.26666667  0.16985794
   0.73333333  0.26666667  0.26837554
   0.93333333  0.46666667  0.26837554
   0.73333333  0.06666667  0.60809141
   0.73333333  0.06666667  0.70660902
   0.93333333  0.06666667  0.70660902
   0.93333333  0.86666667  0.16985794
   0.73333333  0.06666667  0.16985794
   0.93333333  0.06666667  0.60809141
   0.73333333  0.06666667  0.26837554
   0.93333333  0.26666667  0.16985794
   0.93333333  0.26666667  0.70660902
   0.93333333  0.86666667  0.26837554
   0.73333333  0.46666667  0.26837554
   0.73333333  0.46666667  0.16985794
   0.73333333  0.86666667  0.16985794
   0.73333333  0.86666667  0.70660902
   0.73333333  0.86666667  0.26837554
   0.93333333  0.46666667  0.16985794
   0.73333333  0.86666667  0.60809141
   0.73333333  0.66666667  0.60809141
   0.73333333  0.66666667  0.70660902
   0.93333333  0.46666667  0.70660902
   0.73333333  0.66666667  0.16985794
   0.93333333  0.46666667  0.60809141
   0.73333333  0.66666667  0.26837554
   0.93333333  0.26666667  0.60809141
   0.93333333  0.26666667  0.26837554
   0.73333333  0.46666667  0.60809141
   0.73333333  0.46666667  0.70660902
   0.93333333  0.66666667  0.26837554
   0.93333333  0.06666667  0.26837554
   0.93333333  0.66666667  0.16985794
   0.53333333  0.86666667  0.60809141
   0.53333333  0.06666667  0.70660902
   0.53333333  0.86666667  0.16985794
   0.33333333  0.26666667  0.16985794
   0.33333333  0.26666667  0.26837554
   0.33333333  0.06666667  0.60809141
   0.33333333  0.06666667  0.70660902
   0.33333333  0.06666667  0.16985794
   0.33333333  0.06666667  0.26837554
   0.13333333  0.86666667  0.60809141
   0.13333333  0.86666667  0.70660902
   0.13333333  0.86666667  0.16985794
   0.13333333  0.86666667  0.26837554
   0.13333333  0.66666667  0.60809141
   0.13333333  0.66666667  0.70660902
   0.33333333  0.26666667  0.70660902
   0.13333333  0.66666667  0.16985794
   0.13333333  0.46666667  0.60809141
   0.13333333  0.46666667  0.70660902
   0.13333333  0.46666667  0.16985794
   0.13333333  0.46666667  0.26837554
   0.13333333  0.26666667  0.60809141
   0.13333333  0.26666667  0.70660902
   0.13333333  0.26666667  0.16985794
   0.13333333  0.26666667  0.26837554
   0.13333333  0.06666667  0.60809141
   0.13333333  0.06666667  0.70660902
   0.13333333  0.06666667  0.16985794
   0.13333333  0.06666667  0.26837554
   0.13333333  0.66666667  0.26837554
   0.33333333  0.26666667  0.60809141
   0.33333333  0.46666667  0.26837554
   0.33333333  0.46666667  0.16985794
   0.53333333  0.86666667  0.26837554
   0.53333333  0.66666667  0.60809141
   0.53333333  0.66666667  0.70660902
   0.53333333  0.66666667  0.16985794
   0.53333333  0.66666667  0.26837554
   0.53333333  0.46666667  0.60809141
   0.53333333  0.46666667  0.70660902
   0.53333333  0.46666667  0.16985794
   0.53333333  0.46666667  0.26837554
   0.53333333  0.26666667  0.60809141
   0.53333333  0.26666667  0.70660902
   0.53333333  0.26666667  0.16985794
   0.53333333  0.26666667  0.26837554
   0.53333333  0.06666667  0.60809141
   0.93333333  0.86666667  0.70660902
   0.53333333  0.06666667  0.16985794
   0.53333333  0.06666667  0.26837554
   0.33333333  0.86666667  0.60809141
   0.33333333  0.86666667  0.70660902
   0.33333333  0.86666667  0.16985794
   0.33333333  0.86666667  0.26837554
   0.33333333  0.66666667  0.60809141
   0.33333333  0.66666667  0.70660902
   0.33333333  0.66666667  0.16985794
   0.33333333  0.66666667  0.26837554
   0.33333333  0.46666667  0.60809141
   0.33333333  0.46666667  0.70660902
   0.53333333  0.86666667  0.70660902
   0.93333333  0.86666667  0.60809141
Direct configuration=     2
   0.44914704  0.34431874  0.38105128
   0.48998061  0.31770976  0.41405871
   0.50521221  0.44690974  0.37558757
   0.58262770  0.48481131  0.40544398
   0.57263682  0.40379009  0.42951685
   0.33224001  0.35755866  0.47894152
   0.46023872  0.51503085  0.48804479
   0.42174639  0.41606297  0.50117199
   0.39534318  0.51738998  0.45836967
   0.31698084  0.42127104  0.45257403
   0.45108115  0.42203042  0.43783856
   0.62010071  0.40726514  0.45445274
   0.45304476  0.39051969  0.52452095
   0.28388068  0.27966727  0.48225180
   0.52805671  0.57715052  0.49843252
   0.40680930  0.58126531  0.44127126
   0.46115339  0.24475906  0.42651747
   0.38309051  0.29528510  0.36427352
   0.49133830  0.48896230  0.35287037
   0.63989279  0.56019977  0.40846682
   0.25725687  0.39949198  0.43089773
   0.60001149  0.60001675  0.65735082
   0.20000000  0.80000000  0.21911674
   0.20000709  0.60000429  0.65734572
   0.60000000  0.80000000  0.21911674
   0.20000000  0.60000000  0.21911674
   0.60001225  0.80001075  0.65735061
   0.20000000  0.40000000  0.21911674
   0.80000000  0.00000000  0.21911674
   0.20000040  0.20001141  0.65735105
   0.80000230  0.00000267  0.65734856
   0.20000000  0.20000000  0.21911674
   0.19999422  0.79999986  0.65734793
   0.20001933  0.39999721  0.65734984
   0.60000000  0.60000000  0.21911674
   0.40000000  0.60000000  0.21911674
   0.39998501  0.00000041  0.65734758
   0.60000669  0.40001264  0.65735558
   0.40000000  0.20000000  0.21911674
   0.60000000  0.40000000  0.21911674
   0.39998191  0.19999750  0.65735171
   0.40000000  0.40000000  0.21911674
   0.60001420  0.19999758  0.65734856
   0.39997468  0.39999924  0.65731510
   0.60000000  0.20000000  0.21911674
   0.39999353  0.79998723  0.65734890
   0.39999117  0.59997655  0.65734279
   0.60002103  0.00000079  0.65734760
   0.40000000  0.80000000  0.21911674
   0.60000000  0.00000000  0.21911674
   0.40000000  0.00000000  0.21911674
   0.80000000  0.20000000  0.21911674
   0.20000161  0.00000213  0.65734812
   0.20000000  0.00000000  0.21911674
   0.00000000  0.00000000  0.21911674
   0.80000889  0.80001174  0.65734817
  -0.00001145 -0.00000914  0.65733985
   0.80000000  0.80000000  0.21911674
   0.00000000  0.20000000  0.21911674
  -0.00000801  0.19999503  0.65735156
   0.80000278  0.60000669  0.65734376
   0.00000000  0.40000000  0.21911674
   0.00000099  0.39998337  0.65734926
   0.00000000  0.60000000  0.21911674
   0.79999491  0.39999175  0.65734703
  -0.00000029  0.60002184  0.65734755
   0.80000000  0.60000000  0.21911674
   0.80000000  0.40000000  0.21911674
  -0.00000472  0.79999662  0.65734863
   0.00000000  0.80000000  0.21911674
   0.80000720  0.19999491  0.65734658
   0.93333333  0.06666667  0.16985794
   0.73333544  0.26666512  0.60896531
   0.73333185  0.26666600  0.70573390
   0.93333271  0.66666649  0.70573534
   0.93333535  0.66666706  0.60896577
   0.73333333  0.26666667  0.16985794
   0.73333333  0.26666667  0.26837554
   0.93333333  0.46666667  0.26837554
   0.73333504  0.06666707  0.60896542
   0.73333402  0.06666588  0.70573561
   0.93333368  0.06666744  0.70573485
   0.93333333  0.86666667  0.16985794
   0.73333333  0.06666667  0.16985794
   0.93333671  0.06667328  0.60896480
   0.73333333  0.06666667  0.26837554
   0.93333333  0.26666667  0.16985794
   0.93333341  0.26666635  0.70573554
   0.93333333  0.86666667  0.26837554
   0.73333333  0.46666667  0.26837554
   0.73333333  0.46666667  0.16985794
   0.73333333  0.86666667  0.16985794
   0.73333183  0.86666555  0.70573474
   0.73333333  0.86666667  0.26837554
   0.93333333  0.46666667  0.16985794
   0.73332940  0.86666536  0.60896452
   0.73333150  0.66666688  0.60895690
   0.73332763  0.66666619  0.70573568
   0.93333286  0.46666633  0.70573560
   0.73333333  0.66666667  0.16985794
   0.93333667  0.46666627  0.60896446
   0.73333333  0.66666667  0.26837554
   0.93333940  0.26666869  0.60896353
   0.93333333  0.26666667  0.26837554
   0.73333390  0.46666954  0.60895869
   0.73333186  0.46666592  0.70573416
   0.93333333  0.66666667  0.26837554
   0.93333333  0.06666667  0.26837554
   0.93333333  0.66666667  0.16985794
   0.53333143  0.86666318  0.60896350
   0.53333469  0.06666874  0.70573488
   0.53333333  0.86666667  0.16985794
   0.33333333  0.26666667  0.16985794
   0.33333333  0.26666667  0.26837554
   0.33332949  0.06666689  0.60896188
   0.33333265  0.06666663  0.70573518
   0.33333333  0.06666667  0.16985794
   0.33333333  0.06666667  0.26837554
   0.13333288  0.86666606  0.60896599
   0.13333352  0.86666739  0.70573516
   0.13333333  0.86666667  0.16985794
   0.13333333  0.86666667  0.26837554
   0.13333420  0.66666420  0.60896533
   0.13333250  0.66666591  0.70573529
   0.33333596  0.26667006  0.70573953
   0.13333333  0.66666667  0.16985794
   0.13334605  0.46666448  0.60895938
   0.13333272  0.46666554  0.70573523
   0.13333333  0.46666667  0.16985794
   0.13333333  0.46666667  0.26837554
   0.13334579  0.26667985  0.60895115
   0.13333538  0.26666411  0.70573431
   0.13333333  0.26666667  0.16985794
   0.13333333  0.26666667  0.26837554
   0.13333493  0.06667106  0.60896116
   0.13333340  0.06667033  0.70573501
   0.13333333  0.06666667  0.16985794
   0.13333333  0.06666667  0.26837554
   0.13333333  0.66666667  0.26837554
   0.33334872  0.26668913  0.60892823
   0.33333333  0.46666667  0.26837554
   0.33333333  0.46666667  0.16985794
   0.53333333  0.86666667  0.26837554
   0.53331851  0.66664967  0.60894021
   0.53333823  0.66666331  0.70573442
   0.53333333  0.66666667  0.16985794
   0.53333333  0.66666667  0.26837554
   0.53335007  0.46667512  0.60896718
   0.53333113  0.46666542  0.70574070
   0.53333333  0.46666667  0.16985794
   0.53333333  0.46666667  0.26837554
   0.53332209  0.26667348  0.60894903
   0.53333214  0.26667008  0.70573410
   0.53333333  0.26666667  0.16985794
   0.53333333  0.26666667  0.26837554
   0.53333496  0.06666543  0.60896484
   0.93333276  0.86666616  0.70573519
   0.53333333  0.06666667  0.16985794
   0.53333333  0.06666667  0.26837554
   0.33333299  0.86666379  0.60896534
   0.33333331  0.86666761  0.70573521
   0.33333333  0.86666667  0.16985794
   0.33333333  0.86666667  0.26837554
   0.33333306  0.66665170  0.60895698
   0.33333327  0.66666614  0.70573680
   0.33333333  0.66666667  0.16985794
   0.33333333  0.66666667  0.26837554
   0.33333705  0.46666229  0.60892034
   0.33333466  0.46666561  0.70574026
   0.53333504  0.86666734  0.70573497
   0.93333495  0.86666642  0.60896534
Direct configuration=     3
   0.44916906  0.34431937  0.38104533
   0.48998881  0.31771810  0.41404898
   0.50520726  0.44690249  0.37559476
   0.58262279  0.48480165  0.40543991
   0.57263538  0.40377939  0.42951349
   0.33223845  0.35756933  0.47894202
   0.46021797  0.51503003  0.48804651
   0.42173804  0.41606555  0.50116958
   0.39532473  0.51738115  0.45837777
   0.31698176  0.42128865  0.45258292
   0.45109353  0.42202857  0.43784584
   0.62009581  0.40726219  0.45445382
   0.45305129  0.39052029  0.52452388
   0.28388553  0.27966828  0.48225359
   0.52806221  0.57715551  0.49843526
   0.40680510  0.58125971  0.44127193
   0.46115066  0.24475694  0.42651743
   0.38308868  0.29528813  0.36426791
   0.49133391  0.48896127  0.35287663
   0.63989101  0.56019844  0.40846763
   0.25726111  0.39949187  0.43089872
   0.60001315  0.60001917  0.65735091
   0.20000000  0.80000000  0.21911674
   0.20000811  0.60000491  0.65734507
   0.60000000  0.80000000  0.21911674
   0.20000000  0.60000000  0.21911674
   0.60001402  0.80001230  0.65735067
   0.20000000  0.40000000  0.21911674
   0.80000000  0.00000000  0.21911674
   0.20000046  0.20001306  0.65735117
   0.80000263  0.00000305  0.65734832
   0.20000000  0.20000000  0.21911674
   0.19999339  0.79999984  0.65734759
   0.20002212  0.39999681  0.65734978
   0.60000000  0.60000000  0.21911674
   0.40000000  0.60000000  0.21911674
   0.39998284  0.00000047  0.65734720
   0.60000766  0.40001447  0.65735635
   0.40000000  0.20000000  0.21911674
   0.60000000  0.40000000  0.21911674
   0.39997929  0.19999714  0.65735193
   0.40000000  0.40000000  0.21911674
   0.60001626  0.19999723  0.65734832
   0.39997102  0.39999913  0.65731002
   0.60000000  0.20000000  0.21911674
   0.39999260  0.79998538  0.65734872
   0.39998989  0.59997316  0.65734171
   0.60002407  0.00000091  0.65734723
   0.40000000  0.80000000  0.21911674
   0.60000000  0.00000000  0.21911674
   0.40000000  0.00000000  0.21911674
   0.80000000  0.20000000  0.21911674
   0.20000184  0.00000244  0.65734782
   0.20000000  0.00000000  0.21911674
   0.00000000  0.00000000  0.21911674
   0.80001017  0.80001344  0.65734787
  -0.00001311 -0.00001046  0.65733836
   0.80000000  0.80000000  0.21911674
   0.00000000  0.20000000  0.21911674
  -0.00000917  0.19999432  0.65735176
   0.80000318  0.60000766  0.65734282
   0.00000000  0.40000000  0.21911674
   0.00000113  0.39998096  0.65734913
   0.00000000  0.60000000  0.21911674
   0.79999417  0.39999056  0.65734657
  -0.00000033  0.60002500  0.65734716
   0.80000000  0.60000000  0.21911674
   0.80000000  0.40000000  0.21911674
  -0.00000540  0.79999613  0.65734840
   0.00000000  0.80000000  0.21911674
   0.80000824  0.19999418  0.65734605
   0.93333333  0.06666667  0.16985794
   0.73333575  0.26666490  0.60909166
   0.73333164  0.26666590  0.70560738
   0.93333262  0.66666646  0.70560903
   0.93333564  0.66666711  0.60909217
   0.73333333  0.26666667  0.16985794
   0.73333333  0.26666667  0.26837554
   0.93333333  0.46666667  0.26837554
   0.73333529  0.06666713  0.60909178
   0.73333412  0.06666577  0.70560934
   0.93333372  0.06666755  0.70560847
   0.93333333  0.86666667  0.16985794
   0.73333333  0.06666667  0.16985794
   0.93333719  0.06667424  0.60909107
   0.73333333  0.06666667  0.26837554
   0.93333333  0.26666667  0.16985794
   0.93333342  0.26666631  0.70560925
   0.93333333  0.86666667  0.26837554
   0.73333333  0.46666667  0.26837554
   0.73333333  0.46666667  0.16985794
   0.73333333  0.86666667  0.16985794
   0.73333161  0.86666538  0.70560835
   0.73333333  0.86666667  0.26837554
   0.93333333  0.46666667  0.16985794
   0.73332883  0.86666517  0.60909074
   0.73333124  0.66666692  0.60908202
   0.73332680  0.66666612  0.70560942
   0.93333279  0.46666628  0.70560933
   0.73333333  0.66666667  0.16985794
   0.93333716  0.46666621  0.60909068
   0.73333333  0.66666667  0.26837554
   0.93334028  0.26666898  0.60908962
   0.93333333  0.26666667  0.26837554
   0.73333398  0.46666995  0.60908407
   0.73333165  0.46666581  0.70560767
   0.93333333  0.66666667  0.26837554
   0.93333333  0.06666667  0.26837554
   0.93333333  0.66666667  0.16985794
   0.53333115  0.86666268  0.60908958
   0.53333489  0.06666904  0.70560850
   0.53333333  0.86666667  0.16985794
   0.33333333  0.26666667  0.16985794
   0.33333333  0.26666667  0.26837554
   0.33332894  0.06666693  0.60908773
   0.33333256  0.06666662  0.70560884
   0.33333333  0.06666667  0.16985794
   0.33333333  0.06666667  0.26837554
   0.13333281  0.86666598  0.60909243
   0.13333355  0.86666749  0.70560883
   0.13333333  0.86666667  0.16985794
   0.13333333  0.86666667  0.26837554
   0.13333433  0.66666384  0.60909167
   0.13333238  0.66666580  0.70560897
   0.33333634  0.26667055  0.70561383
   0.13333333  0.66666667  0.16985794
   0.13334788  0.46666416  0.60908486
   0.13333263  0.46666538  0.70560890
   0.13333333  0.46666667  0.16985794
   0.13333333  0.46666667  0.26837554
   0.13334759  0.26668176  0.60907545
   0.13333568  0.26666374  0.70560785
   0.13333333  0.26666667  0.16985794
   0.13333333  0.26666667  0.26837554
   0.13333516  0.06667169  0.60908690
   0.13333341  0.06667086  0.70560865
   0.13333333  0.06666667  0.16985794
   0.13333333  0.06666667  0.26837554
   0.13333333  0.66666667  0.26837554
   0.33335094  0.26669238  0.60904921
   0.33333333  0.46666667  0.26837554
   0.33333333  0.46666667  0.16985794
   0.53333333  0.86666667  0.26837554
   0.53331637  0.66664722  0.60906292
   0.53333894  0.66666283  0.70560797
   0.53333333  0.66666667  0.16985794
   0.53333333  0.66666667  0.26837554
   0.53335249  0.46667634  0.60909379
   0.53333082  0.46666524  0.70561516
   0.53333333  0.46666667  0.16985794
   0.53333333  0.46666667  0.26837554
   0.53332046  0.26667447  0.60907302
   0.53333197  0.26667057  0.70560761
   0.53333333  0.26666667  0.16985794
   0.53333333  0.26666667  0.26837554
   0.53333519  0.06666526  0.60909112
   0.93333267  0.86666609  0.70560885
   0.53333333  0.06666667  0.16985794
   0.53333333  0.06666667  0.26837554
   0.33333294  0.86666338  0.60909168
   0.33333331  0.86666775  0.70560888
   0.33333333  0.86666667  0.16985794
   0.33333333  0.86666667  0.26837554
   0.33333302  0.66664954  0.60908212
   0.33333326  0.66666606  0.70561070
   0.33333333  0.66666667  0.16985794
   0.33333333  0.66666667  0.26837554
   0.33333759  0.46666165  0.60904018
   0.33333485  0.46666546  0.70561467
   0.53333529  0.86666743  0.70560861
   0.93333518  0.86666638  0.60909169
Direct configuration=     4
   0.44878242  0.34412106  0.38093028
   0.48992642  0.31726296  0.41416159
   0.50520449  0.44714623  0.37552549
   0.58288495  0.48493350  0.40549513
   0.57283011  0.40394179  0.42951313
   0.33209291  0.35737403  0.47899283
   0.46059977  0.51527472  0.48816169
   0.42184416  0.41595378  0.50132314
   0.39545472  0.51781102  0.45830509
   0.31658831  0.42094748  0.45252960
   0.45097449  0.42201108  0.43780861
   0.62004730  0.40722276  0.45444414
   0.45297576  0.39061007  0.52446845
   0.28396681  0.27978401  0.48225437
   0.52785696  0.57699492  0.49841894
   0.40674183  0.58113203  0.44130539
   0.46121569  0.24494423  0.42646843
   0.38327164  0.29543352  0.36427108
   0.49131770  0.48890777  0.35294614
   0.63979667  0.56008580  0.40846378
   0.25736263  0.39953893  0.43093583
   0.60000590  0.60001908  0.65734222
   0.20000000  0.80000000  0.21911674
   0.20000747  0.59999692  0.65734422
   0.60000000  0.80000000  0.21911674
   0.20000000  0.60000000  0.21911674
   0.59999550  0.79998596  0.65734187
   0.20000000  0.40000000  0.21911674
   0.80000000  0.00000000  0.21911674
   0.20002018  0.20002433  0.65733573
   0.80000297  0.00000302  0.65734839
   0.20000000  0.20000000  0.21911674
   0.19999771  0.80000025  0.65734905
   0.20004271  0.40000807  0.65733737
   0.60000000  0.60000000  0.21911674
   0.40000000  0.60000000  0.21911674
   0.39999081  0.00000367  0.65734613
   0.60000210  0.40000427  0.65734979
   0.40000000  0.20000000  0.21911674
   0.60000000  0.40000000  0.21911674
   0.39998129  0.20001376  0.65733801
   0.40000000  0.40000000  0.21911674
   0.60000220  0.20000526  0.65734102
   0.39997131  0.40000156  0.65730937
   0.60000000  0.20000000  0.21911674
   0.39999735  0.79998372  0.65734663
   0.39998815  0.59995549  0.65732994
   0.60001309 -0.00000197  0.65734755
   0.40000000  0.80000000  0.21911674
   0.60000000  0.00000000  0.21911674
   0.40000000  0.00000000  0.21911674
   0.80000000  0.20000000  0.21911674
   0.19999978  0.00000605  0.65734664
   0.20000000  0.00000000  0.21911674
   0.00000000  0.00000000  0.21911674
   0.80000194  0.80000286  0.65734587
  -0.00000331 -0.00000138  0.65734101
   0.80000000  0.80000000  0.21911674
   0.00000000  0.20000000  0.21911674
   0.00000991  0.20000552  0.65734666
   0.79999960  0.60000711  0.65734111
   0.00000000  0.40000000  0.21911674
   0.00000982  0.39998896  0.65734702
   0.00000000  0.60000000  0.21911674
   0.79999348  0.39999542  0.65734472
  -0.00000103  0.60001162  0.65734889
   0.80000000  0.60000000  0.21911674
   0.80000000  0.40000000  0.21911674
  -0.00000516  0.80000009  0.65735039
   0.00000000  0.80000000  0.21911674
   0.80000859  0.19999630  0.65734703
   0.93333333  0.06666667  0.16985794
   0.73333889  0.26666217  0.60909885
   0.73333519  0.26666320  0.70559659
   0.93332604  0.66666856  0.70559925
   0.93333487  0.66667225  0.60909723
   0.73333333  0.26666667  0.16985794
   0.73333333  0.26666667  0.26837554
   0.93333333  0.46666667  0.26837554
   0.73334317  0.06666821  0.60909735
   0.73334194  0.06666853  0.70560028
   0.93333394  0.06666278  0.70559726
   0.93333333  0.86666667  0.16985794
   0.73333333  0.06666667  0.16985794
   0.93333637  0.06667815  0.60909709
   0.73333333  0.06666667  0.26837554
   0.93333333  0.26666667  0.16985794
   0.93333067  0.26666067  0.70560108
   0.93333333  0.86666667  0.26837554
   0.73333333  0.46666667  0.26837554
   0.73333333  0.46666667  0.16985794
   0.73333333  0.86666667  0.16985794
   0.73333552  0.86666901  0.70559887
   0.73333333  0.86666667  0.26837554
   0.93333333  0.46666667  0.16985794
   0.73332868  0.86666704  0.60909782
   0.73333400  0.66667459  0.60908956
   0.73333308  0.66667195  0.70559704
   0.93333451  0.46666809  0.70559480
   0.73333333  0.66666667  0.16985794
   0.93334352  0.46666822  0.60910085
   0.73333333  0.66666667  0.26837554
   0.93334377  0.26666526  0.60909629
   0.93333333  0.26666667  0.26837554
   0.73333115  0.46666847  0.60909273
   0.73333748  0.46667101  0.70559564
   0.93333333  0.66666667  0.26837554
   0.93333333  0.06666667  0.26837554
   0.93333333  0.66666667  0.16985794
   0.53333197  0.86665950  0.60909726
   0.53333607  0.06666615  0.70559492
   0.53333333  0.86666667  0.16985794
   0.33333333  0.26666667  0.16985794
   0.33333333  0.26666667  0.26837554
   0.33332415  0.06667181  0.60909646
   0.33332818  0.06666943  0.70559905
   0.33333333  0.06666667  0.16985794
   0.33333333  0.06666667  0.26837554
   0.13333180  0.86666559  0.60909935
   0.13333227  0.86666832  0.70559811
   0.13333333  0.86666667  0.16985794
   0.13333333  0.86666667  0.26837554
   0.13333454  0.66666551  0.60909711
   0.13333204  0.66666720  0.70559804
   0.33334003  0.26668952  0.70559294
   0.13333333  0.66666667  0.16985794
   0.13335557  0.46665873  0.60909284
   0.13333844  0.46666284  0.70559612
   0.13333333  0.46666667  0.16985794
   0.13333333  0.46666667  0.26837554
   0.13334926  0.26668549  0.60908252
   0.13333713  0.26666439  0.70559703
   0.13333333  0.26666667  0.16985794
   0.13333333  0.26666667  0.26837554
   0.13333817  0.06667872  0.60909596
   0.13332739  0.06667185  0.70559361
   0.13333333  0.06666667  0.16985794
   0.13333333  0.06666667  0.26837554
   0.13333333  0.66666667  0.26837554
   0.33334442  0.26668534  0.60904585
   0.33333333  0.46666667  0.26837554
   0.33333333  0.46666667  0.16985794
   0.53333333  0.86666667  0.26837554
   0.53331649  0.66664556  0.60906731
   0.53333642  0.66666104  0.70559329
   0.53333333  0.66666667  0.16985794
   0.53333333  0.66666667  0.26837554
   0.53336804  0.46668765  0.60909929
   0.53330701  0.46666172  0.70559504
   0.53333333  0.46666667  0.16985794
   0.53333333  0.46666667  0.26837554
   0.53331771  0.26667985  0.60908693
   0.53333017  0.26666887  0.70559263
   0.53333333  0.26666667  0.16985794
   0.53333333  0.26666667  0.26837554
   0.53333557  0.06666028  0.60910078
   0.93333443  0.86666950  0.70559763
   0.53333333  0.06666667  0.16985794
   0.53333333  0.06666667  0.26837554
   0.33332969  0.86665970  0.60909899
   0.33333027  0.86666696  0.70559780
   0.33333333  0.86666667  0.16985794
   0.33333333  0.86666667  0.26837554
   0.33333346  0.66664045  0.60908868
   0.33333490  0.66665657  0.70559561
   0.33333333  0.66666667  0.16985794
   0.33333333  0.66666667  0.26837554
   0.33332856  0.46666172  0.60902617
   0.33334338  0.46665709  0.70559702
   0.53333782  0.86666756  0.70559830
   0.93333445  0.86666274  0.60909626
Direct configuration=     5
   0.44909429  0.34428102  0.38102309
   0.48997675  0.31763009  0.41407076
   0.50520672  0.44694963  0.37558137
   0.58267348  0.48482715  0.40545059
   0.57267304  0.40381080  0.42951342
   0.33221031  0.35753157  0.47895185
   0.46029180  0.51507735  0.48806878
   0.42175856  0.41604394  0.50119928
   0.39534987  0.51746428  0.45836371
   0.31690568  0.42122268  0.45257261
   0.45107051  0.42202519  0.43783864
   0.62008643  0.40725457  0.45445195
   0.45303668  0.39053765  0.52451316
   0.28390125  0.27969066  0.48225374
   0.52802252  0.57712446  0.49843211
   0.40679286  0.58123502  0.44127840
   0.46116323  0.24479315  0.42650796
   0.38312406  0.29531624  0.36426852
   0.49133078  0.48895093  0.35289007
   0.63987277  0.56017666  0.40846689
   0.25728074  0.39950097  0.43090590
   0.60001175  0.60001916  0.65734923
   0.20000000  0.80000000  0.21911674
   0.20000799  0.60000337  0.65734490
   0.60000000  0.80000000  0.21911674
   0.20000000  0.60000000  0.21911674
   0.60001044  0.80000721  0.65734897
   0.20000000  0.40000000  0.21911674
   0.80000000  0.00000000  0.21911674
   0.20000427  0.20001524  0.65734819
   0.80000270  0.00000305  0.65734833
   0.20000000  0.20000000  0.21911674
   0.19999422  0.79999992  0.65734788
   0.20002611  0.39999899  0.65734738
   0.60000000  0.60000000  0.21911674
   0.40000000  0.60000000  0.21911674
   0.39998438  0.00000109  0.65734699
   0.60000658  0.40001250  0.65735508
   0.40000000  0.20000000  0.21911674
   0.60000000  0.40000000  0.21911674
   0.39997968  0.20000035  0.65734924
   0.40000000  0.40000000  0.21911674
   0.60001354  0.19999879  0.65734691
   0.39997108  0.39999960  0.65730989
   0.60000000  0.20000000  0.21911674
   0.39999352  0.79998506  0.65734831
   0.39998955  0.59996974  0.65733944
   0.60002195  0.00000035  0.65734729
   0.40000000  0.80000000  0.21911674
   0.60000000  0.00000000  0.21911674
   0.40000000  0.00000000  0.21911674
   0.80000000  0.20000000  0.21911674
   0.20000145  0.00000314  0.65734759
   0.20000000  0.00000000  0.21911674
   0.00000000  0.00000000  0.21911674
   0.80000858  0.80001139  0.65734749
  -0.00001121 -0.00000871  0.65733887
   0.80000000  0.80000000  0.21911674
   0.00000000  0.20000000  0.21911674
  -0.00000548  0.19999648  0.65735077
   0.80000249  0.60000756  0.65734249
   0.00000000  0.40000000  0.21911674
   0.00000281  0.39998251  0.65734872
   0.00000000  0.60000000  0.21911674
   0.79999404  0.39999150  0.65734621
  -0.00000047  0.60002241  0.65734750
   0.80000000  0.60000000  0.21911674
   0.80000000  0.40000000  0.21911674
  -0.00000536  0.79999689  0.65734879
   0.00000000  0.80000000  0.21911674
   0.80000831  0.19999459  0.65734624
   0.93333333  0.06666667  0.16985794
   0.73333636  0.26666437  0.60909305
   0.73333233  0.26666538  0.70560529
   0.93333135  0.66666687  0.70560714
   0.93333549  0.66666811  0.60909315
   0.73333333  0.26666667  0.16985794
   0.73333333  0.26666667  0.26837554
   0.93333333  0.46666667  0.26837554
   0.73333681  0.06666734  0.60909286
   0.73333563  0.06666630  0.70560758
   0.93333377  0.06666663  0.70560630
   0.93333333  0.86666667  0.16985794
   0.73333333  0.06666667  0.16985794
   0.93333703  0.06667500  0.60909224
   0.73333333  0.06666667  0.26837554
   0.93333333  0.26666667  0.16985794
   0.93333289  0.26666522  0.70560767
   0.93333333  0.86666667  0.26837554
   0.73333333  0.46666667  0.26837554
   0.73333333  0.46666667  0.16985794
   0.73333333  0.86666667  0.16985794
   0.73333236  0.86666608  0.70560651
   0.73333333  0.86666667  0.26837554
   0.93333333  0.46666667  0.16985794
   0.73332880  0.86666553  0.60909211