  93  93   0   0
  0.3967126E+02  0.9570947E-09  0.1276126E-08  0.3488026E-08  0.5000000E-15
  1.000000000000000E-004
  CAR 
 basalPlane                              
      2.55011264    -20.66084754  301      0.29340354      1.00000000
    -20.661  0.0000E+00  0.0000E+00
    -20.583  0.0000E+00  0.0000E+00
    -20.506  0.0000E+00  0.0000E+00
    -20.429  0.0000E+00  0.0000E+00
    -20.351  0.0000E+00  0.0000E+00
    -20.274  0.0000E+00  0.0000E+00
    -20.197  0.1435E-18  0.1110E-19
    -20.119  0.4952E-15  0.3832E-16
    -20.042  0.8981E-12  0.6952E-13
    -19.965  0.5052E-09  0.3916E-10
    -19.887  0.8901E-07  0.6926E-08
    -19.810  0.4975E-05  0.3919E-06
    -19.732  0.8978E-04  0.7338E-05
    -19.655  0.5336E-03  0.4862E-04
    -19.578  0.1064E-02  0.1309E-03
    -19.500  0.7174E-03  0.1864E-03
    -19.423  0.1637E-03  0.1991E-03
    -19.346  0.3972E-04  0.2022E-03
    -19.268  0.2710E-03  0.2231E-03
    -19.191  0.8879E-03  0.2918E-03
    -19.113  0.9827E-03  0.3679E-03
    -19.036  0.3675E-03  0.3963E-03
    -18.959  0.4591E-04  0.3999E-03
    -18.881  0.1878E-05  0.4000E-03
    -18.804  0.2469E-07  0.4000E-03
    -18.727  0.1025E-09  0.4000E-03
    -18.649  0.1330E-12  0.4000E-03
    -18.572  0.5338E-16  0.4000E-03
    -18.494  0.0000E+00  0.4000E-03
    -18.417  0.0000E+00  0.4000E-03
    -18.340  0.0000E+00  0.4000E-03
    -18.262  0.0000E+00  0.4000E-03
    -18.185  0.0000E+00  0.4000E-03
    -18.108  0.0000E+00  0.4000E-03
    -18.030  0.0000E+00  0.4000E-03
    -17.953  0.0000E+00  0.4000E-03
    -17.876  0.0000E+00  0.4000E-03
    -17.798  0.0000E+00  0.4000E-03
    -17.721  0.0000E+00  0.4000E-03
    -17.643  0.0000E+00  0.4000E-03
    -17.566  0.0000E+00  0.4000E-03
    -17.489  0.0000E+00  0.4000E-03
    -17.411  0.0000E+00  0.4000E-03
    -17.334  0.0000E+00  0.4000E-03
    -17.257  0.0000E+00  0.4000E-03
    -17.179  0.0000E+00  0.4000E-03
    -17.102  0.0000E+00  0.4000E-03
    -17.024  0.0000E+00  0.4000E-03
    -16.947  0.0000E+00  0.4000E-03
    -16.870  0.0000E+00  0.4000E-03
    -16.792  0.0000E+00  0.4000E-03
    -16.715  0.0000E+00  0.4000E-03
    -16.638  0.0000E+00  0.4000E-03
    -16.560  0.0000E+00  0.4000E-03
    -16.483  0.0000E+00  0.4000E-03
    -16.406  0.0000E+00  0.4000E-03
    -16.328  0.0000E+00  0.4000E-03
    -16.251  0.0000E+00  0.4000E-03
    -16.173  0.8610E-18  0.4000E-03
    -16.096  0.3998E-14  0.4000E-03
    -16.019  0.5336E-11  0.4000E-03
    -15.941  0.2221E-08  0.4000E-03
    -15.864  0.2925E-06  0.4000E-03
    -15.787  0.1250E-04  0.4010E-03
    -15.709  0.1807E-03  0.4150E-03
    -15.632  0.9407E-03  0.4878E-03
    -15.554  0.1898E-02  0.6346E-03
    -15.477  0.1558E-02  0.7552E-03
    -15.400  0.5127E-03  0.7949E-03
    -15.322  0.6331E-04  0.7998E-03
    -15.245  0.2734E-05  0.8000E-03
    -15.168  0.3782E-06  0.8000E-03
    -15.090  0.1889E-04  0.8015E-03
    -15.013  0.3495E-03  0.8285E-03
    -14.935  0.2260E-02  0.1003E-02
    -14.858  0.5661E-02  0.1441E-02
    -14.781  0.6626E-02  0.1954E-02
    -14.703  0.4273E-02  0.2285E-02
    -14.626  0.1850E-02  0.2428E-02
    -14.549  0.2456E-02  0.2618E-02
    -14.471  0.4381E-02  0.2957E-02
    -14.394  0.5273E-02  0.3365E-02
    -14.317  0.6333E-02  0.3855E-02
    -14.239  0.5043E-02  0.4245E-02
    -14.162  0.1813E-02  0.4385E-02
    -14.084  0.8309E-03  0.4449E-02
    -14.007  0.2670E-02  0.4656E-02
    -13.930  0.5934E-02  0.5115E-02
    -13.852  0.1016E-01  0.5901E-02
    -13.775  0.1363E-01  0.6956E-02
    -13.698  0.1112E-01  0.7816E-02
    -13.620  0.7686E-02  0.8411E-02
    -13.543  0.8568E-02  0.9074E-02
    -13.465  0.9449E-02  0.9805E-02
    -13.388  0.7556E-02  0.1039E-01
    -13.311  0.4038E-02  0.1070E-01
    -13.233  0.1131E-02  0.1079E-01
    -13.156  0.1307E-03  0.1080E-01
    -13.079  0.5438E-05  0.1080E-01
    -13.001  0.7585E-07  0.1080E-01
    -12.924  0.3411E-09  0.1080E-01
    -12.846  0.4836E-12  0.1080E-01
    -12.769  0.2132E-15  0.1080E-01
    -12.692  0.0000E+00  0.1080E-01
    -12.614  0.0000E+00  0.1080E-01
    -12.537  0.0000E+00  0.1080E-01
    -12.460  0.0000E+00  0.1080E-01
    -12.382  0.0000E+00  0.1080E-01
    -12.305  0.0000E+00  0.1080E-01
    -12.228  0.0000E+00  0.1080E-01
    -12.150  0.0000E+00  0.1080E-01
    -12.073  0.0000E+00  0.1080E-01
    -11.995  0.0000E+00  0.1080E-01
    -11.918  0.0000E+00  0.1080E-01
    -11.841  0.0000E+00  0.1080E-01
    -11.763  0.0000E+00  0.1080E-01
    -11.686  0.0000E+00  0.1080E-01
    -11.609  0.0000E+00  0.1080E-01
    -11.531  0.0000E+00  0.1080E-01
    -11.454  0.0000E+00  0.1080E-01
    -11.376  0.0000E+00  0.1080E-01
    -11.299  0.0000E+00  0.1080E-01
    -11.222  0.1435E-16  0.1080E-01
    -11.144  0.4310E-13  0.1080E-01
    -11.067  0.3997E-10  0.1080E-01
    -10.990  0.1163E-07  0.1080E-01
    -10.912  0.1080E-05  0.1080E-01
    -10.835  0.3302E-04  0.1080E-01
    -10.758  0.3479E-03  0.1083E-01
    -10.680  0.1342E-02  0.1093E-01
    -10.603  0.2043E-02  0.1109E-01
    -10.525  0.1681E-02  0.1122E-01
    -10.448  0.2257E-02  0.1140E-01
    -10.371  0.3050E-02  0.1163E-01
    -10.293  0.1766E-02  0.1177E-01
    -10.216  0.4238E-03  0.1180E-01
    -10.139  0.3986E-03  0.1183E-01
    -10.061  0.9856E-03  0.1191E-01
     -9.984  0.8849E-03  0.1198E-01
     -9.906  0.2683E-03  0.1200E-01
     -9.829  0.2708E-04  0.1200E-01
     -9.752  0.8917E-06  0.1200E-01
     -9.674  0.9399E-08  0.1200E-01
     -9.597  0.3123E-10  0.1200E-01
     -9.520  0.3234E-13  0.1200E-01
     -9.442  0.1033E-16  0.1200E-01
     -9.365  0.0000E+00  0.1200E-01
     -9.287  0.0000E+00  0.1200E-01
     -9.210  0.0000E+00  0.1200E-01
     -9.133  0.0000E+00  0.1200E-01
     -9.055  0.0000E+00  0.1200E-01
     -8.978  0.0000E+00  0.1200E-01
     -8.901  0.0000E+00  0.1200E-01
     -8.823  0.0000E+00  0.1200E-01
     -8.746  0.0000E+00  0.1200E-01
     -8.669  0.0000E+00  0.1200E-01
     -8.591  0.0000E+00  0.1200E-01
     -8.514  0.0000E+00  0.1200E-01
     -8.436  0.0000E+00  0.1200E-01
     -8.359  0.0000E+00  0.1200E-01
     -8.282  0.2870E-18  0.1200E-01
     -8.204  0.1340E-14  0.1200E-01
     -8.127  0.2100E-11  0.1200E-01
     -8.050  0.1022E-08  0.1200E-01
     -7.972  0.1561E-06  0.1200E-01
     -7.895  0.7574E-05  0.1200E-01
     -7.817  0.1189E-03  0.1201E-01
     -7.740  0.6167E-03  0.1206E-01
     -7.663  0.1074E-02  0.1214E-01
     -7.585  0.6333E-03  0.1219E-01
     -7.508  0.1282E-03  0.1220E-01
     -7.431  0.8875E-04  0.1221E-01
     -7.353  0.8203E-03  0.1227E-01
     -7.276  0.3087E-02  0.1251E-01
     -7.198  0.4765E-02  0.1288E-01
     -7.121  0.3536E-02  0.1315E-01
     -7.044  0.2079E-02  0.1331E-01
     -6.966  0.2121E-02  0.1348E-01
     -6.889  0.3374E-02  0.1374E-01
     -6.812  0.6532E-02  0.1424E-01
     -6.734  0.1088E-01  0.1508E-01
     -6.657  0.1056E-01  0.1590E-01
     -6.580  0.7956E-02  0.1652E-01
     -6.502  0.1076E-01  0.1735E-01
     -6.425  0.1444E-01  0.1847E-01
     -6.347  0.1340E-01  0.1950E-01
     -6.270  0.9696E-02  0.2025E-01
     -6.193  0.5253E-02  0.2066E-01
     -6.115  0.1594E-02  0.2078E-01
     -6.038  0.2084E-03  0.2080E-01
     -5.961  0.1022E-04  0.2080E-01
     -5.883  0.8549E-05  0.2080E-01
     -5.806  0.1782E-03  0.2081E-01
     -5.728  0.1361E-02  0.2092E-01
     -5.651  0.4081E-02  0.2124E-01
     -5.574  0.5468E-02  0.2166E-01
     -5.496  0.5112E-02  0.2205E-01
     -5.419  0.9793E-02  0.2281E-01
     -5.342  0.1995E-01  0.2435E-01
     -5.264  0.2047E-01  0.2594E-01
     -5.187  0.9422E-02  0.2667E-01
     -5.110  0.2885E-02  0.2689E-01
     -5.032  0.3512E-02  0.2716E-01
     -4.955  0.3800E-02  0.2746E-01
     -4.877  0.1861E-02  0.2760E-01
     -4.800  0.2398E-02  0.2779E-01
     -4.723  0.7121E-02  0.2834E-01
     -4.645  0.1022E-01  0.2913E-01
     -4.568  0.8246E-02  0.2977E-01
     -4.491  0.7544E-02  0.3035E-01
     -4.413  0.8882E-02  0.3104E-01
     -4.336  0.9276E-02  0.3175E-01
     -4.258  0.6459E-02  0.3225E-01
     -4.181  0.3676E-02  0.3254E-01
     -4.104  0.4863E-02  0.3292E-01
     -4.026  0.6382E-02  0.3341E-01
     -3.949  0.6277E-02  0.3389E-01
     -3.872  0.5587E-02  0.3433E-01
     -3.794  0.4288E-02  0.3466E-01
     -3.717  0.2633E-02  0.3486E-01
     -3.639  0.2415E-02  0.3505E-01
     -3.562  0.2196E-02  0.3522E-01
     -3.485  0.3084E-02  0.3546E-01
     -3.407  0.5666E-02  0.3590E-01
     -3.330  0.9047E-02  0.3660E-01
     -3.253  0.1354E-01  0.3764E-01
     -3.175  0.1424E-01  0.3875E-01
     -3.098  0.1093E-01  0.3959E-01
     -3.021  0.8404E-02  0.4024E-01
     -2.943  0.7390E-02  0.4081E-01
     -2.866  0.8874E-02  0.4150E-01
     -2.788  0.1088E-01  0.4234E-01
     -2.711  0.8723E-02  0.4302E-01
     -2.634  0.4220E-02  0.4334E-01
     -2.556  0.2989E-02  0.4357E-01
     -2.479  0.6513E-02  0.4408E-01
     -2.402  0.9207E-02  0.4479E-01
     -2.324  0.7757E-02  0.4539E-01
     -2.247  0.5291E-02  0.4580E-01
     -2.169  0.5151E-02  0.4620E-01
     -2.092  0.6130E-02  0.4667E-01
     -2.015  0.5578E-02  0.4710E-01
     -1.937  0.5047E-02  0.4749E-01
     -1.860  0.3119E-02  0.4774E-01
     -1.783  0.1369E-02  0.4784E-01
     -1.705  0.2601E-02  0.4804E-01
     -1.628  0.4161E-02  0.4836E-01
     -1.550  0.2977E-02  0.4860E-01
     -1.473  0.2175E-02  0.4876E-01
     -1.396  0.2020E-02  0.4892E-01
     -1.318  0.8862E-03  0.4899E-01
     -1.241  0.1430E-03  0.4900E-01
     -1.164  0.8061E-05  0.4900E-01
     -1.086  0.1529E-06  0.4900E-01
     -1.009  0.9449E-09  0.4900E-01
     -0.932  0.1858E-11  0.4900E-01
     -0.854  0.1145E-14  0.4900E-01
     -0.777  0.2870E-18  0.4900E-01
     -0.699  0.0000E+00  0.4900E-01
     -0.622  0.0000E+00  0.4900E-01
     -0.545  0.0000E+00  0.4900E-01
     -0.467  0.0000E+00  0.4900E-01
     -0.390  0.0000E+00  0.4900E-01
     -0.313  0.0000E+00  0.4900E-01
     -0.235  0.0000E+00  0.4900E-01
     -0.158  0.2038E-15  0.4900E-01
     -0.080  0.4828E-12  0.4900E-01
     -0.003  0.3616E-09  0.4900E-01
      0.074  0.8669E-07  0.4900E-01
      0.152  0.6772E-05  0.4900E-01
      0.229  0.1766E-03  0.4901E-01
      0.306  0.1583E-02  0.4914E-01
      0.384  0.5066E-02  0.4953E-01
      0.461  0.6281E-02  0.5001E-01
      0.538  0.4960E-02  0.5040E-01
      0.616  0.7179E-02  0.5095E-01
      0.693  0.1300E-01  0.5196E-01
      0.771  0.1651E-01  0.5324E-01
      0.848  0.1449E-01  0.5436E-01
      0.925  0.1271E-01  0.5534E-01
      1.003  0.8144E-02  0.5597E-01
      1.080  0.2810E-02  0.5619E-01
      1.157  0.2193E-02  0.5636E-01
      1.235  0.6430E-02  0.5686E-01
      1.312  0.1088E-01  0.5770E-01
      1.390  0.1148E-01  0.5859E-01
      1.467  0.9710E-02  0.5934E-01
      1.544  0.6167E-02  0.5981E-01
      1.622  0.2097E-02  0.5998E-01
      1.699  0.2948E-03  0.6000E-01
      1.776  0.1494E-04  0.6000E-01
      1.854  0.2546E-06  0.6000E-01
      1.931  0.1401E-08  0.6000E-01
      2.009  0.2435E-11  0.6000E-01
      2.086  0.1319E-14  0.6000E-01
      2.163  0.0000E+00  0.6000E-01
      2.241  0.0000E+00  0.6000E-01
      2.318  0.0000E+00  0.6000E-01
      2.395  0.0000E+00  0.6000E-01
      2.473  0.0000E+00  0.6000E-01
      2.550  0.0000E+00  0.6000E-01
