       N       E                     dE             d eps       ncg     rms          rms(c)
DAV:   1     0.438127681567E+04    0.43813E+04   -0.18234E+05   612   0.112E+03
DAV:   2    -0.236614747539E+02   -0.44049E+04   -0.42547E+04   972   0.267E+02
DAV:   3    -0.677194688639E+03   -0.65353E+03   -0.64583E+03   720   0.114E+02
DAV:   4    -0.708796561620E+03   -0.31602E+02   -0.31415E+02   816   0.270E+01
DAV:   5    -0.709935443269E+03   -0.11389E+01   -0.11329E+01   876   0.560E+00    0.123E+02
DAV:   6    -0.690640608701E+03    0.19295E+02   -0.59300E+02   804   0.413E+01    0.790E+01
DAV:   7    -0.709163179178E+03   -0.18523E+02   -0.33099E+02   852   0.568E+01    0.634E+01
DAV:   8    -0.750528568025E+03   -0.41365E+02   -0.23027E+02   840   0.218E+01    0.762E+01
DAV:   9    -0.755097913593E+03   -0.45693E+01   -0.11443E+03   828   0.163E+01    0.731E+01
DAV:  10    -0.692625290661E+03    0.62473E+02   -0.27674E+02   756   0.131E+01    0.361E+01
DAV:  11    -0.662690705076E+03    0.29935E+02   -0.39273E+01   864   0.267E+01    0.265E+01
DAV:  12    -0.659535198529E+03    0.31555E+01   -0.19661E+01   888   0.873E+00    0.267E+01
DAV:  13    -0.659591517386E+03   -0.56319E-01   -0.14730E+00   804   0.159E+00    0.257E+01
DAV:  14    -0.659428027428E+03    0.16349E+00   -0.24364E-01   840   0.114E+00    0.211E+01
DAV:  15    -0.656974867623E+03    0.24532E+01   -0.44485E+00   924   0.672E+00    0.100E+01
DAV:  16    -0.658540368681E+03   -0.15655E+01   -0.17906E+01   912   0.676E+00    0.251E+01
DAV:  17    -0.657235888129E+03    0.13045E+01   -0.19413E+00   804   0.256E+00    0.165E+01
DAV:  18    -0.657102692033E+03    0.13320E+00   -0.11217E-01   804   0.597E-01    0.161E+01
DAV:  19    -0.656784828241E+03    0.31786E+00   -0.24713E-01   804   0.941E-01    0.143E+01
DAV:  20    -0.656277301535E+03    0.50753E+00   -0.39269E+00   828   0.176E+00    0.968E+00
DAV:  21    -0.656115245172E+03    0.16206E+00   -0.18304E-01   864   0.896E-01    0.843E+00
DAV:  22    -0.656018865212E+03    0.96380E-01   -0.35903E-02   876   0.417E-01    0.711E+00
DAV:  23    -0.655990770755E+03    0.28094E-01   -0.71440E-01   876   0.583E-01    0.455E+00
DAV:  24    -0.655962601554E+03    0.28169E-01   -0.10904E+00   852   0.525E-01    0.627E+00
DAV:  25    -0.655832308622E+03    0.13029E+00   -0.59383E-02   924   0.601E-01    0.295E+00
DAV:  26    -0.655761557676E+03    0.70751E-01   -0.48351E-02   936   0.561E-01    0.161E+00
DAV:  27    -0.655696759995E+03    0.64798E-01   -0.33107E-02   852   0.332E-01    0.751E-01
DAV:  28    -0.655658446098E+03    0.38314E-01   -0.10531E-02   912   0.356E-01    0.103E+00
DAV:  29    -0.655597879783E+03    0.60566E-01   -0.62307E-02   924   0.426E-01    0.724E-01
DAV:  30    -0.655598871097E+03   -0.99131E-03   -0.11614E-02   708   0.131E-01    0.650E-01
DAV:  31    -0.655599924125E+03   -0.10530E-02   -0.50567E-04   780   0.385E-02    0.606E-01
DAV:  32    -0.655601940819E+03   -0.20167E-02   -0.25611E-02   804   0.164E-01    0.136E+00
DAV:  33    -0.655601164051E+03    0.77677E-03   -0.33258E-03   672   0.543E-02    0.111E+00
DAV:  34    -0.655624191101E+03   -0.23027E-01   -0.12783E-01   816   0.264E-01    0.222E+00
DAV:  35    -0.655610845108E+03    0.13346E-01   -0.11094E-02   840   0.186E-01    0.112E+00
DAV:  36    -0.655611583212E+03   -0.73810E-03   -0.11325E-03   696   0.533E-02    0.126E+00
DAV:  37    -0.655611011753E+03    0.57146E-03   -0.12442E-04   504   0.183E-02    0.119E+00
DAV:  38    -0.655609989681E+03    0.10221E-02   -0.86114E-04   636   0.465E-02    0.104E+00
DAV:  39    -0.655606963908E+03    0.30258E-02   -0.16132E-02   912   0.152E-01    0.494E-01
DAV:  40    -0.655607232197E+03   -0.26829E-03   -0.12248E-03   756   0.557E-02    0.486E-01
DAV:  41    -0.655607496476E+03   -0.26428E-03   -0.55112E-04   456   0.290E-02    0.560E-01
DAV:  42    -0.655607164707E+03    0.33177E-03   -0.28658E-04   516   0.239E-02    0.605E-01
DAV:  43    -0.655605392477E+03    0.17722E-02   -0.36817E-04   540   0.235E-02    0.491E-01
DAV:  44    -0.655603814576E+03    0.15779E-02   -0.34626E-04   528   0.193E-02    0.391E-01
DAV:  45    -0.655602757571E+03    0.10570E-02   -0.12948E-04   516   0.175E-02    0.395E-01
DAV:  46    -0.655600142642E+03    0.26149E-02   -0.44391E-03   792   0.650E-02    0.236E-01
DAV:  47    -0.655599787837E+03    0.35480E-03   -0.64016E-04   684   0.369E-02    0.144E-01
DAV:  48    -0.655599998182E+03   -0.21035E-03   -0.40457E-04   552   0.282E-02    0.223E-01
DAV:  49    -0.655600114083E+03   -0.11590E-03   -0.72947E-05   432   0.150E-02    0.223E-01
DAV:  50    -0.655600085953E+03    0.28130E-04   -0.34175E-05   372   0.113E-02
   1 F= -.67106671E+03 E0= -.67100446E+03  d E =-.671067E+03
       N       E                     dE             d eps       ncg     rms          rms(c)
DAV:   1    -0.655664287404E+03   -0.64173E-01   -0.25871E+01   624   0.759E+00    0.422E+00
DAV:   2    -0.655983145780E+03   -0.31886E+00   -0.23205E+00   876   0.269E+00    0.566E+00
DAV:   3    -0.656130559691E+03   -0.14741E+00   -0.61658E+00   876   0.460E+00    0.594E+00
DAV:   4    -0.655775553149E+03    0.35501E+00   -0.91797E-01   804   0.219E+00    0.270E+00
DAV:   5    -0.655842230411E+03   -0.66677E-01   -0.15744E+00   876   0.119E+00    0.336E+00
DAV:   6    -0.655804360152E+03    0.37870E-01   -0.34966E-02   768   0.321E-01    0.321E+00
DAV:   7    -0.655812179895E+03   -0.78197E-02   -0.35535E-03   888   0.112E-01    0.328E+00
DAV:   8    -0.655807069333E+03    0.51106E-02   -0.11939E-03   792   0.679E-02    0.325E+00
DAV:   9    -0.655768816923E+03    0.38252E-01   -0.86773E-03   960   0.269E-01    0.244E+00
DAV:  10    -0.655807668619E+03   -0.38852E-01   -0.90982E-01   960   0.846E-01    0.333E+00
DAV:  11    -0.655763079718E+03    0.44589E-01   -0.33184E-02   780   0.435E-01    0.845E-01
DAV:  12    -0.655763137143E+03   -0.57425E-04   -0.87282E-03   840   0.155E-01    0.167E+00
DAV:  13    -0.655752994014E+03    0.10143E-01   -0.31732E-02   960   0.200E-01    0.591E-01
DAV:  14    -0.655752106583E+03    0.88743E-03   -0.68444E-03   792   0.949E-02    0.334E-01
DAV:  15    -0.655751486676E+03    0.61991E-03   -0.53111E-03   792   0.662E-02    0.360E-01
DAV:  16    -0.655751305552E+03    0.18112E-03   -0.25690E-03   564   0.428E-02    0.151E-01
DAV:  17    -0.655751256920E+03    0.48632E-04   -0.11711E-03   408   0.330E-02    0.208E-01
DAV:  18    -0.655751149558E+03    0.10736E-03   -0.14799E-04   420   0.195E-02    0.114E-01
DAV:  19    -0.655751139195E+03    0.10363E-04   -0.57450E-05   408   0.153E-02
   2 F= -.67124322E+03 E0= -.67118056E+03  d E =-.176512E+00
       N       E                     dE             d eps       ncg     rms          rms(c)
DAV:   1    -0.655753472553E+03   -0.23230E-02   -0.11385E-01   624   0.507E-01    0.229E-01
DAV:   2    -0.655754514613E+03   -0.10421E-02   -0.11699E-02   816   0.142E-01    0.511E-01
DAV:   3    -0.655756748610E+03   -0.22340E-02   -0.31140E-02   804   0.197E-01    0.110E+00
DAV:   4    -0.655754198020E+03    0.25506E-02   -0.70461E-03   672   0.129E-01    0.207E-01
DAV:   5    -0.655754064042E+03    0.13398E-03   -0.55928E-04   648   0.550E-02    0.146E-01
DAV:   6    -0.655753864122E+03    0.19992E-03   -0.21391E-04   528   0.317E-02    0.415E-02
DAV:   7    -0.655753851276E+03    0.12846E-04   -0.14631E-04   444   0.246E-02
   3 F= -.67124415E+03 E0= -.67118186E+03  d E =-.177440E+00
       N       E                     dE             d eps       ncg     rms          rms(c)
DAV:   1    -0.655546890622E+03    0.20697E+00   -0.27852E+01   600   0.741E+00    0.337E+00
DAV:   2    -0.656082700522E+03   -0.53581E+00   -0.43592E+00   888   0.330E+00    0.669E+00
DAV:   3    -0.655733278315E+03    0.34942E+00   -0.28292E+00   888   0.444E+00    0.436E+00
DAV:   4    -0.655688787697E+03    0.44491E-01   -0.16648E+00   828   0.157E+00    0.363E+00
DAV:   5    -0.655647540780E+03    0.41247E-01   -0.97445E-01   936   0.831E-01    0.250E+00
DAV:   6    -0.655641494932E+03    0.60458E-02   -0.30007E-01   816   0.443E-01    0.255E+00
DAV:   7    -0.655691523472E+03   -0.50029E-01   -0.64756E-01   864   0.594E-01    0.330E+00
DAV:   8    -0.655662380680E+03    0.29143E-01   -0.14680E-02   876   0.288E-01    0.288E+00
DAV:   9    -0.655625019002E+03    0.37362E-01   -0.78739E-03   948   0.280E-01    0.145E+00
DAV:  10    -0.655617861037E+03    0.71580E-02   -0.48514E-03   840   0.113E-01    0.848E-01
DAV:  11    -0.655617026429E+03    0.83461E-03   -0.78853E-04   756   0.466E-02    0.763E-01
DAV:  12    -0.655614485481E+03    0.25409E-02   -0.70630E-04   696   0.410E-02    0.500E-01
DAV:  13    -0.655612165173E+03    0.23203E-02   -0.28292E-03   768   0.465E-02    0.300E-01
DAV:  14    -0.655611984047E+03    0.18113E-03   -0.21048E-03   660   0.417E-02    0.578E-02
DAV:  15    -0.655612086081E+03   -0.10203E-03   -0.29375E-04   564   0.244E-02    0.623E-02
DAV:  16    -0.655612061049E+03    0.25031E-04   -0.15624E-04   372   0.144E-02
   4 F= -.67112266E+03 E0= -.67106008E+03  d E =0.121493E+00
       N       E                     dE             d eps       ncg     rms          rms(c)
DAV:   1    -0.655756527610E+03   -0.14444E+00   -0.12648E+01   600   0.495E+00    0.212E+00
DAV:   2    -0.656096295350E+03   -0.33977E+00   -0.36109E+00   876   0.254E+00    0.527E+00
DAV:   3    -0.655819520842E+03    0.27677E+00   -0.87907E-01   852   0.215E+00    0.310E+00
DAV:   4    -0.655818852545E+03    0.66830E-03   -0.75916E-01   864   0.743E-01    0.255E+00
DAV:   5    -0.655795920026E+03    0.22933E-01   -0.27689E-01   840   0.282E-01    0.143E+00
DAV:   6    -0.655798314845E+03   -0.23948E-02   -0.24913E-01   840   0.322E-01    0.128E+00
DAV:   7    -0.655799608782E+03   -0.12939E-02   -0.36726E-01   828   0.320E-01    0.219E+00
DAV:   8    -0.655796897764E+03    0.27110E-02   -0.73014E-03   804   0.161E-01    0.180E+00
DAV:   9    -0.655792426622E+03    0.44711E-02   -0.24544E-03   852   0.891E-02    0.148E+00
DAV:  10    -0.655787184654E+03    0.52420E-02   -0.39347E-03   828   0.830E-02    0.726E-01
DAV:  11    -0.655785899516E+03    0.12851E-02   -0.91440E-04   756   0.475E-02    0.614E-01
DAV:  12    -0.655784627125E+03    0.12724E-02   -0.51383E-04   552   0.300E-02    0.325E-01
DAV:  13    -0.655784154776E+03    0.47235E-03   -0.27419E-04   456   0.248E-02    0.147E-01
DAV:  14    -0.655783994532E+03    0.16024E-03   -0.10847E-04   444   0.195E-02    0.250E-02
DAV:  15    -0.655783987461E+03    0.70709E-05   -0.35962E-05   336   0.126E-02
   5 F= -.67128066E+03 E0= -.67121831E+03  d E =-.365112E-01
       N       E                     dE             d eps       ncg     rms          rms(c)
DAV:   1    -0.655810470750E+03   -0.26476E-01   -0.69627E+00   600   0.376E+00    0.959E-01
DAV:   2    -0.655869597536E+03   -0.59127E-01   -0.33638E-01   852   0.843E-01    0.375E+00
DAV:   3    -0.655842303130E+03    0.27294E-01   -0.76651E-01   876   0.105E+00    0.238E+00
DAV:   4    -0.655830974325E+03    0.11329E-01   -0.40703E-01   828   0.540E-01    0.187E+00
DAV:   5    -0.655820804357E+03    0.10170E-01   -0.91145E-03   852   0.187E-01    0.699E-01
DAV:   6    -0.655819656633E+03    0.11477E-02   -0.90038E-03   888   0.140E-01    0.277E-01
DAV:   7    -0.655819919158E+03   -0.26252E-03   -0.12513E-02   828   0.111E-01    0.503E-01
DAV:   8    -0.655818769553E+03    0.11496E-02   -0.69261E-03   756   0.677E-02    0.122E-01
DAV:   9    -0.655818710183E+03    0.59370E-04   -0.43779E-04   600   0.382E-02
   6 F= -.67131669E+03 E0= -.67125415E+03  d E =-.360281E-01
       N       E                     dE             d eps       ncg     rms          rms(c)
DAV:   1    -0.655819610394E+03   -0.84084E-03   -0.60513E-01   600   0.111E+00    0.315E-01
DAV:   2    -0.655832391862E+03   -0.12781E-01   -0.69905E-02   864   0.325E-01    0.221E+00
DAV:   3    -0.655822924515E+03    0.94673E-02   -0.11542E-01   840   0.357E-01    0.808E-01
DAV:   4    -0.655822163429E+03    0.76109E-03   -0.26524E-02   816   0.150E-01    0.653E-01
DAV:   5    -0.655820773579E+03    0.13898E-02   -0.12349E-03   768   0.691E-02    0.413E-01
DAV:   6    -0.655820434244E+03    0.33934E-03   -0.19405E-03   684   0.565E-02    0.120E-01
DAV:   7    -0.655820334131E+03    0.10011E-03   -0.40074E-04   540   0.300E-02    0.307E-02
DAV:   8    -0.655820348200E+03   -0.14069E-04   -0.72182E-05   384   0.170E-02
   7 F= -.67131872E+03 E0= -.67125636E+03  d E =-.380568E-01
       N       E                     dE             d eps       ncg     rms          rms(c)
DAV:   1    -0.655842127897E+03   -0.21794E-01   -0.49032E+00   600   0.295E+00    0.920E-01
DAV:   2    -0.655865082332E+03   -0.22954E-01   -0.22045E-01   828   0.625E-01    0.242E+00
DAV:   3    -0.655889081105E+03   -0.23999E-01   -0.82738E-01   876   0.825E-01    0.288E+00
DAV:   4    -0.655858129096E+03    0.30952E-01   -0.37006E-01   840   0.620E-01    0.157E+00
DAV:   5    -0.655852301878E+03    0.58272E-02   -0.98866E-03   852   0.133E-01    0.452E-01
DAV:   6    -0.655850984656E+03    0.13172E-02   -0.81540E-03   876   0.144E-01    0.179E-01
DAV:   7    -0.655850944289E+03    0.40367E-04   -0.20142E-03   804   0.654E-02    0.136E-01
DAV:   8    -0.655850968057E+03   -0.23768E-04   -0.84058E-04   636   0.338E-02
   8 F= -.67134771E+03 E0= -.67128614E+03  d E =-.289926E-01
       N       E                     dE             d eps       ncg     rms          rms(c)
DAV:   1    -0.655853581117E+03   -0.26368E-02   -0.26076E+00   600   0.215E+00    0.662E-01
DAV:   2    -0.655861730990E+03   -0.81499E-02   -0.88863E-02   828   0.414E-01    0.113E+00
DAV:   3    -0.655886004931E+03   -0.24274E-01   -0.39068E-01   852   0.572E-01    0.267E+00
DAV:   4    -0.655863193293E+03    0.22812E-01   -0.29154E-01   816   0.513E-01    0.126E+00
DAV:   5    -0.655859611194E+03    0.35821E-02   -0.91237E-03   792   0.120E-01    0.485E-01
DAV:   6    -0.655858525323E+03    0.10859E-02   -0.38252E-03   852   0.102E-01    0.230E-01
DAV:   7    -0.655858674922E+03   -0.14960E-03   -0.15186E-03   768   0.548E-02    0.145E-01
DAV:   8    -0.655858390259E+03    0.28466E-03   -0.76381E-04   612   0.354E-02    0.114E-01
DAV:   9    -0.655858359009E+03    0.31251E-04   -0.72003E-05   372   0.170E-02
   9 F= -.67135395E+03 E0= -.67129211E+03  d E =-.352336E-01
       N       E                     dE             d eps       ncg     rms          rms(c)
DAV:   1    -0.655876224040E+03   -0.17834E-01   -0.20125E+00   600   0.186E+00    0.633E-01
DAV:   2    -0.655881957672E+03   -0.57336E-02   -0.67770E-02   828   0.371E-01    0.646E-01
DAV:   3    -0.655903236588E+03   -0.21279E-01   -0.25292E-01   840   0.450E-01    0.250E+00
DAV:   4    -0.655884806606E+03    0.18430E-01   -0.26614E-01   804   0.472E-01    0.123E+00
DAV:   5    -0.655882084234E+03    0.27224E-02   -0.89372E-03   792   0.111E-01    0.395E-01
DAV:   6    -0.655880977606E+03    0.11066E-02   -0.34417E-03   864   0.106E-01    0.123E-01
DAV:   7    -0.655881042065E+03   -0.64458E-04   -0.17888E-03   816   0.511E-02    0.183E-01
DAV:   8    -0.655880867646E+03    0.17442E-03   -0.77393E-04   528   0.331E-02    0.121E-01
DAV:   9    -0.655880858724E+03    0.89226E-05   -0.11419E-04   372   0.183E-02
  10 F= -.67137423E+03 E0= -.67131246E+03  d E =-.202799E-01
       N       E                     dE             d eps       ncg     rms          rms(c)
DAV:   1    -0.655884883383E+03   -0.40157E-02   -0.54326E+00   600   0.305E+00    0.103E+00
DAV:   2    -0.655906999378E+03   -0.22116E-01   -0.21813E-01   828   0.641E-01    0.207E+00
DAV:   3    -0.655949729642E+03   -0.42730E-01   -0.90383E-01   864   0.906E-01    0.310E+00
DAV:   4    -0.655905760427E+03    0.43969E-01   -0.40553E-01   828   0.766E-01    0.173E+00
DAV:   5    -0.655899572409E+03    0.61880E-02   -0.33481E-02   852   0.177E-01    0.414E-01
DAV:   6    -0.655898011738E+03    0.15607E-02   -0.77374E-03   876   0.183E-01    0.414E-01
DAV:   7    -0.655898450800E+03   -0.43906E-03   -0.24083E-03   816   0.765E-02    0.267E-01
DAV:   8    -0.655897330118E+03    0.11207E-02   -0.33821E-03   708   0.669E-02    0.104E-01
DAV:   9    -0.655897335093E+03   -0.49753E-05   -0.23015E-04   456   0.260E-02
  11 F= -.67138717E+03 E0= -.67132542E+03  d E =-.332178E-01
       N       E                     dE             d eps       ncg     rms          rms(c)
DAV:   1    -0.655914342469E+03   -0.17012E-01   -0.30428E+00   600   0.238E+00    0.666E-01
DAV:   2    -0.655930771444E+03   -0.16429E-01   -0.13211E-01   816   0.502E-01    0.220E+00
DAV:   3    -0.655936264731E+03   -0.54933E-02   -0.43396E-01   864   0.604E-01    0.217E+00
DAV:   4    -0.655923989808E+03    0.12275E-01   -0.22010E-01   828   0.386E-01    0.125E+00
DAV:   5    -0.655920449771E+03    0.35400E-02   -0.11351E-02   864   0.114E-01    0.317E-01
DAV:   6    -0.655919885156E+03    0.56461E-03   -0.41662E-03   840   0.124E-01    0.352E-01
DAV:   7    -0.655920081691E+03   -0.19654E-03   -0.11676E-03   792   0.526E-02    0.268E-01
DAV:   8    -0.655919525504E+03    0.55619E-03   -0.12514E-03   588   0.438E-02    0.178E-01
DAV:   9    -0.655919488145E+03    0.37359E-04   -0.11451E-04   408   0.200E-02
  12 F= -.67140681E+03 E0= -.67134501E+03  d E =-.196403E-01
       N       E                     dE             d eps       ncg     rms          rms(c)
DAV:   1    -0.655923225605E+03   -0.37001E-02   -0.25497E+00   600   0.218E+00    0.613E-01
DAV:   2    -0.655938809870E+03   -0.15584E-01   -0.11871E-01   816   0.467E-01    0.220E+00
DAV:   3    -0.655940871849E+03   -0.20620E-02   -0.37238E-01   864   0.562E-01    0.197E+00
DAV:   4    -0.655931581218E+03    0.92906E-02   -0.18647E-01   840   0.349E-01    0.118E+00
DAV:   5    -0.655928515900E+03    0.30653E-02   -0.82473E-03   816   0.109E-01    0.356E-01
DAV:   6    -0.655927804406E+03    0.71149E-03   -0.39097E-03   852   0.120E-01    0.265E-01
DAV:   7    -0.655927892032E+03   -0.87626E-04   -0.98563E-04   756   0.476E-02
  13 F= -.67141297E+03 E0= -.67135204E+03  d E =-.257973E-01
       N       E                     dE             d eps       ncg     rms          rms(c)
DAV:   1    -0.655942490899E+03   -0.14686E-01   -0.19616E+00   600   0.185E+00    0.491E-01
DAV:   2    -0.655969580863E+03   -0.27090E-01   -0.14211E-01   864   0.513E-01    0.304E+00
DAV:   3    -0.655951481132E+03    0.18100E-01   -0.32170E-01   864   0.562E-01    0.129E+00
DAV:   4    -0.655948199597E+03    0.32815E-02   -0.11079E-01   864   0.226E-01    0.837E-01
DAV:   5    -0.655945704141E+03    0.24955E-02   -0.53569E-03   804   0.103E-01    0.400E-01
DAV:   6    -0.655945208678E+03    0.49546E-03   -0.52588E-03   840   0.103E-01    0.303E-01
DAV:   7    -0.655945045772E+03    0.16291E-03   -0.10476E-03   696   0.424E-02    0.166E-01
DAV:   8    -0.655944986057E+03    0.59716E-04   -0.10473E-04   432   0.221E-02
  14 F= -.67142854E+03 E0= -.67136687E+03  d E =-.155681E-01
       N       E                     dE             d eps       ncg     rms          rms(c)
DAV:   1    -0.655947608439E+03   -0.25627E-02   -0.15818E+01   600   0.525E+00    0.126E+00
DAV:   2    -0.656020948199E+03   -0.73340E-01   -0.51725E-01   840   0.105E+00    0.394E+00
DAV:   3    -0.656015849220E+03    0.50990E-02   -0.13172E+00   876   0.120E+00    0.297E+00
DAV:   4    -0.655978380606E+03    0.37469E-01   -0.40963E-01   840   0.687E-01    0.190E+00
DAV:   5    -0.655976975978E+03    0.14046E-02   -0.26158E-01   912   0.367E-01    0.166E+00
DAV:   6    -0.655972584987E+03    0.43910E-02   -0.91241E-03   864   0.150E-01    0.126E+00
DAV:   7    -0.655971344658E+03    0.12403E-02   -0.10083E-02   828   0.128E-01    0.951E-01
DAV:   8    -0.655968578519E+03    0.27661E-02   -0.14064E-02   792   0.940E-02    0.407E-01
DAV:   9    -0.655968066599E+03    0.51192E-03   -0.29021E-03   804   0.656E-02    0.139E-01
DAV:  10    -0.655968067302E+03   -0.70306E-06   -0.36353E-04   636   0.282E-02
  15 F= -.67144745E+03 E0= -.67138528E+03  d E =-.344783E-01
       N       E                     dE             d eps       ncg     rms          rms(c)
DAV:   1    -0.655980211124E+03   -0.12145E-01   -0.12631E+00   600   0.143E+00    0.494E-01
DAV:   2    -0.655996197919E+03   -0.15987E-01   -0.93595E-02   876   0.409E-01    0.242E+00
DAV:   3    -0.655989925739E+03    0.62722E-02   -0.29358E-01   876   0.493E-01    0.153E+00
DAV:   4    -0.655984275307E+03    0.56504E-02   -0.92475E-02   816   0.221E-01    0.734E-01
DAV:   5    -0.655982770597E+03    0.15047E-02   -0.93902E-03   792   0.812E-02    0.190E-01
DAV:   6    -0.655982906320E+03   -0.13572E-03   -0.15905E-03   756   0.815E-02    0.429E-01
DAV:   7    -0.655982738796E+03    0.16752E-03   -0.35729E-04   600   0.347E-02    0.341E-01
DAV:   8    -0.655982438203E+03    0.30059E-03   -0.79947E-04   408   0.351E-02    0.179E-01
DAV:   9    -0.655982393941E+03    0.44263E-04   -0.11663E-04   396   0.177E-02
  16 F= -.67146069E+03 E0= -.67139843E+03  d E =-.132396E-01
       N       E                     dE             d eps       ncg     rms          rms(c)
DAV:   1    -0.655988022552E+03   -0.55843E-02   -0.11368E+01   600   0.428E+00    0.143E+00
DAV:   2    -0.656055640399E+03   -0.67618E-01   -0.45847E-01   852   0.101E+00    0.387E+00
DAV:   3    -0.656079211467E+03   -0.23571E-01   -0.17539E+00   888   0.136E+00    0.330E+00
DAV:   4    -0.656013945156E+03    0.65266E-01   -0.32944E-01   816   0.816E-01    0.132E+00
DAV:   5    -0.656016926644E+03   -0.29815E-02   -0.18082E-01   864   0.378E-01    0.170E+00
DAV:   6    -0.656011396910E+03    0.55297E-02   -0.54183E-02   840   0.135E-01    0.110E+00
DAV:   7    -0.656007796619E+03    0.36003E-02   -0.31444E-02   852   0.157E-01    0.240E-01
DAV:   8    -0.656007590172E+03    0.20645E-03   -0.27427E-03   840   0.954E-02    0.190E-01
DAV:   9    -0.656007528563E+03    0.61609E-04   -0.89748E-04   756   0.446E-02
  17 F= -.67148259E+03 E0= -.67142017E+03  d E =-.351388E-01
       N       E                     dE             d eps       ncg     rms          rms(c)
DAV:   1    -0.656025721385E+03   -0.18131E-01   -0.23893E+00   600   0.209E+00    0.762E-01
DAV:   2    -0.656031830375E+03   -0.61090E-02   -0.77844E-02   852   0.393E-01    0.387E-01
DAV:   3    -0.656036244267E+03   -0.44139E-02   -0.39986E-02   864   0.247E-01    0.140E+00
DAV:   4    -0.656031975723E+03    0.42685E-02   -0.57386E-02   828   0.209E-01    0.551E-01
DAV:   5    -0.656031372956E+03    0.60277E-03   -0.46088E-03   852   0.755E-02    0.177E-01
DAV:   6    -0.656031284742E+03    0.88213E-04   -0.17755E-03   876   0.704E-02    0.153E-01
DAV:   7    -0.656031526641E+03   -0.24190E-03   -0.13707E-03   696   0.453E-02    0.183E-01
DAV:   8    -0.656031160576E+03    0.36607E-03   -0.47775E-04   552   0.319E-02    0.826E-02
DAV:   9    -0.656031153619E+03    0.69565E-05   -0.16350E-04   384   0.220E-02
  18 F= -.67150475E+03 E0= -.67144220E+03  d E =-.221603E-01
       N       E                     dE             d eps       ncg     rms          rms(c)
DAV:   1    -0.656033827717E+03   -0.26671E-02   -0.49430E+00   600   0.300E+00    0.112E+00
DAV:   2    -0.656070152010E+03   -0.36324E-01   -0.24088E-01   888   0.780E-01    0.310E+00
DAV:   3    -0.656096282007E+03   -0.26130E-01   -0.12331E+00   876   0.100E+00    0.311E+00
DAV:   4    -0.656048014516E+03    0.48267E-01   -0.24160E-01   840   0.614E-01    0.794E-01
DAV:   5    -0.656049052861E+03   -0.10383E-02   -0.68229E-02   900   0.240E-01    0.127E+00
DAV:   6    -0.656046495693E+03    0.25572E-02   -0.26298E-03   864   0.895E-02    0.623E-01
DAV:   7    -0.656045655930E+03    0.83976E-03   -0.17988E-02   792   0.122E-01    0.210E-01
DAV:   8    -0.656044941489E+03    0.71444E-03   -0.17551E-03   780   0.747E-02    0.182E-01
DAV:   9    -0.656044882324E+03    0.59165E-04   -0.46858E-04   624   0.325E-02
  19 F= -.67151641E+03 E0= -.67145382E+03  d E =-.338277E-01
       N       E                     dE             d eps       ncg     rms          rms(c)
DAV:   1    -0.656054972893E+03   -0.10031E-01   -0.31017E+00   600   0.233E+00    0.738E-01
DAV:   2    -0.656062016712E+03   -0.70438E-02   -0.86736E-02   840   0.419E-01    0.624E-01
DAV:   3    -0.656090512643E+03   -0.28496E-01   -0.32013E-01   852   0.542E-01    0.277E+00
DAV:   4    -0.656062111696E+03    0.28401E-01   -0.20418E-01   804   0.444E-01    0.631E-01
DAV:   5    -0.656062361682E+03   -0.24999E-03   -0.34135E-02   840   0.129E-01    0.497E-01
DAV:   6    -0.656061183392E+03    0.11783E-02   -0.46720E-03   804   0.931E-02    0.426E-01
DAV:   7    -0.656061088687E+03    0.94705E-04   -0.13277E-03   768   0.528E-02    0.443E-01
DAV:   8    -0.656060629520E+03    0.45917E-03   -0.26855E-03   564   0.546E-02    0.136E-01
DAV:   9    -0.656060574149E+03    0.55371E-04   -0.20214E-04   480   0.247E-02
  20 F= -.67152924E+03 E0= -.67146648E+03  d E =-.128216E-01
       N       E                     dE             d eps       ncg     rms          rms(c)
DAV:   1    -0.656059442102E+03    0.11874E-02   -0.70300E+00   600   0.351E+00    0.111E+00
DAV:   2    -0.656081116023E+03   -0.21674E-01   -0.21782E-01   864   0.686E-01    0.187E+00
DAV:   3    -0.656142909887E+03   -0.61794E-01   -0.10908E+00   852   0.996E-01    0.335E+00
DAV:   4    -0.656074622990E+03    0.68287E-01   -0.20754E-01   816   0.733E-01    0.657E-01
DAV:   5    -0.656075191587E+03   -0.56860E-03   -0.55081E-02   888   0.231E-01    0.110E+00
DAV:   6    -0.656072797151E+03    0.23944E-02   -0.13180E-02   816   0.103E-01    0.351E-01
DAV:   7    -0.656073907050E+03   -0.11099E-02   -0.39151E-03   888   0.124E-01    0.370E-01
DAV:   8    -0.656072510474E+03    0.13966E-02   -0.29937E-03   744   0.718E-02    0.399E-01
DAV:   9    -0.656072236880E+03    0.27359E-03   -0.10197E-03   660   0.383E-02    0.160E-01
DAV:  10    -0.656072175381E+03    0.61499E-04   -0.54489E-04   564   0.275E-02
  21 F= -.67153654E+03 E0= -.67147376E+03  d E =-.201275E-01
       N       E                     dE             d eps       ncg     rms          rms(c)
DAV:   1    -0.656088483112E+03   -0.16246E-01   -0.45878E+00   600   0.269E+00    0.664E-01
DAV:   2    -0.656101648737E+03   -0.13166E-01   -0.12045E-01   816   0.493E-01    0.167E+00
DAV:   3    -0.656114338370E+03   -0.12690E-01   -0.40579E-01   864   0.535E-01    0.240E+00
DAV:   4    -0.656096191960E+03    0.18146E-01   -0.15502E-01   864   0.372E-01    0.638E-01
DAV:   5    -0.656096663883E+03   -0.47192E-03   -0.45973E-02   876   0.149E-01    0.701E-01
DAV:   6    -0.656096450186E+03    0.21370E-03   -0.44345E-03   852   0.110E-01    0.780E-01
DAV:   7    -0.656095191594E+03    0.12586E-02   -0.72732E-04   720   0.525E-02    0.531E-01
DAV:   8    -0.656094477958E+03    0.71364E-03   -0.35053E-03   612   0.695E-02    0.149E-01
DAV:   9    -0.656094425612E+03    0.52346E-04   -0.32817E-04   588   0.270E-02
  22 F= -.67155446E+03 E0= -.67149160E+03  d E =-.179203E-01
       N       E                     dE             d eps       ncg     rms          rms(c)
DAV:   1    -0.656096725033E+03   -0.22471E-02   -0.12860E+01   600   0.451E+00    0.110E+00
DAV:   2    -0.656126516017E+03   -0.29791E-01   -0.30022E-01   804   0.785E-01    0.209E+00
DAV:   3    -0.656171703912E+03   -0.45188E-01   -0.99467E-01   864   0.884E-01    0.325E+00
DAV:   4    -0.656117011680E+03    0.54692E-01   -0.23145E-01   852   0.671E-01    0.858E-01
DAV:   5    -0.656120634029E+03   -0.36223E-02   -0.11009E-01   888   0.267E-01    0.120E+00
DAV:   6    -0.656115807992E+03    0.48260E-02   -0.10463E-02   864   0.172E-01    0.930E-01
DAV:   7    -0.656113951735E+03    0.18563E-02   -0.75125E-03   900   0.135E-01    0.177E-01
DAV:   8    -0.656113333724E+03    0.61801E-03   -0.18939E-03   804   0.713E-02    0.998E-02
DAV:   9    -0.656113345659E+03   -0.11935E-04   -0.54038E-04   600   0.361E-02
  23 F= -.67156622E+03 E0= -.67150345E+03  d E =-.296762E-01
       N       E                     dE             d eps       ncg     rms          rms(c)
DAV:   1    -0.656124555227E+03   -0.11222E-01   -0.58490E+00   600   0.325E+00    0.886E-01
DAV:   2    -0.656140751518E+03   -0.16196E-01   -0.18105E-01   840   0.612E-01    0.142E+00
DAV:   3    -0.656192319459E+03   -0.51568E-01   -0.52278E-01   876   0.754E-01    0.402E+00
DAV:   4    -0.656136886365E+03    0.55433E-01   -0.42369E-02   828   0.549E-01    0.604E-01
DAV:   5    -0.656135381000E+03    0.15054E-02   -0.47784E-03   840   0.114E-01    0.894E-01
DAV:   6    -0.656134198610E+03    0.11824E-02   -0.49936E-03   792   0.938E-02    0.313E-01
DAV:   7    -0.656134652043E+03   -0.45343E-03   -0.24977E-03   816   0.992E-02    0.222E-01
DAV:   8    -0.656133869770E+03    0.78227E-03   -0.10194E-03   708   0.509E-02    0.123E-01
DAV:   9    -0.656133917121E+03   -0.47351E-04   -0.63974E-04   468   0.374E-02
  24 F= -.67158061E+03 E0= -.67151836E+03  d E =-.143898E-01
       N       E                     dE             d eps       ncg     rms          rms(c)
DAV:   1    -0.656135584639E+03   -0.17149E-02   -0.50854E-01   600   0.957E-01    0.289E-01
DAV:   2    -0.656140068191E+03   -0.44836E-02   -0.37699E-02   888   0.253E-01    0.119E+00
DAV:   3    -0.656139196515E+03    0.87168E-03   -0.77269E-02   876   0.240E-01    0.107E+00
DAV:   4    -0.656136638560E+03    0.25580E-02   -0.53152E-03   684   0.952E-02    0.119E-01
DAV:   5    -0.656136577473E+03    0.61087E-04   -0.64259E-04   612   0.442E-02
  25 F= -.67158146E+03 E0= -.67151959E+03  d E =-.152441E-01
       N       E                     dE             d eps       ncg     rms          rms(c)
DAV:   1    -0.656145740819E+03   -0.91023E-02   -0.49544E+00   600   0.295E+00    0.102E+00
DAV:   2    -0.656179969212E+03   -0.34228E-01   -0.31351E-01   912   0.739E-01    0.259E+00
DAV:   3    -0.656207482397E+03   -0.27513E-01   -0.92582E-01   852   0.917E-01    0.389E+00
DAV:   4    -0.656163478474E+03    0.44004E-01   -0.37045E-02   840   0.502E-01    0.585E-01
DAV:   5    -0.656157602991E+03    0.58755E-02   -0.63457E-02   828   0.187E-01    0.891E-01
DAV:   6    -0.656155966512E+03    0.16365E-02   -0.18950E-02   924   0.150E-01    0.557E-01
DAV:   7    -0.656155068519E+03    0.89799E-03   -0.76754E-03   792   0.763E-02    0.167E-01
DAV:   8    -0.656154839669E+03    0.22885E-03   -0.59221E-04   624   0.484E-02    0.548E-02
DAV:   9    -0.656154838091E+03    0.15785E-05   -0.13353E-04   396   0.206E-02
  26 F= -.67159422E+03 E0= -.67153186E+03  d E =-.127627E-01
       N       E                     dE             d eps       ncg     rms          rms(c)
DAV:   1    -0.656155981861E+03   -0.11422E-02   -0.12144E+00   600   0.146E+00    0.501E-01
DAV:   2    -0.656159084744E+03   -0.31029E-02   -0.37936E-02   852   0.277E-01    0.457E-01
DAV:   3    -0.656175288880E+03   -0.16204E-01   -0.15647E-01   840   0.362E-01    0.233E+00
DAV:   4    -0.656159859335E+03    0.15430E-01   -0.13111E-01   792   0.339E-01    0.622E-01
DAV:   5    -0.656158684462E+03    0.11749E-02   -0.18173E-03   780   0.810E-02    0.156E-01
DAV:   6    -0.656158363037E+03    0.32142E-03   -0.81590E-04   768   0.524E-02    0.799E-02
DAV:   7    -0.656158403215E+03   -0.40178E-04   -0.36590E-04   660   0.328E-02
  27 F= -.67159510E+03 E0= -.67153308E+03  d E =-.136352E-01
       N       E                     dE             d eps       ncg     rms          rms(c)
DAV:   1    -0.656168062305E+03   -0.96993E-02   -0.41017E+00   600   0.257E+00    0.844E-01
DAV:   2    -0.656178272050E+03   -0.10210E-01   -0.12486E-01   876   0.494E-01    0.840E-01
DAV:   3    -0.656233506644E+03   -0.55235E-01   -0.28574E-01   828   0.666E-01    0.405E+00
DAV:   4    -0.656178447632E+03    0.55059E-01   -0.60386E-02   828   0.546E-01    0.409E-01
DAV:   5    -0.656177387124E+03    0.10605E-02   -0.46796E-03   840   0.126E-01    0.874E-01
DAV:   6    -0.656175894906E+03    0.14922E-02   -0.18732E-03   804   0.800E-02    0.449E-01
DAV:   7    -0.656175730035E+03    0.16487E-03   -0.25834E-03   840   0.909E-02    0.151E-01
DAV:   8    -0.656175633107E+03    0.96928E-04   -0.74913E-04   648   0.419E-02
  28 F= -.67160744E+03 E0= -.67154568E+03  d E =-.123478E-01
       N       E                     dE             d eps       ncg     rms          rms(c)
DAV:   1    -0.656163227234E+03    0.12503E-01   -0.17893E+01   600   0.537E+00    0.184E+00
DAV:   2    -0.656262745511E+03   -0.99518E-01   -0.10741E+00   900   0.133E+00    0.332E+00
DAV:   3    -0.656346583660E+03   -0.83838E-01   -0.16518E+00   828   0.163E+00    0.507E+00
DAV:   4    -0.656212101887E+03    0.13448E+00   -0.11757E-01   828   0.101E+00    0.123E+00
DAV:   5    -0.656199182371E+03    0.12920E-01   -0.20241E-02   816   0.267E-01    0.136E+00
DAV:   6    -0.656201472610E+03   -0.22902E-02   -0.33173E-02   792   0.137E-01    0.828E-01
DAV:   7    -0.656200654286E+03    0.81832E-03   -0.50661E-02   852   0.258E-01    0.112E+00
DAV:   8    -0.656196677544E+03    0.39767E-02   -0.18530E-02   816   0.115E-01    0.451E-01
DAV:   9    -0.656196083827E+03    0.59372E-03   -0.37697E-03   840   0.964E-02    0.243E-01
DAV:  10    -0.656195942411E+03    0.14142E-03   -0.32701E-04   552   0.317E-02    0.103E-01
DAV:  11    -0.656195854749E+03    0.87662E-04   -0.53047E-05   348   0.176E-02
  29 F= -.67161759E+03 E0= -.67155643E+03  d E =-.224976E-01
       N       E                     dE             d eps       ncg     rms          rms(c)
DAV:   1    -0.656210271594E+03   -0.14329E-01   -0.94728E+00   600   0.406E+00    0.893E-01
DAV:   2    -0.656228711526E+03   -0.18440E-01   -0.19924E-01   804   0.644E-01    0.162E+00
DAV:   3    -0.656260967612E+03   -0.32256E-01   -0.58720E-01   864   0.654E-01    0.301E+00
DAV:   4    -0.656227197442E+03    0.33770E-01   -0.32458E-01   840   0.578E-01    0.135E+00
DAV:   5    -0.656223717308E+03    0.34801E-02   -0.77739E-03   840   0.174E-01    0.404E-01
DAV:   6    -0.656222986931E+03    0.73038E-03   -0.15112E-02   924   0.207E-01    0.663E-01
DAV:   7    -0.656221757296E+03    0.12296E-02   -0.42629E-03   768   0.708E-02    0.482E-01
DAV:   8    -0.656221152378E+03    0.60492E-03   -0.15550E-03   768   0.666E-02    0.114E-01
DAV:   9    -0.656221142066E+03    0.10312E-04   -0.19249E-04   540   0.242E-02
  30 F= -.67163746E+03 E0= -.67157577E+03  d E =-.198613E-01
       N       E                     dE             d eps       ncg     rms          rms(c)
DAV:   1    -0.656223434545E+03   -0.22822E-02   -0.47672E+00   600   0.288E+00    0.629E-01
DAV:   2    -0.656233512558E+03   -0.10078E-01   -0.97829E-02   804   0.462E-01    0.133E+00
DAV:   3    -0.656248820105E+03   -0.15308E-01   -0.31091E-01   852   0.465E-01    0.245E+00
DAV:   4    -0.656232418631E+03    0.16401E-01   -0.20266E-01   840   0.366E-01    0.106E+00
DAV:   5    -0.656230075883E+03    0.23427E-02   -0.40401E-03   864   0.120E-01    0.310E-01
DAV:   6    -0.656229604293E+03    0.47159E-03   -0.52361E-03   876   0.139E-01    0.443E-01
DAV:   7    -0.656229483800E+03    0.12049E-03   -0.24664E-03   696   0.511E-02    0.379E-01
DAV:   8    -0.656229083679E+03    0.40012E-03   -0.15328E-03   600   0.350E-02    0.212E-01
DAV:   9    -0.656228995406E+03    0.88273E-04   -0.17408E-04   492   0.262E-02
  31 F= -.67164153E+03 E0= -.67158004E+03  d E =-.239362E-01
       N       E                     dE             d eps       ncg     rms          rms(c)
DAV:   1    -0.656234822708E+03   -0.57390E-02   -0.99709E+00   600   0.416E+00    0.109E+00
DAV:   2    -0.656295739022E+03   -0.60916E-01   -0.37055E-01   852   0.923E-01    0.388E+00
DAV:   3    -0.656282722153E+03    0.13017E-01   -0.10067E+00   900   0.989E-01    0.283E+00
DAV:   4    -0.656255484236E+03    0.27238E-01   -0.32215E-01   876   0.507E-01    0.156E+00
DAV:   5    -0.656250648267E+03    0.48360E-02   -0.40264E-02   864   0.167E-01    0.726E-01
DAV:   6    -0.656252436184E+03   -0.17879E-02   -0.18176E-02   864   0.192E-01    0.135E+00
DAV:   7    -0.656250418569E+03    0.20176E-02   -0.13714E-02   840   0.897E-02    0.731E-01
DAV:   8    -0.656248252460E+03    0.21661E-02   -0.71422E-03   780   0.902E-02    0.323E-01
DAV:   9    -0.656248207477E+03    0.44984E-04   -0.42908E-04   636   0.412E-02
  32 F= -.67165567E+03 E0= -.67159382E+03  d E =-.141378E-01
       N       E                     dE             d eps       ncg     rms          rms(c)
DAV:   1    -0.656248615552E+03   -0.36309E-03   -0.67479E-02   600   0.343E-01    0.238E-01
DAV:   2    -0.656266099646E+03   -0.17484E-01   -0.70116E-02   864   0.309E-01    0.274E+00
DAV:   3    -0.656251045291E+03    0.15054E-01   -0.95514E-02   792   0.334E-01    0.705E-01
DAV:   4    -0.656249255272E+03    0.17900E-02   -0.11397E-02   648   0.885E-02    0.347E-01
DAV:   5    -0.656248829150E+03    0.42612E-03   -0.51331E-04   540   0.491E-02    0.200E-01
DAV:   6    -0.656248710981E+03    0.11817E-03   -0.36207E-04   468   0.386E-02    0.425E-02
DAV:   7    -0.656248715376E+03   -0.43952E-05   -0.62602E-05   372   0.158E-02
  33 F= -.67165576E+03 E0= -.67159399E+03  d E =-.142331E-01
       N       E                     dE             d eps       ncg     rms          rms(c)
DAV:   1    -0.656258630086E+03   -0.99191E-02   -0.51439E+00   600   0.292E+00    0.105E+00
DAV:   2    -0.656308345497E+03   -0.49715E-01   -0.27276E-01   888   0.824E-01    0.367E+00
DAV:   3    -0.656303591143E+03    0.47544E-02   -0.10354E+00   888   0.930E-01    0.291E+00
DAV:   4    -0.656272374354E+03    0.31217E-01   -0.25727E-01   852   0.484E-01    0.964E-01
DAV:   5    -0.656270861095E+03    0.15133E-02   -0.55022E-02   852   0.157E-01    0.890E-01
DAV:   6    -0.656271689882E+03   -0.82879E-03   -0.14756E-02   864   0.147E-01    0.119E+00
DAV:   7    -0.656270511955E+03    0.11779E-02   -0.77007E-03   744   0.612E-02    0.933E-01
DAV:   8    -0.656268095927E+03    0.24160E-02   -0.12958E-02   708   0.112E-01    0.177E-01
DAV:   9    -0.656268303730E+03   -0.20780E-03   -0.33323E-04   504   0.314E-02    0.271E-01
DAV:  10    -0.656268225423E+03    0.78307E-04   -0.11582E-04   336   0.170E-02
  34 F= -.67167107E+03 E0= -.67160896E+03  d E =-.153055E-01
       N       E                     dE             d eps       ncg     rms          rms(c)
DAV:   1    -0.656258186403E+03    0.10117E-01   -0.13885E+01   600   0.480E+00    0.173E+00
DAV:   2    -0.656361419451E+03   -0.10323E+00   -0.60520E-01   900   0.130E+00    0.429E+00
DAV:   3    -0.656379789701E+03   -0.18370E-01   -0.22615E+00   888   0.173E+00    0.365E+00
DAV:   4    -0.656291403399E+03    0.88386E-01   -0.35263E-01   876   0.835E-01    0.117E+00
DAV:   5    -0.656295114801E+03   -0.37114E-02   -0.19492E-01   876   0.340E-01    0.168E+00
DAV:   6    -0.656287513179E+03    0.76016E-02   -0.93439E-03   840   0.165E-01    0.117E+00
DAV:   7    -0.656286055307E+03    0.14579E-02   -0.32716E-02   864   0.171E-01    0.638E-01
DAV:   8    -0.656284616033E+03    0.14393E-02   -0.31739E-03   816   0.823E-02    0.152E-01
DAV:   9    -0.656284675216E+03   -0.59184E-04   -0.80733E-04   720   0.480E-02
  35 F= -.67168075E+03 E0= -.67161938E+03  d E =-.249878E-01
       N       E                     dE             d eps       ncg     rms          rms(c)
DAV:   1    -0.656292918306E+03   -0.83023E-02   -0.59213E+00   600   0.312E+00    0.956E-01
DAV:   2    -0.656304977923E+03   -0.12060E-01   -0.15958E-01   828   0.553E-01    0.640E-01
DAV:   3    -0.656328171234E+03   -0.23193E-01   -0.13038E-01   852   0.423E-01    0.307E+00
DAV:   4    -0.656306909037E+03    0.21262E-01   -0.16980E-01   852   0.421E-01    0.105E+00
DAV:   5    -0.656305707669E+03    0.12014E-02   -0.15784E-02   840   0.156E-01    0.367E-01
DAV:   6    -0.656303252360E+03    0.24553E-02   -0.70881E-03   852   0.122E-01    0.303E-01
DAV:   7    -0.656303047032E+03    0.20533E-03   -0.35733E-03   840   0.745E-02    0.162E-01
DAV:   8    -0.656303004144E+03    0.42888E-04   -0.46168E-04   660   0.345E-02
  36 F= -.67169278E+03 E0= -.67163010E+03  d E =-.120264E-01
       N       E                     dE             d eps       ncg     rms          rms(c)
DAV:   1    -0.656304970683E+03   -0.19237E-02   -0.15236E+00   600   0.158E+00    0.479E-01
DAV:   2    -0.656308433272E+03   -0.34626E-02   -0.42218E-02   864   0.302E-01    0.454E-01
DAV:   3    -0.656326122837E+03   -0.17690E-01   -0.18896E-01   864   0.359E-01    0.248E+00
DAV:   4    -0.656308230907E+03    0.17892E-01   -0.11102E-01   828   0.283E-01    0.201E-01
DAV:   5    -0.656308867842E+03   -0.63694E-03   -0.39753E-03   816   0.837E-02    0.618E-01
DAV:   6    -0.656308435981E+03    0.43186E-03   -0.18851E-03   804   0.677E-02    0.569E-01
DAV:   7    -0.656308175962E+03    0.26002E-03   -0.64273E-04   636   0.338E-02    0.529E-01
DAV:   8    -0.656307632841E+03    0.54312E-03   -0.17386E-03   564   0.483E-02    0.139E-01
DAV:   9    -0.656307590648E+03    0.42193E-04   -0.11884E-04   432   0.225E-02
  37 F= -.67169418E+03 E0= -.67163143E+03  d E =-.134291E-01
       N       E                     dE             d eps       ncg     rms          rms(c)
DAV:   1    -0.656319867986E+03   -0.12235E-01   -0.58571E+00   600   0.314E+00    0.825E-01
DAV:   2    -0.656340749989E+03   -0.20882E-01   -0.23584E-01   840   0.574E-01    0.213E+00
DAV:   3    -0.656358677040E+03   -0.17927E-01   -0.51613E-01   864   0.637E-01    0.324E+00
DAV:   4    -0.656330534400E+03    0.28143E-01   -0.12885E-01   876   0.406E-01    0.661E-01
DAV:   5    -0.656328721128E+03    0.18133E-02   -0.20504E-02   840   0.129E-01    0.326E-01
DAV:   6    -0.656329479333E+03   -0.75820E-03   -0.14006E-02   828   0.113E-01    0.463E-01
DAV:   7    -0.656327501973E+03    0.19774E-02   -0.56820E-03   744   0.806E-02    0.208E-01
DAV:   8    -0.656327436717E+03    0.65256E-04   -0.38038E-04   708   0.365E-02
  38 F= -.67170568E+03 E0= -.67164275E+03  d E =-.114956E-01
       N       E                     dE             d eps       ncg     rms          rms(c)
DAV:   1    -0.656331064301E+03   -0.35623E-02   -0.14039E+00   600   0.153E+00    0.405E-01
DAV:   2    -0.656337928853E+03   -0.68646E-02   -0.65644E-02   840   0.292E-01    0.142E+00
DAV:   3    -0.656338872432E+03   -0.94358E-03   -0.13848E-01   864   0.305E-01    0.156E+00
DAV:   4    -0.656333846253E+03    0.50262E-02   -0.37877E-02   816   0.185E-01    0.471E-01
DAV:   5    -0.656333189887E+03    0.65637E-03   -0.56562E-03   804   0.745E-02    0.178E-01
DAV:   6    -0.656333469691E+03   -0.27980E-03   -0.26653E-03   732   0.576E-02    0.234E-01
DAV:   7    -0.656332923385E+03    0.54631E-03   -0.18325E-03   720   0.463E-02    0.127E-01
DAV:   8    -0.656332897146E+03    0.26239E-04   -0.14576E-04   468   0.219E-02
  39 F= -.67170706E+03 E0= -.67164412E+03  d E =-.128753E-01
       N       E                     dE             d eps       ncg     rms          rms(c)
DAV:   1    -0.656343506049E+03   -0.10583E-01   -0.34885E+00   600   0.247E+00    0.680E-01
DAV:   2    -0.656375482717E+03   -0.31977E-01   -0.34553E-01   852   0.569E-01    0.282E+00
DAV:   3    -0.656361474230E+03    0.14008E-01   -0.45885E-01   864   0.566E-01    0.218E+00
DAV:   4    -0.656351873734E+03    0.96005E-02   -0.13775E-01   852   0.277E-01    0.893E-01
DAV:   5    -0.656350416022E+03    0.14577E-02   -0.21364E-02   828   0.122E-01    0.550E-01
DAV:   6    -0.656349578786E+03    0.83724E-03   -0.80500E-03   852   0.938E-02    0.605E-01
DAV:   7    -0.656348505311E+03    0.10735E-02   -0.98998E-03   840   0.987E-02    0.938E-02
DAV:   8    -0.656348463711E+03    0.41600E-04   -0.62305E-04   756   0.427E-02
  40 F= -.67171517E+03 E0= -.67165241E+03  d E =-.811793E-02
       N       E                     dE             d eps       ncg     rms          rms(c)
DAV:   1    -0.656351811757E+03   -0.33064E-02   -0.79122E-01   600   0.117E+00    0.392E-01
DAV:   2    -0.656376671189E+03   -0.24859E-01   -0.25031E-01   852   0.403E-01    0.271E+00
DAV:   3    -0.656356205061E+03    0.20466E-01   -0.27105E-01   864   0.410E-01    0.110E+00
DAV:   4    -0.656353977325E+03    0.22277E-02   -0.38838E-02   744   0.138E-01    0.573E-01
DAV:   5    -0.656353297808E+03    0.67952E-03   -0.69330E-03   792   0.659E-02    0.312E-01
DAV:   6    -0.656353115905E+03    0.18190E-03   -0.12978E-03   696   0.448E-02    0.272E-01
DAV:   7    -0.656352819821E+03    0.29608E-03   -0.29714E-03   660   0.571E-02    0.112E-01
DAV:   8    -0.656352866534E+03   -0.46713E-04   -0.19484E-04   540   0.265E-02
  41 F= -.67171604E+03 E0= -.67165345E+03  d E =-.898431E-02
       N       E                     dE             d eps       ncg     rms          rms(c)
DAV:   1    -0.656360488210E+03   -0.76684E-02   -0.15421E+00   600   0.165E+00    0.725E-01
DAV:   2    -0.656425470102E+03   -0.64982E-01   -0.64177E-01   900   0.689E-01    0.344E+00
DAV:   3    -0.656373458052E+03    0.52012E-01   -0.41922E-01   840   0.752E-01    0.189E+00
DAV:   4    -0.656366878279E+03    0.65798E-02   -0.13876E-01   828   0.243E-01    0.103E+00
DAV:   5    -0.656364326400E+03    0.25519E-02   -0.10648E-02   780   0.980E-02    0.586E-01
DAV:   6    -0.656364350913E+03   -0.24513E-04   -0.28755E-03   744   0.553E-02    0.659E-01
DAV:   7    -0.656363382152E+03    0.96876E-03   -0.72497E-03   684   0.657E-02    0.202E-01
DAV:   8    -0.656363484281E+03   -0.10213E-03   -0.19018E-03   744   0.570E-02    0.371E-01
DAV:   9    -0.656363496577E+03   -0.12296E-04   -0.24869E-04   576   0.292E-02
  42 F= -.67172145E+03 E0= -.67165927E+03  d E =-.540645E-02
       N       E                     dE             d eps       ncg     rms          rms(c)
DAV:   1    -0.656366964135E+03   -0.34799E-02   -0.11110E+00   600   0.140E+00    0.718E-01
DAV:   2    -0.656450708257E+03   -0.83744E-01   -0.81800E-01   900   0.782E-01    0.364E+00
DAV:   3    -0.656376202241E+03    0.74506E-01   -0.36947E-01   840   0.790E-01    0.158E+00
DAV:   4    -0.656372469264E+03    0.37330E-02   -0.12454E-01   828   0.217E-01    0.113E+00
DAV:   5    -0.656369676808E+03    0.27925E-02   -0.76824E-03   780   0.854E-02    0.623E-01
DAV:   6    -0.656369793340E+03   -0.11653E-03   -0.17203E-03   696   0.451E-02    0.662E-01
DAV:   7    -0.656368888907E+03    0.90443E-03   -0.74665E-03   696   0.612E-02    0.244E-01
DAV:   8    -0.656368974442E+03   -0.85535E-04   -0.21239E-03   684   0.576E-02    0.416E-01
DAV:   9    -0.656368957470E+03    0.16973E-04   -0.25733E-04   492   0.298E-02
  43 F= -.67172250E+03 E0= -.67166048E+03  d E =-.645568E-02
       N       E                     dE             d eps       ncg     rms          rms(c)
DAV:   1    -0.656372465021E+03   -0.34906E-02   -0.18887E+00   600   0.168E+00    0.638E-01
DAV:   2    -0.656409849143E+03   -0.37384E-01   -0.37925E-01   900   0.532E-01    0.306E+00
DAV:   3    -0.656386889587E+03    0.22960E-01   -0.45961E-01   840   0.576E-01    0.198E+00
DAV:   4    -0.656378862913E+03    0.80267E-02   -0.11466E-01   840   0.238E-01    0.965E-01
DAV:   5    -0.656376762429E+03    0.21005E-02   -0.13554E-02   804   0.904E-02    0.531E-01
DAV:   6    -0.656376744430E+03    0.17999E-04   -0.31810E-03   756   0.595E-02    0.609E-01
DAV:   7    -0.656376032036E+03    0.71239E-03   -0.49493E-03   756   0.706E-02    0.266E-01
DAV:   8    -0.656375696158E+03    0.33588E-03   -0.75417E-04   612   0.497E-02    0.115E-01
DAV:   9    -0.656375735286E+03   -0.39127E-04   -0.15714E-04   480   0.249E-02
  44 F= -.67172502E+03 E0= -.67166256E+03  d E =-.252651E-02
       N       E                     dE             d eps       ncg     rms          rms(c)
DAV:   1    -0.656374821309E+03    0.87485E-03   -0.78257E-02   600   0.342E-01    0.139E-01
DAV:   2    -0.656378212885E+03   -0.33916E-02   -0.27154E-02   876   0.159E-01    0.117E+00
DAV:   3    -0.656375448663E+03    0.27642E-02   -0.36035E-02   744   0.147E-01    0.378E-01
DAV:   4    -0.656375037241E+03    0.41142E-03   -0.95004E-04   552   0.380E-02    0.630E-02
DAV:   5    -0.656374968350E+03    0.68892E-04   -0.73582E-05   360   0.161E-02
  45 F= -.67172512E+03 E0= -.67166255E+03  d E =-.262232E-02
       N       E                     dE             d eps       ncg     rms          rms(c)
DAV:   1    -0.656378931052E+03   -0.38938E-02   -0.61718E-01   600   0.108E+00    0.324E-01
DAV:   2    -0.656388271881E+03   -0.93408E-02   -0.82434E-02   876   0.280E-01    0.181E+00
DAV:   3    -0.656382596488E+03    0.56754E-02   -0.13010E-01   852   0.260E-01    0.101E+00
DAV:   4    -0.656381048435E+03    0.15481E-02   -0.25082E-02   780   0.130E-01    0.459E-01
DAV:   5    -0.656380055257E+03    0.99318E-03   -0.50917E-03   732   0.656E-02    0.177E-01
DAV:   6    -0.656379979342E+03    0.75915E-04   -0.41042E-04   648   0.330E-02
  46 F= -.67172911E+03 E0= -.67166619E+03  d E =-.399454E-02
       N       E                     dE             d eps       ncg     rms          rms(c)
DAV:   1    -0.656380887010E+03   -0.83175E-03   -0.18600E+00   600   0.187E+00    0.508E-01
DAV:   2    -0.656384385033E+03   -0.34980E-02   -0.46486E-02   828   0.340E-01    0.320E-01
DAV:   3    -0.656385101390E+03   -0.71636E-03   -0.84013E-03   900   0.107E-01    0.669E-01
DAV:   4    -0.656386066543E+03   -0.96515E-03   -0.41578E-02   852   0.157E-01    0.102E+00
DAV:   5    -0.656385078186E+03    0.98836E-03   -0.89399E-03   816   0.121E-01    0.232E-01
DAV:   6    -0.656383781130E+03    0.12971E-02   -0.27801E-03   780   0.751E-02    0.147E-01
DAV:   7    -0.656383755286E+03    0.25844E-04   -0.11894E-03   780   0.489E-02    0.159E-01
DAV:   8    -0.656383714770E+03    0.40516E-04   -0.20927E-04   492   0.226E-02
  47 F= -.67173109E+03 E0= -.67166830E+03  d E =-.597191E-02
       N       E                     dE             d eps       ncg     rms          rms(c)
DAV:   1    -0.656385948278E+03   -0.21930E-02   -0.50509E-01   600   0.942E-01    0.303E-01
DAV:   2    -0.656387689091E+03   -0.17408E-02   -0.18782E-02   816   0.210E-01    0.540E-01
DAV:   3    -0.656394453974E+03   -0.67649E-02   -0.93495E-02   864   0.237E-01    0.174E+00
DAV:   4    -0.656387327767E+03    0.71262E-02   -0.53615E-02   744   0.149E-01    0.177E-01
DAV:   5    -0.656387107775E+03    0.21999E-03   -0.11147E-03   660   0.474E-02    0.288E-01
DAV:   6    -0.656387087463E+03    0.20312E-04   -0.44682E-04   672   0.324E-02
  48 F= -.67173329E+03 E0= -.67167011E+03  d E =-.220378E-02
       N       E                     dE             d eps       ncg     rms          rms(c)
DAV:   1    -0.656387666681E+03   -0.55891E-03   -0.20152E-01   600   0.595E-01    0.233E-01
DAV:   2    -0.656399212224E+03   -0.11546E-01   -0.47513E-02   852   0.291E-01    0.213E+00
DAV:   3    -0.656389698552E+03    0.95137E-02   -0.43948E-02   816   0.243E-01    0.589E-01
DAV:   4    -0.656388887283E+03    0.81127E-03   -0.24537E-03   744   0.933E-02    0.220E-01
DAV:   5    -0.656388013023E+03    0.87426E-03   -0.83365E-04   684   0.502E-02    0.753E-02
DAV:   6    -0.656388056729E+03   -0.43706E-04   -0.13746E-04   372   0.223E-02
  49 F= -.67173353E+03 E0= -.67167079E+03  d E =-.243614E-02
       N       E                     dE             d eps       ncg     rms          rms(c)
DAV:   1    -0.656390929297E+03   -0.29163E-02   -0.23450E-01   600   0.651E-01    0.241E-01
DAV:   2    -0.656392095889E+03   -0.11666E-02   -0.11446E-02   864   0.150E-01    0.524E-01
DAV:   3    -0.656395538758E+03   -0.34429E-02   -0.51327E-02   804   0.183E-01    0.132E+00
DAV:   4    -0.656391783054E+03    0.37557E-02   -0.28974E-02   612   0.114E-01    0.170E-01
DAV:   5    -0.656391519055E+03    0.26400E-03   -0.50482E-04   516   0.376E-02    0.182E-01
DAV:   6    -0.656391466537E+03    0.52518E-04   -0.21486E-04   600   0.246E-02
  50 F= -.67173559E+03 E0= -.67167288E+03  d E =-.205914E-02
       N       E                     dE             d eps       ncg     rms          rms(c)
DAV:   1    -0.656392573107E+03   -0.10541E-02   -0.11484E-01   600   0.455E-01    0.172E-01
DAV:   2    -0.656394009062E+03   -0.14360E-02   -0.11642E-02   900   0.140E-01    0.560E-01
DAV:   3    -0.656394270164E+03   -0.26110E-03   -0.19373E-02   804   0.137E-01    0.788E-01
DAV:   4    -0.656393583596E+03    0.68657E-03   -0.36310E-03   744   0.920E-02    0.191E-01
DAV:   5    -0.656392816206E+03    0.76739E-03   -0.44378E-04   600   0.464E-02    0.105E-01
DAV:   6    -0.656392813749E+03    0.24572E-05   -0.12496E-04   396   0.206E-02
  51 F= -.67173599E+03 E0= -.67167357E+03  d E =-.246496E-02
       N       E                     dE             d eps       ncg     rms          rms(c)
DAV:   1    -0.656395477876E+03   -0.26617E-02   -0.15238E-01   600   0.561E-01    0.214E-01
DAV:   2    -0.656400659777E+03   -0.51819E-02   -0.39890E-02   900   0.211E-01    0.142E+00
DAV:   3    -0.656396591324E+03    0.40685E-02   -0.52403E-02   804   0.165E-01    0.545E-01
DAV:   4    -0.656395943016E+03    0.64831E-03   -0.15182E-03   564   0.570E-02    0.138E-01
DAV:   5    -0.656395768053E+03    0.17496E-03   -0.21419E-04   444   0.302E-02    0.760E-02
DAV:   6    -0.656395924119E+03   -0.15607E-03   -0.55128E-04   420   0.292E-02    0.900E-02
DAV:   7    -0.656395749259E+03    0.17486E-03   -0.15545E-04   372   0.263E-02    0.111E-01
DAV:   8    -0.656395741167E+03    0.80920E-05   -0.38973E-05   336   0.122E-02
  52 F= -.67173721E+03 E0= -.67167484E+03  d E =-.121813E-02
       N       E                     dE             d eps       ncg     rms          rms(c)
DAV:   1    -0.656396730396E+03   -0.98114E-03   -0.46438E-02   600   0.310E-01    0.134E-01
DAV:   2    -0.656399760465E+03   -0.30301E-02   -0.20632E-02   876   0.146E-01    0.113E+00
DAV:   3    -0.656397297033E+03    0.24634E-02   -0.27004E-02   660   0.126E-01    0.369E-01
DAV:   4    -0.656396910029E+03    0.38700E-03   -0.11086E-03   504   0.416E-02    0.103E-01
DAV:   5    -0.656396813145E+03    0.96884E-04   -0.10701E-04   384   0.204E-02
  53 F= -.67173734E+03 E0= -.67167479E+03  d E =-.134913E-02
       N       E                     dE             d eps       ncg     rms          rms(c)
DAV:   1    -0.656399298134E+03   -0.23881E-02   -0.16263E-01   600   0.565E-01    0.241E-01
DAV:   2    -0.656400728015E+03   -0.14299E-02   -0.63397E-03   864   0.131E-01    0.433E-01
DAV:   3    -0.656403550641E+03   -0.28226E-02   -0.15043E-02   792   0.175E-01    0.133E+00
DAV:   4    -0.656401425586E+03    0.21251E-02   -0.34107E-02   792   0.167E-01    0.448E-01
DAV:   5    -0.656399555436E+03    0.18701E-02   -0.86287E-03   684   0.781E-02    0.239E-01
DAV:   6    -0.656399479004E+03    0.76432E-04   -0.36554E-04   456   0.296E-02
  54 F= -.67173832E+03 E0= -.67167530E+03  d E =-.984075E-03
       N       E                     dE             d eps       ncg     rms          rms(c)
DAV:   1    -0.656400256707E+03   -0.70127E-03   -0.38617E-02   600   0.278E-01    0.175E-01
DAV:   2    -0.656409196836E+03   -0.89401E-02   -0.19871E-02   876   0.210E-01    0.195E+00
DAV:   3    -0.656401306557E+03    0.78903E-02   -0.39127E-02   744   0.212E-01    0.466E-01
DAV:   4    -0.656400828726E+03    0.47783E-03   -0.76347E-03   648   0.743E-02    0.277E-01
DAV:   5    -0.656400344362E+03    0.48436E-03   -0.51355E-04   516   0.383E-02    0.160E-01
DAV:   6    -0.656400267640E+03    0.76722E-04   -0.38108E-04   360   0.228E-02
  55 F= -.67173829E+03 E0= -.67167560E+03  d E =-.948000E-03
       N       E                     dE             d eps       ncg     rms          rms(c)
DAV:   1    -0.656402238315E+03   -0.18940E-02   -0.18048E-01   600   0.578E-01    0.186E-01
DAV:   2    -0.656402614860E+03   -0.37654E-03   -0.50001E-03   816   0.107E-01    0.143E-01
DAV:   3    -0.656404195783E+03   -0.15809E-02   -0.93950E-03   660   0.943E-02    0.844E-01
DAV:   4    -0.656402826982E+03    0.13688E-02   -0.13757E-02   612   0.960E-02    0.250E-01
DAV:   5    -0.656402661815E+03    0.16517E-03   -0.15126E-03   528   0.410E-02    0.972E-02
DAV:   6    -0.656402509287E+03    0.15253E-03   -0.12322E-04   396   0.220E-02    0.447E-02
DAV:   7    -0.656402513026E+03   -0.37384E-05   -0.89362E-05   372   0.142E-02
  56 F= -.67173904E+03 E0= -.67167630E+03  d E =-.749674E-03
       N       E                     dE             d eps       ncg     rms          rms(c)
DAV:   1    -0.656403034398E+03   -0.52511E-03   -0.22665E-02   600   0.206E-01    0.658E-02
DAV:   2    -0.656403086533E+03   -0.52135E-04   -0.72040E-04   768   0.406E-02
  57 F= -.67173908E+03 E0= -.67167625E+03  d E =-.792107E-03
       N       E                     dE             d eps       ncg     rms          rms(c)
DAV:   1    -0.656404332330E+03   -0.12979E-02   -0.91861E-02   600   0.420E-01    0.449E-01
DAV:   2    -0.656476817461E+03   -0.72485E-01   -0.67148E-01   852   0.658E-01    0.359E+00
DAV:   3    -0.656405896951E+03    0.70921E-01   -0.23230E-01   828   0.602E-01    0.481E-01
DAV:   4    -0.656405493325E+03    0.40363E-03   -0.24652E-02   768   0.111E-01    0.743E-01
DAV:   5    -0.656404524453E+03    0.96887E-03   -0.37981E-03   600   0.398E-02    0.411E-01
DAV:   6    -0.656404316044E+03    0.20841E-03   -0.12337E-04   432   0.205E-02    0.337E-01
DAV:   7    -0.656404106187E+03    0.20986E-03   -0.11182E-03   396   0.321E-02    0.612E-02
DAV:   8    -0.656404103279E+03    0.29081E-05   -0.15414E-04   396   0.199E-02
  58 F= -.67173976E+03 E0= -.67167713E+03  d E =-.680814E-03
       N       E                     dE             d eps       ncg     rms          rms(c)
DAV:   1    -0.656404426326E+03   -0.32014E-03   -0.54925E-02   600   0.324E-01    0.194E-01
DAV:   2    -0.656417599883E+03   -0.13174E-01   -0.11772E-01   876   0.247E-01    0.220E+00
DAV:   3    -0.656405217553E+03    0.12382E-01   -0.12287E-01   816   0.228E-01    0.444E-01
DAV:   4    -0.656404865776E+03    0.35178E-03   -0.46577E-03   564   0.671E-02    0.338E-01
DAV:   5    -0.656404538311E+03    0.32746E-03   -0.43555E-04   420   0.288E-02    0.176E-01
DAV:   6    -0.656404509939E+03    0.28372E-04   -0.47746E-05   348   0.162E-02
  59 F= -.67173991E+03 E0= -.67167722E+03  d E =-.825825E-03
       N       E                     dE             d eps       ncg     rms          rms(c)
DAV:   1    -0.656404922637E+03   -0.38433E-03   -0.55404E-02   600   0.321E-01    0.115E-01
DAV:   2    -0.656405151801E+03   -0.22916E-03   -0.17973E-03   840   0.709E-02    0.109E-01
DAV:   3    -0.656405799113E+03   -0.64731E-03   -0.19162E-03   636   0.667E-02    0.540E-01
DAV:   4    -0.656405253018E+03    0.54609E-03   -0.38293E-03   480   0.612E-02    0.157E-01
DAV:   5    -0.656405076349E+03    0.17667E-03   -0.10692E-03   456   0.336E-02    0.103E-01
DAV:   6    -0.656405046526E+03    0.29824E-04   -0.88953E-05   360   0.153E-02
  60 F= -.67174037E+03 E0= -.67167768E+03  d E =-.460470E-03
       N       E                     dE             d eps       ncg     rms          rms(c)
DAV:   1    -0.656405209540E+03   -0.13319E-03   -0.83920E-02   600   0.395E-01    0.153E-01
DAV:   2    -0.656406656087E+03   -0.14465E-02   -0.51470E-03   876   0.119E-01    0.763E-01
DAV:   3    -0.656406109862E+03    0.54623E-03   -0.18141E-02   696   0.121E-01    0.583E-01
DAV:   4    -0.656405511238E+03    0.59862E-03   -0.65247E-03   516   0.585E-02    0.105E-01
DAV:   5    -0.656405450463E+03    0.60775E-04   -0.69445E-04   492   0.302E-02
  61 F= -.67174068E+03 E0= -.67167823E+03  d E =-.771661E-03
       N       E                     dE             d eps       ncg     rms          rms(c)
DAV:   1    -0.656405973071E+03   -0.46183E-03   -0.31903E-02   600   0.253E-01    0.183E-01
DAV:   2    -0.656418190165E+03   -0.12217E-01   -0.22125E-02   828   0.235E-01    0.225E+00
DAV:   3    -0.656407160756E+03    0.11029E-01   -0.41880E-02   744   0.242E-01    0.490E-01
DAV:   4    -0.656406495151E+03    0.66560E-03   -0.83787E-03   600   0.691E-02    0.428E-01
DAV:   5    -0.656405988973E+03    0.50618E-03   -0.36512E-04   456   0.301E-02    0.981E-02
DAV:   6    -0.656405957071E+03    0.31902E-04   -0.21820E-04   360   0.178E-02
  62 F= -.67174099E+03 E0= -.67167837E+03  d E =-.315786E-03
       N       E                     dE             d eps       ncg     rms          rms(c)
DAV:   1    -0.656406244454E+03   -0.25548E-03   -0.25169E-02   600   0.224E-01    0.101E-01
DAV:   2    -0.656408274911E+03   -0.20305E-02   -0.41962E-03   732   0.104E-01    0.953E-01
DAV:   3    -0.656406485510E+03    0.17894E-02   -0.10548E-02   624   0.113E-01    0.321E-01
DAV:   4    -0.656406423641E+03    0.61869E-04   -0.26272E-03   492   0.443E-02    0.114E-01
DAV:   5    -0.656406251153E+03    0.17249E-03   -0.24598E-04   384   0.230E-02    0.233E-02
DAV:   6    -0.656406257399E+03   -0.62460E-05   -0.52453E-05   336   0.112E-02
  63 F= -.67174113E+03 E0= -.67167830E+03  d E =-.447946E-03
       N       E                     dE             d eps       ncg     rms          rms(c)
DAV:   1    -0.656406884356E+03   -0.63320E-03   -0.24509E-02   600   0.226E-01    0.861E-02
DAV:   2    -0.656408575186E+03   -0.16908E-02   -0.55192E-03   816   0.102E-01    0.867E-01
DAV:   3    -0.656406961774E+03    0.16134E-02   -0.67180E-03   576   0.921E-02    0.197E-01
DAV:   4    -0.656406944151E+03    0.17623E-04   -0.70394E-04   432   0.269E-02
  64 F= -.67174146E+03 E0= -.67167869E+03  d E =-.332894E-03
       N       E                     dE             d eps       ncg     rms          rms(c)
DAV:   1    -0.656407380210E+03   -0.41844E-03   -0.34235E-02   600   0.267E-01    0.831E-02
DAV:   2    -0.656407458820E+03   -0.78610E-04   -0.10006E-03   792   0.492E-02    0.629E-02
DAV:   3    -0.656407661249E+03   -0.20243E-03   -0.19930E-03   492   0.428E-02    0.264E-01
DAV:   4    -0.656407471776E+03    0.18947E-03   -0.12260E-03   444   0.375E-02    0.958E-02
DAV:   5    -0.656407441395E+03    0.30381E-04   -0.17252E-04   408   0.237E-02
  65 F= -.67174154E+03 E0= -.67167852E+03  d E =-.412873E-03
       N       E                     dE             d eps       ncg     rms          rms(c)
DAV:   1    -0.656407881080E+03   -0.40930E-03   -0.10824E-02   600   0.141E-01    0.612E-02
DAV:   2    -0.656408195491E+03   -0.31441E-03   -0.98506E-04   648   0.396E-02    0.368E-01
DAV:   3    -0.656407960708E+03    0.23478E-03   -0.23171E-03   492   0.501E-02    0.181E-01
DAV:   4    -0.656407979378E+03   -0.18670E-04   -0.11398E-03   432   0.329E-02    0.122E-01
DAV:   5    -0.656407889176E+03    0.90203E-04   -0.17065E-04   312   0.165E-02
  66 F= -.67174167E+03 E0= -.67167883E+03  d E =-.131961E-03
       N       E                     dE             d eps       ncg     rms          rms(c)
DAV:   1    -0.656408961366E+03   -0.98199E-03   -0.99322E-02   600   0.423E-01    0.172E-01
DAV:   2    -0.656409873132E+03   -0.91177E-03   -0.65996E-03   840   0.944E-02    0.601E-01
DAV:   3    -0.656410668562E+03   -0.79543E-03   -0.18608E-02   672   0.125E-01    0.838E-01
DAV:   4    -0.656409208546E+03    0.14600E-02   -0.55934E-03   552   0.877E-02    0.189E-01
DAV:   5    -0.656409171218E+03    0.37328E-04   -0.22816E-04   504   0.340E-02
  67 F= -.67174201E+03 E0= -.67167996E+03  d E =-.466854E-03
       N       E                     dE             d eps       ncg     rms          rms(c)
DAV:   1    -0.656409463170E+03   -0.25462E-03   -0.18685E-02   600   0.185E-01    0.147E-01
DAV:   2    -0.656417256752E+03   -0.77936E-02   -0.62995E-02   864   0.185E-01    0.177E+00
DAV:   3    -0.656410050466E+03    0.72063E-02   -0.75600E-02   732   0.174E-01    0.405E-01
DAV:   4    -0.656409717188E+03    0.33328E-03   -0.30325E-03   576   0.585E-02    0.254E-01
DAV:   5    -0.656409488824E+03    0.22836E-03   -0.29889E-04   444   0.303E-02    0.132E-01
DAV:   6    -0.656409451240E+03    0.37584E-04   -0.47487E-05   348   0.168E-02
  68 F= -.67174187E+03 E0= -.67167920E+03  d E =-.332228E-03
       N       E                     dE             d eps       ncg     rms          rms(c)
DAV:   1    -0.656409210902E+03    0.27792E-03   -0.65833E-03   612   0.109E-01    0.491E-02
DAV:   2    -0.656409731900E+03   -0.52100E-03   -0.23300E-03   468   0.521E-02    0.477E-01
DAV:   3    -0.656409266902E+03    0.46500E-03   -0.26712E-03   408   0.532E-02    0.113E-01
DAV:   4    -0.656409246823E+03    0.20078E-04   -0.19428E-04   384   0.165E-02
  69 F= -.67174190E+03 E0= -.67167915E+03  d E =-.364542E-03
       N       E                     dE             d eps       ncg     rms          rms(c)
DAV:   1    -0.656409904914E+03   -0.63801E-03   -0.25225E-02   600   0.212E-01    0.712E-02
DAV:   2    -0.656409960046E+03   -0.55132E-04   -0.72637E-04   804   0.404E-02
  70 F= -.67174220E+03 E0= -.67167965E+03  d E =-.301392E-03
       N       E                     dE             d eps       ncg     rms          rms(c)
DAV:   1    -0.656411365458E+03   -0.14605E-02   -0.16841E-01   600   0.547E-01    0.345E-01
DAV:   2    -0.656455190885E+03   -0.43825E-01   -0.97894E-02   864   0.478E-01    0.352E+00
DAV:   3    -0.656413456309E+03    0.41735E-01   -0.89562E-02   852   0.449E-01    0.489E-01
DAV:   4    -0.656412462531E+03    0.99378E-03   -0.14295E-02   672   0.972E-02    0.534E-01
DAV:   5    -0.656411531406E+03    0.93113E-03   -0.77028E-04   624   0.467E-02    0.236E-01
DAV:   6    -0.656411462339E+03    0.69066E-04   -0.11700E-03   516   0.317E-02    0.902E-02
DAV:   7    -0.656411488315E+03   -0.25976E-04   -0.14321E-04   408   0.218E-02
  71 F= -.67174267E+03 E0= -.67167971E+03  d E =-.769864E-03
       N       E                     dE             d eps       ncg     rms          rms(c)
DAV:   1    -0.656411944089E+03   -0.48175E-03   -0.40222E-02   600   0.268E-01    0.125E-01
DAV:   2    -0.656415760550E+03   -0.38165E-02   -0.16166E-02   864   0.160E-01    0.124E+00
DAV:   3    -0.656412539861E+03    0.32207E-02   -0.14911E-02   744   0.144E-01    0.370E-01
DAV:   4    -0.656412227679E+03    0.31218E-03   -0.86319E-04   672   0.569E-02    0.118E-01
DAV:   5    -0.656411974463E+03    0.25322E-03   -0.17114E-04   408   0.272E-02    0.358E-02
DAV:   6    -0.656411980384E+03   -0.59207E-05   -0.57400E-05   336   0.139E-02
  72 F= -.67174264E+03 E0= -.67168003E+03  d E =-.737010E-03
       N       E                     dE             d eps       ncg     rms          rms(c)
DAV:   1    -0.656412591229E+03   -0.61677E-03   -0.62213E-02   600   0.333E-01    0.897E-02
DAV:   2    -0.656412754513E+03   -0.16328E-03   -0.16368E-03   828   0.599E-02    0.176E-01
DAV:   3    -0.656413188359E+03   -0.43385E-03   -0.38638E-03   552   0.603E-02    0.486E-01
DAV:   4    -0.656412767694E+03    0.42067E-03   -0.23375E-03   456   0.526E-02    0.128E-01
DAV:   5    -0.656412703334E+03    0.64360E-04   -0.75244E-05   408   0.219E-02
  73 F= -.67174301E+03 E0= -.67168073E+03  d E =-.365911E-03
       N       E                     dE             d eps       ncg     rms          rms(c)
DAV:   1    -0.656412954910E+03   -0.18722E-03   -0.38174E-02   600   0.261E-01    0.697E-02
DAV:   2    -0.656413245090E+03   -0.29018E-03   -0.13410E-03   816   0.552E-02    0.305E-01
DAV:   3    -0.656413112683E+03    0.13241E-03   -0.20701E-03   516   0.482E-02    0.229E-01
DAV:   4    -0.656413113504E+03   -0.82090E-06   -0.14330E-03   456   0.365E-02    0.110E-01
DAV:   5    -0.656412997729E+03    0.11578E-03   -0.22765E-04   348   0.206E-02    0.331E-02
DAV:   6    -0.656413004011E+03   -0.62820E-05   -0.43468E-05   300   0.123E-02
  74 F= -.67174303E+03 E0= -.67168037E+03  d E =-.385114E-03
       N       E                     dE             d eps       ncg     rms          rms(c)
DAV:   1    -0.656413503397E+03   -0.50567E-03   -0.74676E-02   600   0.349E-01    0.909E-02
DAV:   2    -0.656414185500E+03   -0.68210E-03   -0.41690E-03   900   0.810E-02    0.523E-01
DAV:   3    -0.656413775771E+03    0.40973E-03   -0.54391E-03   588   0.701E-02    0.265E-01
DAV:   4    -0.656413622056E+03    0.15371E-03   -0.81670E-04   468   0.292E-02    0.105E-01
DAV:   5    -0.656413595090E+03    0.26966E-04   -0.50235E-05   372   0.118E-02
  75 F= -.67174341E+03 E0= -.67168085E+03  d E =-.380480E-03
       N       E                     dE             d eps       ncg     rms          rms(c)
DAV:   1    -0.656413912980E+03   -0.29092E-03   -0.36192E-01   600   0.766E-01    0.189E-01
DAV:   2    -0.656415146378E+03   -0.12334E-02   -0.10489E-02   828   0.136E-01    0.604E-01
DAV:   3    -0.656415617692E+03   -0.47131E-03   -0.20624E-02   744   0.127E-01    0.740E-01
DAV:   4    -0.656414543814E+03    0.10739E-02   -0.84472E-03   588   0.733E-02    0.214E-01
DAV:   5    -0.656414352920E+03    0.19089E-03   -0.33321E-04   528   0.273E-02    0.736E-02
DAV:   6    -0.656414340955E+03    0.11965E-04   -0.33004E-04   516   0.236E-02
  76 F= -.67174369E+03 E0= -.67168107E+03  d E =-.663190E-03
       N       E                     dE             d eps       ncg     rms          rms(c)
DAV:   1    -0.656414818619E+03   -0.46570E-03   -0.91566E-02   600   0.388E-01    0.132E-01
DAV:   2    -0.656417456989E+03   -0.26384E-02   -0.85795E-03   864   0.127E-01    0.107E+00
DAV:   3    -0.656415383556E+03    0.20734E-02   -0.17054E-02   684   0.132E-01    0.402E-01
DAV:   4    -0.656415246153E+03    0.13740E-03   -0.42839E-03   564   0.588E-02    0.199E-01
DAV:   5    -0.656414971437E+03    0.27472E-03   -0.44242E-04   432   0.318E-02    0.989E-02
DAV:   6    -0.656414947263E+03    0.24174E-04   -0.24384E-04   324   0.206E-02
  77 F= -.67174419E+03 E0= -.67168166E+03  d E =-.498539E-03
       N       E                     dE             d eps       ncg     rms          rms(c)
DAV:   1    -0.656414836372E+03    0.13507E-03   -0.82101E-01   600   0.116E+00    0.355E-01
DAV:   2    -0.656426000214E+03   -0.11164E-01   -0.37299E-02   840   0.289E-01    0.208E+00
DAV:   3    -0.656419448632E+03    0.65516E-02   -0.12975E-01   852   0.303E-01    0.110E+00
DAV:   4    -0.656417074970E+03    0.23737E-02   -0.42749E-02   672   0.125E-01    0.589E-01
DAV:   5    -0.656416112514E+03    0.96246E-03   -0.24320E-03   636   0.515E-02    0.197E-01
DAV:   6    -0.656416330765E+03   -0.21825E-03   -0.17146E-03   636   0.486E-02    0.445E-01
DAV:   7    -0.656416052079E+03    0.27869E-03   -0.35109E-04   456   0.240E-02    0.254E-01
DAV:   8    -0.656415985724E+03    0.66355E-04   -0.14244E-04   360   0.172E-02
  78 F= -.67174490E+03 E0= -.67168176E+03  d E =-.121560E-02
       N       E                     dE             d eps       ncg     rms          rms(c)
DAV:   1    -0.656416490499E+03   -0.43842E-03   -0.12851E-01   600   0.464E-01    0.250E-01
DAV:   2    -0.656432871218E+03   -0.16381E-01   -0.34446E-02   888   0.269E-01    0.255E+00
DAV:   3    -0.656418600095E+03    0.14271E-01   -0.72806E-02   816   0.289E-01    0.672E-01
DAV:   4    -0.656417829092E+03    0.77100E-03   -0.15715E-02   660   0.928E-02    0.624E-01
DAV:   5    -0.656416792791E+03    0.10363E-02   -0.38696E-04   552   0.453E-02    0.237E-01
DAV:   6    -0.656416647994E+03    0.14480E-03   -0.12072E-03   432   0.340E-02    0.382E-02
DAV:   7    -0.656416661879E+03   -0.13885E-04   -0.12582E-04   384   0.182E-02
  79 F= -.67174544E+03 E0= -.67168278E+03  d E =-.537063E-03
       N       E                     dE             d eps       ncg     rms          rms(c)
DAV:   1    -0.656416808469E+03   -0.16048E-03   -0.86712E-02   600   0.382E-01    0.207E-01
DAV:   2    -0.656430500430E+03   -0.13692E-01   -0.26804E-02   876   0.245E-01    0.236E+00
DAV:   3    -0.656418261747E+03    0.12239E-01   -0.54746E-02   804   0.252E-01    0.513E-01
DAV:   4    -0.656417600691E+03    0.66106E-03   -0.13225E-02   648   0.809E-02    0.395E-01
DAV:   5    -0.656417006904E+03    0.59379E-03   -0.59387E-04   576   0.411E-02    0.219E-01
DAV:   6    -0.656416888032E+03    0.11887E-03   -0.78256E-04   420   0.273E-02    0.575E-02
DAV:   7    -0.656416890524E+03   -0.24915E-05   -0.68477E-05   372   0.141E-02
  80 F= -.67174555E+03 E0= -.67168262E+03  d E =-.650885E-03
       N       E                     dE             d eps       ncg     rms          rms(c)
DAV:   1    -0.656417635286E+03   -0.74725E-03   -0.10589E-01   600   0.406E-01    0.179E-01
DAV:   2    -0.656425547105E+03   -0.79118E-02   -0.18431E-02   888   0.191E-01    0.185E+00
DAV:   3    -0.656418670062E+03    0.68770E-02   -0.31406E-02   768   0.205E-01    0.462E-01
DAV:   4    -0.656418267053E+03    0.40301E-03   -0.53221E-03   576   0.659E-02    0.408E-01
DAV:   5    -0.656417852856E+03    0.41420E-03   -0.17128E-04   480   0.322E-02    0.171E-01
DAV:   6    -0.656417754495E+03    0.98361E-04   -0.73559E-04   408   0.259E-02
  81 F= -.67174601E+03 E0= -.67168334E+03  d E =-.454704E-03
       N       E                     dE             d eps       ncg     rms          rms(c)
DAV:   1    -0.656418250121E+03   -0.39726E-03   -0.46592E-01   600   0.852E-01    0.309E-01
DAV:   2    -0.656427764538E+03   -0.95144E-02   -0.23621E-02   900   0.243E-01    0.197E+00
DAV:   3    -0.656421378134E+03    0.63864E-02   -0.10292E-01   852   0.257E-01    0.909E-01
DAV:   4    -0.656420048582E+03    0.13296E-02   -0.43313E-02   708   0.124E-01    0.618E-01
DAV:   5    -0.656419079881E+03    0.96870E-03   -0.17080E-03   660   0.599E-02    0.195E-01
DAV:   6    -0.656418878888E+03    0.20099E-03   -0.99474E-04   588   0.435E-02    0.148E-01
DAV:   7    -0.656418872102E+03    0.67861E-05   -0.14692E-04   444   0.217E-02
  82 F= -.67174627E+03 E0= -.67168327E+03  d E =-.711306E-03
       N       E                     dE             d eps       ncg     rms          rms(c)
DAV:   1    -0.656419540731E+03   -0.66184E-03   -0.97949E-02   600   0.388E-01    0.140E-01
DAV:   2    -0.656423621809E+03   -0.40811E-02   -0.10752E-02   900   0.152E-01    0.134E+00
DAV:   3    -0.656420091191E+03    0.35306E-02   -0.16097E-02   732   0.151E-01    0.352E-01
DAV:   4    -0.656419943298E+03    0.14789E-03   -0.27213E-03   528   0.514E-02    0.285E-01
DAV:   5    -0.656419746140E+03    0.19716E-03   -0.12283E-04   384   0.284E-02    0.128E-01
DAV:   6    -0.656419672932E+03    0.73208E-04   -0.34439E-04   372   0.210E-02
  83 F= -.67174659E+03 E0= -.67168394E+03  d E =-.323106E-03
       N       E                     dE             d eps       ncg     rms          rms(c)
DAV:   1    -0.656420400495E+03   -0.65436E-03   -0.67885E-01   600   0.102E+00    0.303E-01
DAV:   2    -0.656426772379E+03   -0.63719E-02   -0.21565E-02   828   0.231E-01    0.157E+00
DAV:   3    -0.656423567175E+03    0.32052E-02   -0.83433E-02   816   0.226E-01    0.916E-01
DAV:   4    -0.656422189657E+03    0.13775E-02   -0.39701E-02   720   0.123E-01    0.521E-01
DAV:   5    -0.656421574421E+03    0.61524E-03   -0.23460E-03   696   0.639E-02    0.148E-01
DAV:   6    -0.656421318702E+03    0.25572E-03   -0.84240E-04   720   0.479E-02    0.207E-01
DAV:   7    -0.656421259017E+03    0.59685E-04   -0.27891E-04   540   0.264E-02
  84 F= -.67174692E+03 E0= -.67168395E+03  d E =-.650800E-03
       N       E                     dE             d eps       ncg     rms          rms(c)
DAV:   1    -0.656422355020E+03   -0.10363E-02   -0.23026E-01   600   0.608E-01    0.181E-01
DAV:   2    -0.656427808328E+03   -0.54533E-02   -0.14493E-02   900   0.186E-01    0.153E+00
DAV:   3    -0.656423364081E+03    0.44442E-02   -0.23883E-02   780   0.171E-01    0.445E-01
DAV:   4    -0.656423023261E+03    0.34082E-03   -0.66826E-03   588   0.629E-02    0.383E-01
DAV:   5    -0.656422718070E+03    0.30519E-03   -0.39577E-04   504   0.298E-02    0.110E-01
DAV:   6    -0.656422697535E+03    0.20535E-04   -0.29897E-04   456   0.257E-02
  85 F= -.67174762E+03 E0= -.67168440E+03  d E =-.704976E-03
       N       E                     dE             d eps       ncg     rms          rms(c)
DAV:   1    -0.656423268512E+03   -0.55044E-03   -0.18305E-01   600   0.543E-01    0.156E-01
DAV:   2    -0.656426879781E+03   -0.36113E-02   -0.11172E-02   888   0.158E-01    0.120E+00
DAV:   3    -0.656424092833E+03    0.27869E-02   -0.12738E-02   756   0.143E-01    0.425E-01
DAV:   4    -0.656424005315E+03    0.87518E-04   -0.18182E-03   720   0.700E-02    0.221E-01
DAV:   5    -0.656423503638E+03    0.50168E-03   -0.45518E-04   540   0.370E-02    0.154E-01
DAV:   6    -0.656423496678E+03    0.69596E-05   -0.98156E-05   336   0.177E-02
  86 F= -.67174777E+03 E0= -.67168499E+03  d E =-.849040E-03
       N       E                     dE             d eps       ncg     rms          rms(c)
DAV:   1    -0.656424447141E+03   -0.94350E-03   -0.14700E-01   600   0.478E-01    0.129E-01
DAV:   2    -0.656424982141E+03   -0.53500E-03   -0.49376E-03   852   0.932E-02    0.393E-01
DAV:   3    -0.656425279623E+03   -0.29748E-03   -0.72537E-03   588   0.831E-02    0.551E-01
DAV:   4    -0.656424723063E+03    0.55656E-03   -0.13345E-03   528   0.543E-02    0.914E-02
DAV:   5    -0.656424687070E+03    0.35993E-04   -0.12724E-04   468   0.279E-02
  87 F= -.67174834E+03 E0= -.67168600E+03  d E =-.578421E-03
       N       E                     dE             d eps       ncg     rms          rms(c)
DAV:   1    -0.656425325944E+03   -0.60288E-03   -0.10670E+00   600   0.128E+00    0.358E-01
DAV:   2    -0.656432961968E+03   -0.76360E-02   -0.66295E-02   876   0.277E-01    0.160E+00
DAV:   3    -0.656430103037E+03    0.28589E-02   -0.12502E-01   864   0.238E-01    0.121E+00
DAV:   4    -0.656426946610E+03    0.31564E-02   -0.79824E-03   744   0.112E-01    0.214E-01
DAV:   5    -0.656427180186E+03   -0.23358E-03   -0.27025E-03   768   0.624E-02    0.205E-01
DAV:   6    -0.656426682761E+03    0.49743E-03   -0.11436E-03   756   0.518E-02    0.162E-01
DAV:   7    -0.656426673824E+03    0.89368E-05   -0.52047E-04   636   0.362E-02
  88 F= -.67174867E+03 E0= -.67168622E+03  d E =-.906761E-03
       N       E                     dE             d eps       ncg     rms          rms(c)
DAV:   1    -0.656426195062E+03    0.48770E-03   -0.75462E-02   600   0.343E-01    0.175E-01
DAV:   2    -0.656437523102E+03   -0.11328E-01   -0.91513E-02   852   0.235E-01    0.207E+00
DAV:   3    -0.656426912273E+03    0.10611E-01   -0.10017E-01   768   0.203E-01    0.421E-01
DAV:   4    -0.656426460048E+03    0.45223E-03   -0.23403E-03   696   0.612E-02    0.245E-01
DAV:   5    -0.656426255940E+03    0.20411E-03   -0.18951E-04   384   0.268E-02    0.142E-01
DAV:   6    -0.656426229923E+03    0.26018E-04   -0.17281E-04   324   0.172E-02
  89 F= -.67174867E+03 E0= -.67168554E+03  d E =-.903534E-03
       N       E                     dE             d eps       ncg     rms          rms(c)
DAV:   1    -0.656426858128E+03   -0.60219E-03   -0.69831E-02   600   0.324E-01    0.103E-01
DAV:   2    -0.656427830166E+03   -0.97204E-03   -0.72869E-03   912   0.793E-02    0.626E-01
DAV:   3    -0.656427266933E+03    0.56323E-03   -0.10741E-02   612   0.827E-02    0.332E-01
DAV:   4    -0.656427050876E+03    0.21606E-03   -0.14054E-03   420   0.435E-02    0.131E-01
DAV:   5    -0.656426978000E+03    0.72876E-04   -0.28230E-04   336   0.201E-02
  90 F= -.67174908E+03 E0= -.67168610E+03  d E =-.411079E-03
       N       E                     dE             d eps       ncg     rms          rms(c)
DAV:   1    -0.656427726936E+03   -0.67606E-03   -0.61826E-01   600   0.967E-01    0.273E-01
DAV:   2    -0.656429620766E+03   -0.18938E-02   -0.16909E-02   840   0.168E-01    0.681E-01
DAV:   3    -0.656432486403E+03   -0.28656E-02   -0.27524E-02   804   0.177E-01    0.132E+00
DAV:   4    -0.656429200262E+03    0.32861E-02   -0.17530E-02   744   0.138E-01    0.329E-01
DAV:   5    -0.656428648593E+03    0.55167E-03   -0.39263E-03   648   0.585E-02    0.120E-01
DAV:   6    -0.656428510515E+03    0.13808E-03   -0.42415E-04   660   0.322E-02    0.656E-02
DAV:   7    -0.656428502034E+03    0.84806E-05   -0.23096E-04   576   0.273E-02
  91 F= -.67174959E+03 E0= -.67168674E+03  d E =-.918109E-03
       N       E                     dE             d eps       ncg     rms          rms(c)
DAV:   1    -0.656429122974E+03   -0.61246E-03   -0.54087E-02   600   0.300E-01    0.923E-02
DAV:   2    -0.656429224893E+03   -0.10192E-03   -0.14031E-03   864   0.546E-02    0.857E-02
[...]
DAV:   8    -0.656430637847E+03    0.20423E-04   -0.10468E-04   372   0.148E-02
  93 F= -.67175065E+03 E0= -.67168814E+03  d E =-.105968E-02
       N       E                     dE             d eps       ncg     rms          rms(c)
DAV:   1    -0.656431389176E+03   -0.73091E-03   -0.13010E-01   600   0.461E-01    0.150E-01
DAV:   2    -0.656431785302E+03   -0.39613E-03   -0.33748E-03   816   0.839E-02    0.328E-01
DAV:   3    -0.656433069573E+03   -0.12843E-02   -0.90001E-03   660   0.100E-01    0.827E-01
DAV:   4    -0.656431716664E+03    0.13529E-02   -0.64635E-03   540   0.903E-02    0.268E-01
DAV:   5    -0.656431650520E+03    0.66144E-04   -0.23613E-04   492   0.331E-02
  94 F= -.67175130E+03 E0= -.67168909E+03  d E =-.653364E-03
       N       E                     dE             d eps       ncg     rms          rms(c)
DAV:   1    -0.656431897378E+03   -0.18071E-03   -0.20742E-01   600   0.583E-01    0.171E-01
DAV:   2    -0.656432239479E+03   -0.34210E-03   -0.47287E-03   804   0.101E-01    0.109E-01
DAV:   3    -0.656432957547E+03   -0.71807E-03   -0.52607E-03   756   0.763E-02    0.508E-01
DAV:   4    -0.656432329401E+03    0.62815E-03   -0.27561E-03   516   0.530E-02    0.127E-01
DAV:   5    -0.656432262769E+03    0.66632E-04   -0.38582E-04   564   0.384E-02
  95 F= -.67175146E+03 E0= -.67168825E+03  d E =-.808656E-03
       N       E                     dE             d eps       ncg     rms          rms(c)
DAV:   1    -0.656432668439E+03   -0.33904E-03   -0.12616E-01   600   0.450E-01    0.123E-01
DAV:   2    -0.656433406393E+03   -0.73795E-03   -0.55617E-03   912   0.100E-01    0.427E-01
DAV:   3    -0.656433590551E+03   -0.18416E-03   -0.96668E-03   648   0.946E-02    0.580E-01
DAV:   4    -0.656433131924E+03    0.45863E-03   -0.12066E-03   648   0.561E-02    0.107E-01
DAV:   5    -0.656432833789E+03    0.29813E-03   -0.26662E-04   552   0.329E-02    0.143E-01
DAV:   6    -0.656432813903E+03    0.19887E-04   -0.17656E-04   456   0.231E-02
  96 F= -.67175167E+03 E0= -.67168903E+03  d E =-.212479E-03
       N       E                     dE             d eps       ncg     rms          rms(c)
DAV:   1    -0.656433104655E+03   -0.27087E-03   -0.30903E-01   600   0.700E-01    0.187E-01
DAV:   2    -0.656434184639E+03   -0.10800E-02   -0.88167E-03   876   0.137E-01    0.544E-01
DAV:   3    -0.656435027923E+03   -0.84328E-03   -0.21271E-02   708   0.124E-01    0.826E-01
DAV:   4    -0.656433685943E+03    0.13420E-02   -0.89816E-03   552   0.719E-02    0.978E-02
DAV:   5    -0.656433605629E+03    0.80314E-04   -0.58424E-04   516   0.326E-02
  97 F= -.67175193E+03 E0= -.67168952E+03  d E =-.475968E-03
       N       E                     dE             d eps       ncg     rms          rms(c)
DAV:   1    -0.656434404847E+03   -0.71890E-03   -0.65249E-02   600   0.331E-01    0.189E-01
DAV:   2    -0.656445778453E+03   -0.11374E-01   -0.20879E-02   864   0.229E-01    0.208E+00
DAV:   3    -0.656436660971E+03    0.91175E-02   -0.73637E-02   744   0.228E-01    0.617E-01
DAV:   4    -0.656434584118E+03    0.20769E-02   -0.14743E-02   744   0.847E-02    0.147E-01
DAV:   5    -0.656434397688E+03    0.18643E-03   -0.21543E-04   432   0.316E-02    0.600E-02
DAV:   6    -0.656434382131E+03    0.15556E-04   -0.80085E-05   372   0.144E-02
  98 F= -.67175233E+03 E0= -.67168987E+03  d E =-.400325E-03
       N       E                     dE             d eps       ncg     rms          rms(c)
DAV:   1    -0.656434611667E+03   -0.21398E-03   -0.16179E-02   600   0.165E-01    0.580E-02
DAV:   2    -0.656434733893E+03   -0.12223E-03   -0.95679E-04   600   0.415E-02    0.217E-01
DAV:   3    -0.656434723528E+03    0.10365E-04   -0.16707E-03   468   0.425E-02    0.230E-01
DAV:   4    -0.656434650538E+03    0.72990E-04   -0.44649E-04   348   0.211E-02
  99 F= -.67175241E+03 E0= -.67168989E+03  d E =-.481118E-03
       N       E                     dE             d eps       ncg     rms          rms(c)
DAV:   1    -0.656435406480E+03   -0.68295E-03   -0.48319E-02   600   0.299E-01    0.118E-01
DAV:   2    -0.656437112372E+03   -0.17059E-02   -0.14235E-02   888   0.107E-01    0.830E-01
DAV:   3    -0.656435888518E+03    0.12239E-02   -0.18442E-02   636   0.100E-01    0.350E-01
DAV:   4    -0.656435728481E+03    0.16004E-03   -0.65602E-04   636   0.476E-02    0.128E-01
DAV:   5    -0.656435464024E+03    0.26446E-03   -0.21392E-04   432   0.279E-02    0.382E-02
DAV:   6    -0.656435472264E+03   -0.82398E-05   -0.62338E-05   336   0.161E-02
 100 F= -.67175285E+03 E0= -.67169005E+03  d E =-.435704E-03
       N       E                     dE             d eps       ncg     rms          rms(c)
DAV:   1    -0.656435995779E+03   -0.53175E-03   -0.81568E-02   600   0.391E-01    0.140E-01
DAV:   2    -0.656436356714E+03   -0.36094E-03   -0.36926E-03   864   0.816E-02    0.307E-01
DAV:   3    -0.656437413069E+03   -0.10564E-02   -0.99654E-03   648   0.961E-02    0.777E-01
DAV:   4    -0.656436225361E+03    0.11877E-02   -0.28434E-03   528   0.735E-02    0.114E-01
DAV:   5    -0.656436157932E+03    0.67429E-04   -0.13896E-04   468   0.293E-02
 101 F= -.67175303E+03 E0= -.67169073E+03  d E =-.615313E-03
       N       E                     dE             d eps       ncg     rms          rms(c)
DAV:   1    -0.656436809438E+03   -0.58408E-03   -0.50057E-02   600   0.287E-01    0.102E-01
DAV:   2    -0.656437093960E+03   -0.28452E-03   -0.27239E-03   876   0.685E-02    0.298E-01
DAV:   3    -0.656437359186E+03   -0.26523E-03   -0.56220E-03   588   0.685E-02    0.481E-01
DAV:   4    -0.656436967243E+03    0.39194E-03   -0.95826E-04   480   0.456E-02    0.631E-02
DAV:   5    -0.656436900942E+03    0.66301E-04   -0.79241E-05   420   0.227E-02
 102 F= -.67175328E+03 E0= -.67169092E+03  d E =-.247316E-03
       N       E                     dE             d eps       ncg     rms          rms(c)
DAV:   1    -0.656437130188E+03   -0.16295E-03   -0.11622E-02   600   0.139E-01    0.610E-02
DAV:   2    -0.656437531049E+03   -0.40086E-03   -0.27183E-03   828   0.588E-02    0.339E-01
DAV:   3    -0.656437314724E+03    0.21632E-03   -0.37825E-03   504   0.554E-02    0.278E-01
DAV:   4    -0.656437187320E+03    0.12740E-03   -0.36483E-04   504   0.344E-02    0.496E-02
DAV:   5    -0.656437130699E+03    0.56621E-04   -0.51888E-05   336   0.189E-02
 103 F= -.67175327E+03 E0= -.67169074E+03  d E =-.237545E-03
       N       E                     dE             d eps       ncg     rms          rms(c)
DAV:   1    -0.656437631541E+03   -0.44422E-03   -0.42958E-02   600   0.279E-01    0.881E-02
DAV:   2    -0.656438422753E+03   -0.79121E-03   -0.56806E-03   852   0.859E-02    0.568E-01
DAV:   3    -0.656437865621E+03    0.55713E-03   -0.69253E-03   528   0.706E-02    0.259E-01
DAV:   4    -0.656437718555E+03    0.14707E-03   -0.31133E-04   432   0.279E-02    0.400E-02
DAV:   5    -0.656437702174E+03    0.16381E-04   -0.47087E-05   336   0.161E-02
 104 F= -.67175354E+03 E0= -.67169110E+03  d E =-.271684E-03
       N       E                     dE             d eps       ncg     rms          rms(c)
DAV:   1    -0.656437849205E+03   -0.13065E-03   -0.75662E-03   600   0.118E-01    0.793E-02
DAV:   2    -0.656440293233E+03   -0.24440E-02   -0.23426E-02   816   0.115E-01    0.966E-01
DAV:   3    -0.656438321155E+03    0.19721E-02   -0.26119E-02   576   0.103E-01    0.308E-01
DAV:   4    -0.656437861774E+03    0.45938E-03   -0.48071E-04   576   0.420E-02    0.347E-02
DAV:   5    -0.656437832179E+03    0.29594E-04   -0.48916E-05   324   0.161E-02
 105 F= -.67175354E+03 E0= -.67169091E+03  d E =-.275861E-03
       N       E                     dE             d eps       ncg     rms          rms(c)
DAV:   1    -0.656438040293E+03   -0.17852E-03   -0.48626E-02   600   0.309E-01    0.106E-01
DAV:   2    -0.656439027475E+03   -0.98718E-03   -0.66531E-03   888   0.893E-02    0.642E-01
DAV:   3    -0.656438381343E+03    0.64613E-03   -0.92345E-03   600   0.829E-02    0.317E-01
DAV:   4    -0.656438155701E+03    0.22564E-03   -0.81486E-04   480   0.324E-02    0.712E-02
DAV:   5    -0.656438110043E+03    0.45659E-04   -0.79237E-05   408   0.134E-02
 106 F= -.67175378E+03 E0= -.67169102E+03  d E =-.242569E-03
       N       E                     dE             d eps       ncg     rms          rms(c)
DAV:   1    -0.656438154703E+03    0.99835E-06   -0.66147E-03   600   0.115E-01    0.477E-02
DAV:   2    -0.656438637685E+03   -0.48298E-03   -0.88195E-04   684   0.391E-02    0.130E-01
DAV:   3    -0.656438116873E+03    0.52081E-03   -0.53200E-04   576   0.331E-02    0.368E-02
DAV:   4    -0.656438193118E+03   -0.76245E-04   -0.37460E-04   384   0.230E-02
 107 F= -.67175385E+03 E0= -.67169092E+03  d E =-.311931E-03
       N       E                     dE             d eps       ncg     rms          rms(c)
DAV:   1    -0.656438021847E+03    0.95027E-04   -0.42546E-02   600   0.275E-01    0.881E-02
DAV:   2    -0.656438130750E+03   -0.10890E-03   -0.11926E-03   804   0.550E-02    0.107E-01
DAV:   3    -0.656438767384E+03   -0.63663E-03   -0.44296E-03   540   0.576E-02    0.549E-01
DAV:   4    -0.656438146388E+03    0.62100E-03   -0.36804E-03   492   0.516E-02    0.833E-02
DAV:   5    -0.656438183121E+03   -0.36732E-04   -0.12756E-04   456   0.204E-02
 108 F= -.67175406E+03 E0= -.67169082E+03  d E =-.206930E-03
       N       E                     dE             d eps       ncg     rms          rms(c)
DAV:   1    -0.656438073815E+03    0.72574E-04   -0.23766E-03   564   0.663E-02    0.124E-01
DAV:   2    -0.656445602926E+03   -0.75291E-02   -0.16835E-02   792   0.172E-01    0.181E+00
DAV:   3    -0.656438759258E+03    0.68437E-02   -0.18924E-02   720   0.169E-01    0.345E-01
DAV:   4    -0.656438129589E+03    0.62967E-03   -0.11333E-03   492   0.468E-02    0.102E-01
DAV:   5    -0.656438060009E+03    0.69580E-04   -0.69718E-05   336   0.179E-02
 109 F= -.67175399E+03 E0= -.67169134E+03  d E =-.134911E-03
       N       E                     dE             d eps       ncg     rms          rms(c)
DAV:   1    -0.656438083457E+03    0.46132E-04   -0.33406E-02   600   0.245E-01    0.767E-02
DAV:   2    -0.656438534251E+03   -0.45079E-03   -0.26668E-03   840   0.687E-02    0.422E-01
DAV:   3    -0.656438247813E+03    0.28644E-03   -0.35878E-03   516   0.547E-02    0.221E-01
DAV:   4    -0.656438175451E+03    0.72362E-04   -0.34849E-04   408   0.249E-02
 110 F= -.67175421E+03 E0= -.67169121E+03  d E =-.221110E-03
       N       E                     dE             d eps       ncg     rms          rms(c)
DAV:   1    -0.656438093657E+03    0.15416E-03   -0.11990E-02   600   0.148E-01    0.543E-02
DAV:   2    -0.656438359843E+03   -0.26619E-03   -0.61244E-04   696   0.375E-02    0.118E-01
DAV:   3    -0.656438168420E+03    0.19142E-03   -0.24506E-04   468   0.354E-02    0.202E-01
DAV:   4    -0.656438145549E+03    0.22871E-04   -0.84119E-04   360   0.323E-02
 111 F= -.67175424E+03 E0= -.67169155E+03  d E =-.254849E-03
       N       E                     dE             d eps       ncg     rms          rms(c)
DAV:   1    -0.656438183392E+03   -0.14972E-04   -0.43793E-02   600   0.277E-01    0.845E-02
DAV:   2    -0.656438271624E+03   -0.88232E-04   -0.10665E-03   756   0.504E-02    0.117E-01
DAV:   3    -0.656438749337E+03   -0.47771E-03   -0.20214E-03   528   0.523E-02    0.481E-01
DAV:   4    -0.656438316299E+03    0.43304E-03   -0.26245E-03   444   0.533E-02    0.156E-01
DAV:   5    -0.656438318863E+03   -0.25635E-05   -0.69498E-04   420   0.239E-02
 112 F= -.67175444E+03 E0= -.67169163E+03  d E =-.192090E-03
       N       E                     dE             d eps       ncg     rms          rms(c)
DAV:   1    -0.656438247315E+03    0.68984E-04   -0.15292E-03   564   0.546E-02    0.689E-02
DAV:   2    -0.656440790568E+03   -0.25433E-02   -0.17101E-02   588   0.998E-02    0.106E+00
DAV:   3    -0.656438494295E+03    0.22963E-02   -0.20355E-02   564   0.992E-02    0.166E-01
DAV:   4    -0.656438264210E+03    0.23008E-03   -0.58705E-04   408   0.283E-02    0.873E-02
DAV:   5    -0.656438246326E+03    0.17885E-04   -0.27506E-05   312   0.110E-02
 113 F= -.67175437E+03 E0= -.67169158E+03  d E =-.123044E-03
       N       E                     dE             d eps       ncg     rms          rms(c)
DAV:   1    -0.656438655356E+03   -0.39115E-03   -0.35770E-02   600   0.243E-01    0.930E-02
DAV:   2    -0.656439831434E+03   -0.11761E-02   -0.41612E-03   816   0.908E-02    0.714E-01
DAV:   3    -0.656438818425E+03    0.10130E-02   -0.61361E-03   576   0.825E-02    0.246E-01
DAV:   4    -0.656438763454E+03    0.54971E-04   -0.98083E-04   468   0.286E-02
 114 F= -.67175462E+03 E0= -.67169178E+03  d E =-.253261E-03
       N       E                     dE             d eps       ncg     rms          rms(c)
DAV:   1    -0.656438889318E+03   -0.70893E-04   -0.16877E-02   600   0.169E-01    0.606E-02
DAV:   2    -0.656439086390E+03   -0.19707E-03   -0.11046E-03   744   0.449E-02    0.194E-01
DAV:   3    -0.656439064673E+03    0.21718E-04   -0.20895E-03   480   0.441E-02    0.268E-01
DAV:   4    -0.656438952763E+03    0.11191E-03   -0.41973E-04   456   0.309E-02    0.623E-02
DAV:   5    -0.656438905334E+03    0.47429E-04   -0.41633E-05   348   0.185E-02
 115 F= -.67175458E+03 E0= -.67169173E+03  d E =-.213184E-03
       N       E                     dE             d eps       ncg     rms          rms(c)
DAV:   1    -0.656439305686E+03   -0.35292E-03   -0.21430E-02   600   0.189E-01    0.630E-02
DAV:   2    -0.656439697801E+03   -0.39211E-03   -0.22017E-03   768   0.499E-02    0.411E-01
DAV:   3    -0.656439400973E+03    0.29683E-03   -0.30677E-03   516   0.502E-02    0.181E-01
DAV:   4    -0.656439387800E+03    0.13173E-04   -0.32083E-04   468   0.272E-02
 116 F= -.67175477E+03 E0= -.67169166E+03  d E =-.193491E-03
       N       E                     dE             d eps       ncg     rms          rms(c)
DAV:   1    -0.656439632934E+03   -0.23196E-03   -0.19002E-02   600   0.179E-01    0.579E-02
DAV:   2    -0.656439813472E+03   -0.18054E-03   -0.10810E-03   732   0.479E-02    0.164E-01
DAV:   3    -0.656439798490E+03    0.14982E-04   -0.20253E-03   504   0.438E-02    0.267E-01
DAV:   4    -0.656439683264E+03    0.11523E-03   -0.47964E-04   384   0.304E-02    0.647E-02
DAV:   5    -0.656439648051E+03    0.35213E-04   -0.42755E-05   312   0.187E-02
 117 F= -.67175476E+03 E0= -.67169192E+03  d E =-.182285E-03
       N       E                     dE             d eps       ncg     rms          rms(c)
DAV:   1    -0.656439943614E+03   -0.26035E-03   -0.10752E-02   600   0.137E-01    0.905E-02
DAV:   2    -0.656443485319E+03   -0.35417E-02   -0.29231E-02   768   0.115E-01    0.124E+00
DAV:   3    -0.656440227310E+03    0.32580E-02   -0.32414E-02   588   0.112E-01    0.218E-01
DAV:   4    -0.656440040350E+03    0.18696E-03   -0.66882E-04   468   0.367E-02    0.166E-01
DAV:   5    -0.656439952690E+03    0.87659E-04   -0.87692E-05   348   0.182E-02
 118 F= -.67175492E+03 E0= -.67169217E+03  d E =-.161718E-03
       N       E                     dE             d eps       ncg     rms          rms(c)
DAV:   1    -0.656440136546E+03   -0.96197E-04   -0.13019E-02   600   0.150E-01    0.569E-02
DAV:   2    -0.656440768406E+03   -0.63186E-03   -0.17046E-03   600   0.650E-02    0.510E-01
DAV:   3    -0.656440251859E+03    0.51655E-03   -0.29241E-03   432   0.580E-02    0.156E-01
DAV:   4    -0.656440205142E+03    0.46718E-04   -0.63520E-04   372   0.249E-02
 119 F= -.67175502E+03 E0= -.67169210E+03  d E =-.257950E-03
       N       E                     dE             d eps       ncg     rms          rms(c)
DAV:   1    -0.656440398222E+03   -0.14636E-03   -0.94064E-03   600   0.129E-01    0.429E-02
DAV:   2    -0.656440414353E+03   -0.16131E-04   -0.21334E-04   480   0.246E-02
 120 F= -.67175510E+03 E0= -.67169242E+03  d E =-.759941E-04
       N       E                     dE             d eps       ncg     rms          rms(c)
DAV:   1    -0.656440740219E+03   -0.34200E-03   -0.12305E-02   636   0.147E-01    0.250E-01
DAV:   2    -0.656471378331E+03   -0.30638E-01   -0.59502E-02   804   0.360E-01    0.319E+00
DAV:   3    -0.656442153184E+03    0.29225E-01   -0.53627E-02   780   0.344E-01    0.410E-01
DAV:   4    -0.656441018875E+03    0.11343E-02   -0.47402E-03   612   0.699E-02    0.362E-01
DAV:   5    -0.656440685927E+03    0.33295E-03   -0.17240E-04   444   0.258E-02    0.169E-01
DAV:   6    -0.656440634847E+03    0.51080E-04   -0.23678E-04   360   0.160E-02
 121 F= -.67175517E+03 E0= -.67169263E+03  d E =-.150209E-03
       N       E                     dE             d eps       ncg     rms          rms(c)
DAV:   1    -0.656440758876E+03   -0.72949E-04   -0.44812E-02   600   0.279E-01    0.120E-01
DAV:   2    -0.656443332362E+03   -0.25735E-02   -0.22067E-02   864   0.112E-01    0.106E+00
DAV:   3    -0.656441306404E+03    0.20260E-02   -0.30533E-02   636   0.111E-01    0.371E-01
DAV:   4    -0.656441023907E+03    0.28250E-03   -0.13184E-03   564   0.482E-02    0.211E-01
DAV:   5    -0.656440836102E+03    0.18780E-03   -0.15838E-04   408   0.266E-02    0.969E-02
DAV:   6    -0.656440807083E+03    0.29019E-04   -0.14427E-04   372   0.159E-02
 122 F= -.67175505E+03 E0= -.67169221E+03  d E =-.288661E-04
       N       E                     dE             d eps       ncg     rms          rms(c)
DAV:   1    -0.656440663260E+03    0.17284E-03   -0.24199E-02   600   0.204E-01    0.658E-02
DAV:   2    -0.656440714159E+03   -0.50899E-04   -0.55602E-04   672   0.362E-02
 123 F= -.67175517E+03 E0= -.67169233E+03  d E =-.149078E-03
       N       E                     dE             d eps       ncg     rms          rms(c)
DAV:   1    -0.656441064902E+03   -0.40164E-03   -0.51794E-03   636   0.972E-02    0.348E-01
DAV:   2    -0.656492993652E+03   -0.51929E-01   -0.49657E-01   840   0.501E-01    0.339E+00
DAV:   3    -0.656442599773E+03    0.50394E-01   -0.24871E-01   828   0.429E-01    0.541E-01
DAV:   4    -0.656441213596E+03    0.13862E-02   -0.55012E-03   660   0.841E-02    0.289E-01
DAV:   5    -0.656440935947E+03    0.27765E-03   -0.45513E-04   480   0.376E-02    0.269E-01
DAV:   6    -0.656440937303E+03   -0.13559E-05   -0.47679E-05   336   0.120E-02
 124 F= -.67175536E+03 E0= -.67169221E+03  d E =-.189409E-03
       N       E                     dE             d eps       ncg     rms          rms(c)
DAV:   1    -0.656440973157E+03   -0.37209E-04   -0.94902E-04   564   0.395E-02    0.280E-01
DAV:   2    -0.656477283843E+03   -0.36311E-01   -0.77270E-02   828   0.390E-01    0.336E+00
DAV:   3    -0.656442899352E+03    0.34384E-01   -0.67603E-02   780   0.387E-01    0.551E-01
DAV:   4    -0.656441163021E+03    0.17363E-02   -0.50728E-03   672   0.777E-02    0.265E-01
DAV:   5    -0.656440931324E+03    0.23170E-03   -0.20917E-04   468   0.278E-02    0.151E-01
DAV:   6    -0.656440878098E+03    0.53226E-04   -0.37055E-05   324   0.145E-02
 125 F= -.67175528E+03 E0= -.67169282E+03  d E =-.115072E-03
       N       E                     dE             d eps       ncg     rms          rms(c)
DAV:   1    -0.656440886381E+03    0.44943E-04   -0.36965E-03   564   0.784E-02    0.441E-02
DAV:   2    -0.656441529411E+03   -0.64303E-03   -0.27795E-03   456   0.548E-02    0.543E-01
DAV:   3    -0.656440952679E+03    0.57673E-03   -0.35198E-03   432   0.580E-02    0.134E-01
DAV:   4    -0.656440902874E+03    0.49805E-04   -0.25535E-04   384   0.171E-02
 126 F= -.67175528E+03 E0= -.67169259E+03  d E =-.109582E-03
       N       E                     dE             d eps       ncg     rms          rms(c)
DAV:   1    -0.656440910804E+03    0.41875E-04   -0.45662E-03   564   0.895E-02    0.440E-02
DAV:   2    -0.656441549402E+03   -0.63860E-03   -0.19020E-03   480   0.564E-02    0.527E-01
DAV:   3    -0.656440987338E+03    0.56206E-03   -0.30552E-03   408   0.571E-02    0.141E-01
DAV:   4    -0.656440925738E+03    0.61600E-04   -0.32913E-04   372   0.194E-02
 127 F= -.67175536E+03 E0= -.67169264E+03  d E =-.865000E-04
