<?xml version="1.0" encoding="ISO-8859-1"?>
<modeling>
 <generator>
  <i name="program" type="string">vasp </i>
  <i name="version" type="string">5.4.1  </i>
  <i name="subversion" type="string">05Feb16 (build Apr 21 2017 13:36:42) gamma-only                       parallel </i>
  <i name="platform" type="string">IFC91_ompi </i>
  <i name="date" type="string">2020 09 15 </i>
  <i name="time" type="string">09:48:50 </i>
 </generator>
 <incar>
  <i type="string" name="SYSTEM"> basalPlane</i>
  <i type="int" name="ISTART">     0</i>
  <i type="string" name="PREC">accurate  !=accurate, max(enmax) no wra</i>
  <i type="string" name="ALGO"> Normal    !=Normal, blocked Davidson it</i>
  <i type="int" name="NSIM">     4</i>
  <i type="int" name="ISPIN">     1</i>
  <i type="int" name="ICHARG">     2</i>
  <i type="int" name="INIWAV">     1</i>
  <i type="int" name="NELM">   200</i>
  <i type="int" name="NELMDL">    -5</i>
  <i type="int" name="NELMIN">     2</i>
  <i type="int" name="IBRION">     2</i>
  <i name="EDIFF">      0.00010000</i>
  <i name="EDIFFG">     -0.02000000</i>
  <i type="int" name="NSW"> 10000</i>
  <i type="int" name="ISIF">     2</i>
  <i type="int" name="ISYM">     2</i>
  <i name="ENCUT">    400.00000000</i>
  <i name="ENAUG">    645.00000000</i>
  <i type="string" name="LREAL"> Auto     !=Auto projection operators ev</i>
  <i type="logical" name="LPLANE"> T  </i>
  <i type="int" name="ISMEAR">     0</i>
  <i name="SIGMA">      0.10000000</i>
  <i type="int" name="NWRITE">     2</i>
  <i type="logical" name="LWAVE"> F  </i>
  <i type="logical" name="LCHARG"> F  </i>
  <i type="logical" name="LORBIT"> F  </i>
  <i type="logical" name="LELF"> F  </i>
  <i type="logical" name="LSCALU"> F  </i>
  <v type="int" name="KPOINT_BSE">    -1     0     0     0</v>
  <i type="int" name="NELM">   200</i>
 </incar>
 <kpoints>
  <varray name="kpointlist" >
   <v>       0.00000000       0.00000000       0.00000000 </v>
  </varray>
  <varray name="weights" >
   <v>       1.00000000 </v>
  </varray>
 </kpoints>
 <parameters>
  <separator name="general" >
   <i type="string" name="SYSTEM">basalPlane</i>
   <i type="logical" name="LCOMPAT"> F  </i>
  </separator>
  <separator name="electronic" >
   <i type="string" name="PREC">accura</i>
   <i name="ENMAX">    400.00000000</i>
   <i name="ENAUG">    645.00000000</i>
   <i name="EDIFF">      0.00010000</i>
   <i type="int" name="IALGO">    38</i>
   <i type="int" name="IWAVPR">    11</i>
   <i type="int" name="NBANDS">   300</i>
   <i name="NELECT">    491.00000000</i>
   <i type="int" name="TURBO">     0</i>
   <i type="int" name="IRESTART">     0</i>
   <i type="int" name="NREBOOT">     0</i>
   <i type="int" name="NMIN">     0</i>
   <i name="EREF">      0.00000000</i>
   <separator name="electronic smearing" >
    <i type="int" name="ISMEAR">     0</i>
    <i name="SIGMA">      0.10000000</i>
    <i name="KSPACING">      0.50000000</i>
    <i type="logical" name="KGAMMA"> T  </i>
   </separator>
   <separator name="electronic projectors" >
    <i type="logical" name="LREAL"> T  </i>
    <v name="ROPT">     -0.00025000     -0.00025000     -0.00025000     -0.00025000     -0.00025000</v>
    <i type="int" name="LMAXPAW">  -100</i>
    <i type="int" name="LMAXMIX">     2</i>
    <i type="logical" name="NLSPLINE"> F  </i>
   </separator>
   <separator name="electronic startup" >
    <i type="int" name="ISTART">     0</i>
    <i type="int" name="ICHARG">     2</i>
    <i type="int" name="INIWAV">     1</i>
   </separator>
   <separator name="electronic spin" >
    <i type="int" name="ISPIN">     1</i>
    <i type="logical" name="LNONCOLLINEAR"> F  </i>
    <v name="MAGMOM">      1.00000000      1.00000000      1.00000000      1.00000000      1.00000000      1.00000000      1.00000000      1.00000000      1.00000000      1.00000000      1.00000000      1.00000000      1.00000000      1.00000000      1.00000000      1.00000000      1.00000000      1.00000000      1.00000000      1.00000000
      1.00000000      1.00000000      1.00000000      1.00000000      1.00000000      1.00000000      1.00000000      1.00000000      1.00000000      1.00000000      1.00000000      1.00000000      1.00000000      1.00000000      1.00000000      1.00000000      1.00000000      1.00000000      1.00000000      1.00000000
      1.00000000      1.00000000      1.00000000      1.00000000      1.00000000      1.00000000      1.00000000      1.00000000      1.00000000      1.00000000      1.00000000      1.00000000      1.00000000      1.00000000      1.00000000      1.00000000      1.00000000      1.00000000      1.00000000      1.00000000
      1.00000000      1.00000000      1.00000000      1.00000000      1.00000000      1.00000000      1.00000000      1.00000000      1.00000000      1.00000000      1.00000000      1.00000000      1.00000000      1.00000000      1.00000000      1.00000000      1.00000000      1.00000000      1.00000000      1.00000000
      1.00000000      1.00000000      1.00000000      1.00000000      1.00000000      1.00000000      1.00000000      1.00000000      1.00000000      1.00000000      1.00000000      1.00000000      1.00000000</v>
    <i name="NUPDOWN">     -1.00000000</i>
    <i type="logical" name="LSORBIT"> F  </i>
    <v name="SAXIS">      0.00000000      0.00000000      1.00000000</v>
    <i type="logical" name="LSPIRAL"> F  </i>
    <v name="QSPIRAL">      0.00000000      0.00000000      0.00000000</v>
    <i type="logical" name="LZEROZ"> F  </i>
   </separator>
   <separator name="electronic exchange-correlation" >
    <i type="logical" name="LASPH"> F  </i>
    <i type="logical" name="LMETAGGA"> F  </i>
   </separator>
   <separator name="electronic convergence" >
    <i type="int" name="NELM">   200</i>
    <i type="int" name="NELMDL">    -5</i>
    <i type="int" name="NELMIN">     2</i>
    <i name="ENINI">    400.00000000</i>
    <separator name="electronic convergence detail" >
     <i type="logical" name="LDIAG"> T  </i>
     <i type="logical" name="LSUBROT"> F  </i>
     <i name="WEIMIN">      0.00100000</i>
     <i name="EBREAK">      0.00000008</i>
     <i name="DEPER">      0.30000000</i>
     <i type="int" name="NRMM">     4</i>
     <i name="TIME">      0.40000000</i>
    </separator>
   </separator>
   <separator name="electronic mixer" >
    <i name="AMIX">      0.40000000</i>
    <i name="BMIX">      1.00000000</i>
    <i name="AMIN">      0.10000000</i>
    <i name="AMIX_MAG">      1.60000000</i>
    <i name="BMIX_MAG">      1.00000000</i>
    <separator name="electronic mixer details" >
     <i type="int" name="IMIX">     4</i>
     <i type="logical" name="MIXFIRST"> F  </i>
     <i type="int" name="MAXMIX">   -45</i>
     <i name="WC">    100.00000000</i>
     <i type="int" name="INIMIX">     1</i>
     <i type="int" name="MIXPRE">     1</i>
     <i type="int" name="MREMOVE">     5</i>
    </separator>
   </separator>
   <separator name="electronic dipolcorrection" >
    <i type="logical" name="LDIPOL"> F  </i>
    <i type="logical" name="LMONO"> F  </i>
    <i type="int" name="IDIPOL">     0</i>
    <i name="EPSILON">      1.00000000</i>
    <v name="DIPOL">   -100.00000000   -100.00000000   -100.00000000</v>
    <i name="EFIELD">      0.00000000</i>
   </separator>
  </separator>
  <separator name="grids" >
   <i type="int" name="NGX">    64</i>
   <i type="int" name="NGY">    84</i>
   <i type="int" name="NGZ">   240</i>
   <i type="int" name="NGXF">   128</i>
   <i type="int" name="NGYF">   168</i>
   <i type="int" name="NGZF">   480</i>
   <i type="logical" name="ADDGRID"> F  </i>
  </separator>
  <separator name="ionic" >
   <i type="int" name="NSW"> 10000</i>
   <i type="int" name="IBRION">     2</i>
   <i type="int" name="ISIF">     2</i>
   <i name="PSTRESS">      0.00000000</i>
   <i name="EDIFFG">     -0.02000000</i>
   <i type="int" name="NFREE">     1</i>
   <i name="POTIM">      0.50000000</i>
   <i name="SMASS">     -3.00000000</i>
   <i name="SCALEE">      1.00000000</i>
  </separator>
  <separator name="ionic md" >
   <i name="TEBEG">      0.00010000</i>
   <i name="TEEND">      0.00010000</i>
   <i type="int" name="NBLOCK">     1</i>
   <i type="int" name="KBLOCK"> 10000</i>
   <i type="int" name="NPACO">   256</i>
   <i name="APACO">     16.00000000</i>
  </separator>
  <separator name="symmetry" >
   <i type="int" name="ISYM">     2</i>
   <i name="SYMPREC">      0.00001000</i>
  </separator>
  <separator name="dos" >
   <i type="logical" name="LORBIT"> F  </i>
   <v name="RWIGS">     -1.00000000     -1.00000000     -1.00000000     -1.00000000     -1.00000000</v>
   <i type="int" name="NEDOS">   301</i>
   <i name="EMIN">     10.00000000</i>
   <i name="EMAX">    -10.00000000</i>
   <i name="EFERMI">      0.00000000</i>
  </separator>
  <separator name="writing" >
   <i type="int" name="NWRITE">     2</i>
   <i type="logical" name="LWAVE"> F  </i>
   <i type="logical" name="LCHARG"> F  </i>
   <i type="logical" name="LPARD"> F  </i>
   <i type="logical" name="LVTOT"> F  </i>
   <i type="logical" name="LVHAR"> F  </i>
   <i type="logical" name="LELF"> F  </i>
   <i type="logical" name="LOPTICS"> F  </i>
   <v name="STM">      0.00000000      0.00000000      0.00000000      0.00000000      0.00000000      0.00000000      0.00000000</v>
  </separator>
  <separator name="performance" >
   <i type="int" name="NPAR">    12</i>
   <i type="int" name="NSIM">     4</i>
   <i type="int" name="NBLK">    -1</i>
   <i type="logical" name="LPLANE"> T  </i>
   <i type="logical" name="LSCALAPACK"> T  </i>
   <i type="logical" name="LSCAAWARE"> F  </i>
   <i type="logical" name="LSCALU"> F  </i>
   <i type="logical" name="LASYNC"> F  </i>
   <i type="logical" name="LORBITALREAL"> F  </i>
  </separator>
  <separator name="miscellaneous" >
   <i type="int" name="IDIOT">     3</i>
   <i type="logical" name="LMUSIC"> F  </i>
   <v name="POMASS">     12.01100000     58.93300000      1.00000000     95.94000000     32.06600000</v>
   <v name="DARWINR">      0.00000000      0.00000000      0.00000000      0.00000000      0.00000000</v>
   <v name="DARWINV">      1.00000000      1.00000000      1.00000000      1.00000000      1.00000000</v>
   <i type="logical" name="LCORR"> T  </i>
  </separator>
  <i type="logical" name="GGA_COMPAT"> T  </i>
  <i type="logical" name="LBERRY"> F  </i>
  <i type="int" name="ICORELEVEL">     0</i>
  <i type="logical" name="LDAU"> F  </i>
  <i type="int" name="I_CONSTRAINED_M">     0</i>
  <separator name="electronic exchange-correlation" >
   <i type="string" name="GGA">--</i>
   <i type="int" name="VOSKOWN">     0</i>
   <i type="logical" name="LHFCALC"> F  </i>
   <i type="string" name="PRECFOCK"></i>
   <i type="logical" name="LSYMGRAD"> F  </i>
   <i type="logical" name="LHFONE"> F  </i>
   <i type="logical" name="LRHFCALC"> F  </i>
   <i type="logical" name="LTHOMAS"> F  </i>
   <i type="logical" name="LMODELHF"> F  </i>
   <i name="ENCUT4O">     -1.00000000</i>
   <i type="int" name="EXXOEP">     0</i>
   <i type="int" name="FOURORBIT">     0</i>
   <i name="AEXX">      0.00000000</i>
   <i name="HFALPHA">      0.00000000</i>
   <i name="MCALPHA">      0.00000000</i>
   <i name="ALDAX">      1.00000000</i>
   <i name="AGGAX">      1.00000000</i>
   <i name="ALDAC">      1.00000000</i>
   <i name="AGGAC">      1.00000000</i>
   <i type="int" name="NKREDX">     1</i>
   <i type="int" name="NKREDY">     1</i>
   <i type="int" name="NKREDZ">     1</i>
   <i type="logical" name="SHIFTRED"> F  </i>
   <i type="logical" name="ODDONLY"> F  </i>
   <i type="logical" name="EVENONLY"> F  </i>
   <i type="int" name="LMAXFOCK">     0</i>
   <i type="int" name="NMAXFOCKAE">     0</i>
   <i type="logical" name="LFOCKAEDFT"> F  </i>
   <i name="HFSCREEN">      0.00000000</i>
   <i name="HFSCREENC">      0.00000000</i>
   <i type="int" name="NBANDSGWLOW">     0</i>
  </separator>
  <separator name="vdW DFT" >
   <i type="logical" name="LUSE_VDW"> F  </i>
   <i name="Zab_VDW">     -0.84910000</i>
   <i name="PARAM1">      0.12340000</i>
   <i name="PARAM2">      1.00000000</i>
   <i name="PARAM3">      0.00000000</i>
  </separator>
  <separator name="model GW" >
   <i type="int" name="MODEL_GW">     0</i>
   <i name="MODEL_EPS0">     23.80275655</i>
   <i name="MODEL_ALPHA">      1.00000000</i>
  </separator>
  <separator name="linear response parameters" >
   <i type="logical" name="LEPSILON"> F  </i>
   <i type="logical" name="LRPA"> F  </i>
   <i type="logical" name="LNABLA"> F  </i>
   <i type="logical" name="LVEL"> F  </i>
   <i type="int" name="KINTER">     0</i>
   <i name="CSHIFT">      0.10000000</i>
   <i name="OMEGAMAX">     -1.00000000</i>
   <i name="DEG_THRESHOLD">      0.00200000</i>
  </separator>
  <separator name="orbital magnetization" >
   <i type="logical" name="NUCIND"> F  </i>
   <v name="MAGPOS">      0.00000000      0.00000000      0.00000000</v>
   <i type="logical" name="LNICSALL"> T  </i>
   <i type="logical" name="ORBITALMAG"> F  </i>
   <i type="logical" name="LMAGBLOCH"> F  </i>
   <i type="logical" name="LCHIMAG"> F  </i>
   <i type="logical" name="LGAUGE"> T  </i>
   <i type="int" name="MAGATOM">     0</i>
   <v name="MAGDIPOL">      0.00000000      0.00000000      0.00000000</v>
   <v name="AVECCONST">      0.00000000      0.00000000      0.00000000</v>
  </separator>
  <separator name="response functions" >
   <i type="logical" name="LADDER"> F  </i>
   <i type="logical" name="LFXC"> F  </i>
   <i type="logical" name="LHARTREE"> T  </i>
   <i type="int" name="IBSE">     0</i>
   <v type="int" name="KPOINT">    -1     0     0     0</v>
   <i type="logical" name="LTCTE"> F  </i>
   <i type="logical" name="LTETE"> F  </i>
   <i type="logical" name="LTRIPLET"> F  </i>
   <i type="logical" name="LFXCEPS"> F  </i>
   <i type="logical" name="LFXHEG"> F  </i>
   <i type="int" name="NATURALO">     0</i>
   <i type="logical" name="L2ORDER"> F  </i>
   <i type="logical" name="LUSEW"> F  </i>
   <i name="ENCUTGW">     -2.00000000</i>
   <i name="ENCUTGWSOFT">     -2.00000000</i>
   <i name="ENCUTLF">     -1.00000000</i>
   <i type="int" name="LMAXMP2">    -1</i>
   <i name="SCISSOR">      0.00000000</i>
   <i type="int" name="NOMEGA">     0</i>
   <i type="int" name="NOMEGAR">     0</i>
   <i type="int" name="NBANDSGW">    -1</i>
   <i type="int" name="NBANDSO">    -1</i>
   <i type="int" name="NBANDSV">    -1</i>
   <i type="int" name="NELM">   200</i>
   <i type="int" name="NELMHF">     1</i>
   <i type="int" name="DIM">     3</i>
   <i type="int" name="ANTIRES">     0</i>
   <i name="OMEGAMAX">    -30.00000000</i>
   <i name="OMEGAMIN">    -30.00000000</i>
   <i name="OMEGATL">   -200.00000000</i>
   <i type="int" name="OMEGAGRID">     0</i>
   <i name="CSHIFT">     -0.10000000</i>
   <i type="logical" name="SELFENERGY"> F  </i>
   <i type="logical" name="LSPECTRAL"> F  </i>
   <i type="logical" name="LSPECTRALGW"> F  </i>
   <i type="logical" name="LSINGLES"> F  </i>
   <i type="logical" name="LFERMIGW"> F  </i>
   <i type="logical" name="ODDONLYGW"> F  </i>
   <i type="logical" name="EVENONLYGW"> F  </i>
   <i type="int" name="NKREDLFX">     1</i>
   <i type="int" name="NKREDLFY">     1</i>
   <i type="int" name="NKREDLFZ">     1</i>
   <i type="int" name="MAXMEM">  1800</i>
   <i type="int" name="TELESCOPE">     0</i>
   <i type="int" name="TAUPAR">     1</i>
   <i type="int" name="OMEGAPAR">    -1</i>
   <i name="LAMBDA">      1.00000000</i>
  </separator>
  <separator name="External order field" >
   <i name="OFIELD_KAPPA">      0.00000000</i>
   <v name="OFIELD_K">      0.00000000      0.00000000      0.00000000</v>
   <i name="OFIELD_Q6_NEAR">      0.00000000</i>
   <i name="OFIELD_Q6_FAR">      0.00000000</i>
   <i name="OFIELD_A">      0.00000000</i>
  </separator>
 </parameters>
 <atominfo>
  <atoms>      93 </atoms>
  <types>       5 </types>
  <array name="atoms" >
   <dimension dim="1">ion</dimension>
   <field type="string">element</field>
   <field type="int">atomtype</field>
   <set>
    <rc><c>C </c><c>   1</c></rc>
    <rc><c>C </c><c>   1</c></rc>
    <rc><c>C </c><c>   1</c></rc>
    <rc><c>C </c><c>   1</c></rc>
    <rc><c>C </c><c>   1</c></rc>
    <rc><c>C </c><c>   1</c></rc>
    <rc><c>C </c><c>   1</c></rc>
    <rc><c>C </c><c>   1</c></rc>
    <rc><c>C </c><c>   1</c></rc>
    <rc><c>C </c><c>   1</c></rc>
    <rc><c>Co</c><c>   2</c></rc>
    <rc><c>H </c><c>   3</c></rc>
    <rc><c>H </c><c>   3</c></rc>
    <rc><c>H </c><c>   3</c></rc>
    <rc><c>H </c><c>   3</c></rc>
    <rc><c>H </c><c>   3</c></rc>
    <rc><c>H </c><c>   3</c></rc>
    <rc><c>H </c><c>   3</c></rc>
    <rc><c>H </c><c>   3</c></rc>
    <rc><c>H </c><c>   3</c></rc>
    <rc><c>H </c><c>   3</c></rc>
    <rc><c>Mo</c><c>   4</c></rc>
    <rc><c>Mo</c><c>   4</c></rc>
    <rc><c>Mo</c><c>   4</c></rc>
    <rc><c>Mo</c><c>   4</c></rc>
    <rc><c>Mo</c><c>   4</c></rc>
    <rc><c>Mo</c><c>   4</c></rc>
    <rc><c>Mo</c><c>   4</c></rc>
    <rc><c>Mo</c><c>   4</c></rc>
    <rc><c>Mo</c><c>   4</c></rc>
    <rc><c>Mo</c><c>   4</c></rc>
    <rc><c>Mo</c><c>   4</c></rc>
    <rc><c>Mo</c><c>   4</c></rc>
    <rc><c>Mo</c><c>   4</c></rc>
    <rc><c>Mo</c><c>   4</c></rc>
    <rc><c>Mo</c><c>   4</c></rc>
    <rc><c>Mo</c><c>   4</c></rc>
    <rc><c>Mo</c><c>   4</c></rc>
    <rc><c>Mo</c><c>   4</c></rc>
    <rc><c>Mo</c><c>   4</c></rc>
    <rc><c>Mo</c><c>   4</c></rc>
    <rc><c>Mo</c><c>   4</c></rc>
    <rc><c>Mo</c><c>   4</c></rc>
    <rc><c>Mo</c><c>   4</c></rc>
    <rc><c>Mo</c><c>   4</c></rc>
    <rc><c>S </c><c>   5</c></rc>
    <rc><c>S </c><c>   5</c></rc>
    <rc><c>S </c><c>   5</c></rc>
    <rc><c>S </c><c>   5</c></rc>
    <rc><c>S </c><c>   5</c></rc>
    <rc><c>S </c><c>   5</c></rc>
    <rc><c>S </c><c>   5</c></rc>
    <rc><c>S </c><c>   5</c></rc>
    <rc><c>S </c><c>   5</c></rc>
    <rc><c>S </c><c>   5</c></rc>
    <rc><c>S </c><c>   5</c></rc>
    <rc><c>S </c><c>   5</c></rc>
    <rc><c>S </c><c>   5</c></rc>
    <rc><c>S </c><c>   5</c></rc>
    <rc><c>S </c><c>   5</c></rc>
    <rc><c>S </c><c>   5</c></rc>
    <rc><c>S </c><c>   5</c></rc>
    <rc><c>S </c><c>   5</c></rc>
    <rc><c>S </c><c>   5</c></rc>
    <rc><c>S </c><c>   5</c></rc>
    <rc><c>S </c><c>   5</c></rc>
    <rc><c>S </c><c>   5</c></rc>
    <rc><c>S </c><c>   5</c></rc>
    <rc><c>S </c><c>   5</c></rc>
    <rc><c>S </c><c>   5</c></rc>
    <rc><c>S </c><c>   5</c></rc>
    <rc><c>S </c><c>   5</c></rc>
    <rc><c>S </c><c>   5</c></rc>
    <rc><c>S </c><c>   5</c></rc>
    <rc><c>S </c><c>   5</c></rc>
    <rc><c>S </c><c>   5</c></rc>
    <rc><c>S </c><c>   5</c></rc>
    <rc><c>S </c><c>   5</c></rc>
    <rc><c>S </c><c>   5</c></rc>
    <rc><c>S </c><c>   5</c></rc>
    <rc><c>S </c><c>   5</c></rc>
    <rc><c>S </c><c>   5</c></rc>
    <rc><c>S </c><c>   5</c></rc>
    <rc><c>S </c><c>   5</c></rc>
    <rc><c>S </c><c>   5</c></rc>
    <rc><c>S </c><c>   5</c></rc>
    <rc><c>S </c><c>   5</c></rc>
    <rc><c>S </c><c>   5</c></rc>
    <rc><c>S </c><c>   5</c></rc>
    <rc><c>S </c><c>   5</c></rc>
    <rc><c>S </c><c>   5</c></rc>
    <rc><c>S </c><c>   5</c></rc>
    <rc><c>S </c><c>   5</c></rc>
   </set>
  </array>
  <array name="atomtypes" >
   <dimension dim="1">type</dimension>
   <field type="int">atomspertype</field>
   <field type="string">element</field>
   <field>mass</field>
   <field>valence</field>
   <field type="string">pseudopotential</field>
   <set>
    <rc><c>  10</c><c>C </c><c>     12.01100000</c><c>      4.00000000</c><c>  PAW_PBE C 08Apr2002                   </c></rc>
    <rc><c>   1</c><c>Co</c><c>     58.93300000</c><c>      9.00000000</c><c>  PAW_PBE Co 02Aug2007                  </c></rc>
    <rc><c>  10</c><c>H </c><c>      1.00000000</c><c>      1.00000000</c><c>  PAW_PBE H 15Jun2001                   </c></rc>
    <rc><c>  24</c><c>Mo</c><c>     95.94000000</c><c>      6.00000000</c><c>  PAW_PBE Mo 08Apr2002                  </c></rc>
    <rc><c>  48</c><c>S </c><c>     32.06600000</c><c>      6.00000000</c><c>  PAW_PBE S 06Sep2000                   </c></rc>
   </set>
  </array>
 </atominfo>
 <structure name="initialpos" >
  <crystal>
   <varray name="basis" >
    <v>       9.57094646       0.00000000       0.00000000 </v>
    <v>      -6.38062803      11.05157872       0.00000000 </v>
    <v>       0.00000000       0.00000000      34.88026251 </v>
   </varray>
   <i name="volume">   3689.42726549 </i>
   <varray name="rec_basis" >
    <v>       0.10448287       0.06032318       0.00000000 </v>
    <v>       0.00000000       0.09048481       0.00000000 </v>
    <v>       0.00000000       0.00000000       0.02866951 </v>
   </varray>
  </crystal>
  <varray name="positions" >
   <v>       0.84289515       0.19202215       0.39972539 </v>
   <v>       0.85089581       0.23557079       0.43794038 </v>
   <v>       0.90159813       0.29317891       0.37418303 </v>
   <v>       0.94640682       0.39932791       0.39663990 </v>
   <v>       0.91484548       0.36369838       0.43602407 </v>
   <v>       0.46112264       0.16197579       0.41993589 </v>
   <v>       0.56720922       0.36170027       0.40110034 </v>
   <v>       0.51753056       0.28246019       0.43356293 </v>
   <v>       0.54200068       0.29022439       0.36741055 </v>
   <v>       0.47628448       0.16676820       0.37906858 </v>
   <v>       0.70198459       0.27438601       0.40438141 </v>
   <v>       0.93302696       0.42331953       0.46010803 </v>
   <v>       0.52435188       0.30928266       0.46340472 </v>
   <v>       0.57009247       0.32400910       0.33816786 </v>
   <v>       0.61874635       0.45933495       0.40201050 </v>
   <v>       0.41769909       0.08134991       0.43757754 </v>
   <v>       0.81203756       0.18062269       0.46379616 </v>
   <v>       0.79695823       0.09820920       0.39151571 </v>
   <v>       0.90848023       0.28961646       0.34313210 </v>
   <v>       0.99272082       0.49059316       0.38570230 </v>
   <v>       0.44618587       0.09040317       0.36026758 </v>
   <v>       0.55555566       0.08333325       0.25000928 </v>
   <v>       0.55555566       0.33333325       0.25000928 </v>
   <v>       0.44444432       0.41666674       0.74999076 </v>
   <v>       0.55555566       0.58333325       0.25000928 </v>
   <v>       0.44444432       0.66666674       0.74999076 </v>
   <v>       0.55555566       0.83333325       0.25000928 </v>
   <v>       0.44444432       0.91666674       0.74999076 </v>
   <v>       0.88888899       0.33333325       0.25000928 </v>
   <v>       0.77777765       0.16666674       0.74999076 </v>
   <v>       0.77777765       0.41666674       0.74999076 </v>
   <v>       0.88888899       0.58333325       0.25000928 </v>
   <v>       0.77777765       0.66666674       0.74999076 </v>
   <v>       0.88888899       0.83333325       0.25000928 </v>
   <v>       0.77777765       0.91666674       0.74999076 </v>
   <v>       0.11111099       0.91666674       0.74999076 </v>
   <v>       0.88888899       0.08333325       0.25000928 </v>
   <v>       0.22222233       0.83333325       0.25000928 </v>
   <v>       0.44444432       0.16666674       0.74999076 </v>
   <v>       0.22222233       0.58333325       0.25000928 </v>
   <v>       0.11111099       0.41666674       0.74999076 </v>
   <v>       0.22222233       0.33333325       0.25000928 </v>
   <v>       0.22222233       0.08333325       0.25000928 </v>
   <v>       0.11111099       0.16666674       0.74999076 </v>
   <v>       0.11111099       0.66666674       0.74999076 </v>
   <v>       0.77777765       0.16666674       0.29487388 </v>
   <v>       0.88888899       0.08333325       0.79485533 </v>
   <v>       0.77777765       0.16666674       0.20514467 </v>
   <v>       0.88888899       0.08333325       0.70512613 </v>
   <v>       0.22222233       0.08333325       0.70512613 </v>
   <v>       0.11111099       0.16666674       0.20514467 </v>
   <v>       0.77777765       0.41666674       0.29487388 </v>
   <v>       0.88888899       0.33333325       0.79485533 </v>
   <v>       0.11111099       0.66666674       0.20514467 </v>
   <v>       0.55555566       0.83333325       0.70512613 </v>
   <v>       0.88888899       0.33333325       0.70512613 </v>
   <v>       0.22222233       0.08333325       0.79485533 </v>
   <v>       0.11111099       0.16666674       0.29487388 </v>
   <v>       0.77777765       0.66666674       0.29487388 </v>
   <v>       0.88888899       0.58333325       0.79485533 </v>
   <v>       0.77777765       0.66666674       0.20514467 </v>
   <v>       0.88888899       0.58333325       0.70512613 </v>
   <v>       0.77777765       0.91666674       0.29487388 </v>
   <v>       0.88888899       0.83333325       0.79485533 </v>
   <v>       0.77777765       0.41666674       0.20514467 </v>
   <v>       0.44444432       0.91666674       0.20514467 </v>
   <v>       0.44444432       0.91666674       0.29487388 </v>
   <v>       0.22222233       0.58333325       0.70512613 </v>
   <v>       0.22222233       0.58333325       0.79485533 </v>
   <v>       0.11111099       0.91666674       0.29487388 </v>
   <v>       0.22222233       0.83333325       0.79485533 </v>
   <v>       0.11111099       0.91666674       0.20514467 </v>
   <v>       0.22222233       0.83333325       0.70512613 </v>
   <v>       0.11111099       0.66666674       0.29487388 </v>
   <v>       0.77777765       0.91666674       0.20514467 </v>
   <v>       0.44444432       0.16666674       0.29487388 </v>
   <v>       0.55555566       0.08333325       0.79485533 </v>
   <v>       0.44444432       0.16666674       0.20514467 </v>
   <v>       0.55555566       0.08333325       0.70512613 </v>
   <v>       0.44444432       0.41666674       0.29487388 </v>
   <v>       0.55555566       0.33333325       0.79485533 </v>
   <v>       0.44444432       0.41666674       0.20514467 </v>
   <v>       0.55555566       0.33333325       0.70512613 </v>
   <v>       0.22222233       0.33333325       0.70512613 </v>
   <v>       0.11111099       0.41666674       0.20514467 </v>
   <v>       0.44444432       0.66666674       0.29487388 </v>
   <v>       0.55555566       0.58333325       0.79485533 </v>
   <v>       0.44444432       0.66666674       0.20514467 </v>
   <v>       0.55555566       0.58333325       0.70512613 </v>
   <v>       0.22222233       0.33333325       0.79485533 </v>
   <v>       0.11111099       0.41666674       0.29487388 </v>
   <v>       0.55555566       0.83333325       0.79485533 </v>
   <v>       0.88888899       0.83333325       0.70512613 </v>
  </varray>
 </structure>
 <calculation>
  <scstep>
   <time name="dav">    5.39    5.42</time>
   <time name="total">    5.78    5.83</time>
   <energy>
    <i name="alphaZ">    562.94535741 </i>
    <i name="ewald">  44183.71580762 </i>
    <i name="hartreedc"> -63595.34679287 </i>
    <i name="XCdc">   -699.50352044 </i>
    <i name="pawpsdc">  18640.80374730 </i>
    <i name="pawaedc"> -16838.49265242 </i>
    <i name="eentropy">     -0.18989550 </i>
    <i name="bandstr">   1210.28178223 </i>
    <i name="atom">  20917.06298232 </i>
    <i name="e_fr_energy">   4381.27681567 </i>
    <i name="e_wo_entrp">   4381.46671116 </i>
    <i name="e_0_energy">   4381.37176342 </i>
   </energy>
  </scstep>
  <scstep>
   <time name="dav">    8.63    8.65</time>
   <time name="total">    8.63    8.66</time>
   <energy>
    <i name="e_fr_energy">    -23.66147475 </i>
    <i name="e_wo_entrp">    -23.58077956 </i>
    <i name="e_0_energy">    -23.62112716 </i>
   </energy>
  </scstep>
  <scstep>
   <time name="dav">    6.71    6.72</time>
   <time name="total">    6.71    6.73</time>
   <energy>
    <i name="e_fr_energy">   -677.19468864 </i>
    <i name="e_wo_entrp">   -677.10482071 </i>
    <i name="e_0_energy">   -677.14975468 </i>
   </energy>
  </scstep>
  <scstep>
   <time name="dav">    7.41    7.43</time>
   <time name="total">    7.41    7.50</time>
   <energy>
    <i name="e_fr_energy">   -708.79656162 </i>
    <i name="e_wo_entrp">   -708.70669102 </i>
    <i name="e_0_energy">   -708.75162632 </i>
   </energy>
  </scstep>
  <scstep>
   <time name="dav">    7.83    7.86</time>
   <time name="total">    8.43    8.46</time>
   <energy>
    <i name="e_fr_energy">   -709.93544327 </i>
    <i name="e_wo_entrp">   -709.83932013 </i>
    <i name="e_0_energy">   -709.88738170 </i>
   </energy>
  </scstep>
  <scstep>
   <time name="dav">    7.29    7.32</time>
   <time name="total">    8.24    8.28</time>
   <energy>
    <i name="e_fr_energy">   -690.64060870 </i>
    <i name="e_wo_entrp">   -690.47746262 </i>
    <i name="e_0_energy">   -690.55903566 </i>
   </energy>
  </scstep>
  <scstep>
   <time name="dav">    7.60    7.63</time>
   <time name="total">    8.58    8.61</time>
   <energy>
    <i name="e_fr_energy">   -709.16317918 </i>
    <i name="e_wo_entrp">   -708.98824881 </i>
    <i name="e_0_energy">   -709.07571400 </i>
   </energy>
  </scstep>
  <scstep>
   <time name="dav">    7.54    7.57</time>
   <time name="total">    8.51    8.54</time>
   <energy>
    <i name="e_fr_energy">   -750.52856802 </i>
    <i name="e_wo_entrp">   -750.13607041 </i>
    <i name="e_0_energy">   -750.33231922 </i>
   </energy>
  </scstep>
  <scstep>
   <time name="dav">    7.65    7.70</time>
   <time name="total">    8.61    8.67</time>
   <energy>
    <i name="e_fr_energy">   -755.09791359 </i>
    <i name="e_wo_entrp">   -754.78101312 </i>
    <i name="e_0_energy">   -754.93946335 </i>
   </energy>
  </scstep>
  <scstep>
   <time name="dav">    6.91    6.94</time>
   <time name="total">    7.86    7.89</time>
   <energy>
    <i name="e_fr_energy">   -692.62529066 </i>
    <i name="e_wo_entrp">   -692.54842384 </i>
    <i name="e_0_energy">   -692.58685725 </i>
   </energy>
  </scstep>
  <scstep>
   <time name="dav">    7.65    7.67</time>
   <time name="total">    8.59    8.62</time>
   <energy>
    <i name="e_fr_energy">   -662.69070508 </i>
    <i name="e_wo_entrp">   -662.52268419 </i>
    <i name="e_0_energy">   -662.60669463 </i>
   </energy>
  </scstep>
  <scstep>
   <time name="dav">    7.86    7.89</time>
   <time name="total">    8.80    8.83</time>
   <energy>
    <i name="e_fr_energy">   -659.53519853 </i>
    <i name="e_wo_entrp">   -659.44539382 </i>
    <i name="e_0_energy">   -659.49029618 </i>
   </energy>
  </scstep>
  <scstep>
   <time name="dav">    7.24    7.28</time>
   <time name="total">    8.19    8.23</time>
   <energy>
    <i name="e_fr_energy">   -659.59151739 </i>
    <i name="e_wo_entrp">   -659.50236908 </i>
    <i name="e_0_energy">   -659.54694324 </i>
   </energy>
  </scstep>
  <scstep>
   <time name="dav">    7.50    7.57</time>
   <time name="total">    8.45    8.52</time>
   <energy>
    <i name="e_fr_energy">   -659.42802743 </i>
    <i name="e_wo_entrp">   -659.33826363 </i>
    <i name="e_0_energy">   -659.38314553 </i>
   </energy>
  </scstep>
  <scstep>
   <time name="dav">    8.17    8.21</time>
   <time name="total">    9.12    9.17</time>
   <energy>
    <i name="e_fr_energy">   -656.97486762 </i>
    <i name="e_wo_entrp">   -656.88635015 </i>
    <i name="e_0_energy">   -656.93060889 </i>
   </energy>
  </scstep>
  <scstep>
   <time name="dav">    8.06    8.09</time>
   <time name="total">    9.03    9.14</time>
   <energy>
    <i name="e_fr_energy">   -658.54036868 </i>
    <i name="e_wo_entrp">   -658.44089487 </i>
    <i name="e_0_energy">   -658.49063177 </i>
   </energy>
  </scstep>
  <scstep>
   <time name="dav">    7.31    7.33</time>
   <time name="total">    8.27    8.30</time>
   <energy>
    <i name="e_fr_energy">   -657.23588813 </i>
    <i name="e_wo_entrp">   -657.14225696 </i>
    <i name="e_0_energy">   -657.18907254 </i>
   </energy>
  </scstep>
  <scstep>
   <time name="dav">    7.31    7.33</time>
   <time name="total">    8.27    8.30</time>
   <energy>
    <i name="e_fr_energy">   -657.10269203 </i>
    <i name="e_wo_entrp">   -657.00891745 </i>
    <i name="e_0_energy">   -657.05580474 </i>
   </energy>
  </scstep>
  <scstep>
   <time name="dav">    7.30    7.32</time>
   <time name="total">    8.26    8.29</time>
   <energy>
    <i name="e_fr_energy">   -656.78482824 </i>
    <i name="e_wo_entrp">   -656.68346852 </i>
    <i name="e_0_energy">   -656.73414838 </i>
   </energy>
  </scstep>
  <scstep>
   <time name="dav">    7.42    7.44</time>
   <time name="total">    8.37    8.40</time>
   <energy>
    <i name="e_fr_energy">   -656.27730153 </i>
    <i name="e_wo_entrp">   -656.19105417 </i>
    <i name="e_0_energy">   -656.23417785 </i>
   </energy>
  </scstep>
  <scstep>
   <time name="dav">    7.67    7.69</time>
   <time name="total">    8.64    8.67</time>
   <energy>
    <i name="e_fr_energy">   -656.11524517 </i>
    <i name="e_wo_entrp">   -656.02525585 </i>
    <i name="e_0_energy">   -656.07025051 </i>
   </energy>
  </scstep>
  <scstep>
   <time name="dav">    7.84    7.87</time>
   <time name="total">    8.81    8.85</time>
   <energy>
    <i name="e_fr_energy">   -656.01886521 </i>
    <i name="e_wo_entrp">   -655.92870822 </i>
    <i name="e_0_energy">   -655.97378672 </i>
   </energy>
  </scstep>
  <scstep>
   <time name="dav">    7.84    7.89</time>
   <time name="total">    8.80    8.87</time>
   <energy>
    <i name="e_fr_energy">   -655.99077075 </i>
    <i name="e_wo_entrp">   -655.88358807 </i>
    <i name="e_0_energy">   -655.93717941 </i>
   </energy>
  </scstep>
  <scstep>
   <time name="dav">    7.58    7.60</time>
   <time name="total">    8.55    8.58</time>
   <energy>
    <i name="e_fr_energy">   -655.96260155 </i>
    <i name="e_wo_entrp">   -655.87305790 </i>
    <i name="e_0_energy">   -655.91782973 </i>
   </energy>
  </scstep>
  <scstep>
   <time name="dav">    8.15    8.17</time>
   <time name="total">    9.13    9.16</time>
   <energy>
    <i name="e_fr_energy">   -655.83230862 </i>
    <i name="e_wo_entrp">   -655.71464621 </i>
    <i name="e_0_energy">   -655.77347741 </i>
   </energy>
  </scstep>
  <scstep>
   <time name="dav">    8.43    8.60</time>
   <time name="total">    9.42    9.59</time>
   <energy>
    <i name="e_fr_energy">   -655.76155768 </i>
    <i name="e_wo_entrp">   -655.64945187 </i>
    <i name="e_0_energy">   -655.70550477 </i>
   </energy>
  </scstep>
  <scstep>
   <time name="dav">    7.56    7.58</time>
   <time name="total">    8.55    8.70</time>
   <energy>
    <i name="e_fr_energy">   -655.69676000 </i>
    <i name="e_wo_entrp">   -655.57927784 </i>
    <i name="e_0_energy">   -655.63801892 </i>
   </energy>
  </scstep>
  <scstep>
   <time name="dav">    8.11    8.13</time>
   <time name="total">    9.10    9.13</time>
   <energy>
    <i name="e_fr_energy">   -655.65844610 </i>
    <i name="e_wo_entrp">   -655.54164124 </i>
    <i name="e_0_energy">   -655.60004367 </i>
   </energy>
  </scstep>
  <scstep>
   <time name="dav">    8.15    8.18</time>
   <time name="total">    9.13    9.19</time>
   <energy>
    <i name="e_fr_energy">   -655.59787978 </i>
    <i name="e_wo_entrp">   -655.46927829 </i>
    <i name="e_0_energy">   -655.53357903 </i>
   </energy>
  </scstep>
  <scstep>
   <time name="dav">    6.57    6.61</time>
   <time name="total">    7.57    7.63</time>
   <energy>
    <i name="e_fr_energy">   -655.59887110 </i>
    <i name="e_wo_entrp">   -655.47051789 </i>
    <i name="e_0_energy">   -655.53469449 </i>
   </energy>
  </scstep>
  <scstep>
   <time name="dav">    7.13    7.15</time>
   <time name="total">    8.14    8.17</time>
   <energy>
    <i name="e_fr_energy">   -655.59992412 </i>
    <i name="e_wo_entrp">   -655.47207098 </i>
    <i name="e_0_energy">   -655.53599755 </i>
   </energy>
  </scstep>
  <scstep>
   <time name="dav">    7.21    7.23</time>
   <time name="total">    8.22    8.24</time>
   <energy>
    <i name="e_fr_energy">   -655.60194082 </i>
    <i name="e_wo_entrp">   -655.47186486 </i>
    <i name="e_0_energy">   -655.53690284 </i>
   </energy>
  </scstep>
  <scstep>
   <time name="dav">    6.29    6.30</time>
   <time name="total">    7.30    7.32</time>
   <energy>
    <i name="e_fr_energy">   -655.60116405 </i>
    <i name="e_wo_entrp">   -655.47122883 </i>
    <i name="e_0_energy">   -655.53619644 </i>
   </energy>
  </scstep>
  <scstep>
   <time name="dav">    7.40    7.42</time>
   <time name="total">    8.40    8.44</time>
   <energy>
    <i name="e_fr_energy">   -655.62419110 </i>
    <i name="e_wo_entrp">   -655.51273666 </i>
    <i name="e_0_energy">   -655.56846388 </i>
   </energy>
  </scstep>
  <scstep>
   <time name="dav">    7.53    7.55</time>
   <time name="total">    8.52    8.56</time>
   <energy>
    <i name="e_fr_energy">   -655.61084511 </i>
    <i name="e_wo_entrp">   -655.49383673 </i>
    <i name="e_0_energy">   -655.55234092 </i>
   </energy>
  </scstep>
  <scstep>
   <time name="dav">    6.53    6.55</time>
   <time name="total">    7.53    7.55</time>
   <energy>
    <i name="e_fr_energy">   -655.61158321 </i>
    <i name="e_wo_entrp">   -655.49487517 </i>
    <i name="e_0_energy">   -655.55322919 </i>
   </energy>
  </scstep>
  <scstep>
   <time name="dav">    5.22    5.30</time>
   <time name="total">    6.23    6.32</time>
   <energy>
    <i name="e_fr_energy">   -655.61101175 </i>
    <i name="e_wo_entrp">   -655.49407610 </i>
    <i name="e_0_energy">   -655.55254393 </i>
   </energy>
  </scstep>
  <scstep>
   <time name="dav">    6.08    6.11</time>
   <time name="total">    7.10    7.13</time>
   <energy>
    <i name="e_fr_energy">   -655.60998968 </i>
    <i name="e_wo_entrp">   -655.49292241 </i>
    <i name="e_0_energy">   -655.55145604 </i>
   </energy>
  </scstep>
  <scstep>
   <time name="dav">    8.09    8.11</time>
   <time name="total">    9.09    9.12</time>
   <energy>
    <i name="e_fr_energy">   -655.60696391 </i>
    <i name="e_wo_entrp">   -655.49030303 </i>
    <i name="e_0_energy">   -655.54863347 </i>
   </energy>
  </scstep>
  <scstep>
   <time name="dav">    6.95    6.97</time>
   <time name="total">    7.95    7.99</time>
   <energy>
    <i name="e_fr_energy">   -655.60723220 </i>
    <i name="e_wo_entrp">   -655.49038502 </i>
    <i name="e_0_energy">   -655.54880861 </i>
   </energy>
  </scstep>
  <scstep>
   <time name="dav">    4.77    4.79</time>
   <time name="total">    5.78    5.80</time>
   <energy>
    <i name="e_fr_energy">   -655.60749648 </i>
    <i name="e_wo_entrp">   -655.49035927 </i>
    <i name="e_0_energy">   -655.54892787 </i>
   </energy>
  </scstep>
  <scstep>
   <time name="dav">    5.19    5.21</time>
   <time name="total">    6.19    6.22</time>
   <energy>
    <i name="e_fr_energy">   -655.60716471 </i>
    <i name="e_wo_entrp">   -655.48974232 </i>
    <i name="e_0_energy">   -655.54845351 </i>
   </energy>
  </scstep>
  <scstep>
   <time name="dav">    5.39    5.40</time>
   <time name="total">    6.40    6.42</time>
   <energy>
    <i name="e_fr_energy">   -655.60539248 </i>
    <i name="e_wo_entrp">   -655.48747227 </i>
    <i name="e_0_energy">   -655.54643238 </i>
   </energy>
  </scstep>
  <scstep>
   <time name="dav">    5.31    5.32</time>
   <time name="total">    6.31    6.33</time>
   <energy>
    <i name="e_fr_energy">   -655.60381458 </i>
    <i name="e_wo_entrp">   -655.48522600 </i>
    <i name="e_0_energy">   -655.54452029 </i>
   </energy>
  </scstep>
  <scstep>
   <time name="dav">    5.22    5.23</time>
   <time name="total">    6.23    6.26</time>
   <energy>
    <i name="e_fr_energy">   -655.60275757 </i>
    <i name="e_wo_entrp">   -655.48312651 </i>
    <i name="e_0_energy">   -655.54294204 </i>
   </energy>
  </scstep>
  <scstep>
   <time name="dav">    7.26    7.32</time>
   <time name="total">    8.27    8.34</time>
   <energy>
    <i name="e_fr_energy">   -655.60014264 </i>
    <i name="e_wo_entrp">   -655.47886331 </i>
    <i name="e_0_energy">   -655.53950297 </i>
   </energy>
  </scstep>
  <scstep>
   <time name="dav">    6.38    6.40</time>
   <time name="total">    7.40    7.43</time>
   <energy>
    <i name="e_fr_energy">   -655.59978784 </i>
    <i name="e_wo_entrp">   -655.47663004 </i>
    <i name="e_0_energy">   -655.53820894 </i>
   </energy>
  </scstep>
  <scstep>
   <time name="dav">    5.42    5.43</time>
   <time name="total">    6.44    6.46</time>
   <energy>
    <i name="e_fr_energy">   -655.59999818 </i>
    <i name="e_wo_entrp">   -655.47593372 </i>
    <i name="e_0_energy">   -655.53796595 </i>
   </energy>
  </scstep>
  <scstep>
   <time name="dav">    4.60    4.61</time>
   <time name="total">    5.63    5.65</time>
   <energy>
    <i name="e_fr_energy">   -655.60011408 </i>
    <i name="e_wo_entrp">   -655.47554066 </i>
    <i name="e_0_energy">   -655.53782737 </i>
   </energy>
  </scstep>
  <scstep>
   <time name="dav">    4.17    4.18</time>
   <time name="total">    4.55    4.57</time>
   <energy>
    <i name="alphaZ">    562.94535741 </i>
    <i name="ewald">  44183.71580762 </i>
    <i name="hartreedc"> -64102.21821867 </i>
    <i name="XCdc">   -663.81933451 </i>
    <i name="pawpsdc">  43336.34562707 </i>
    <i name="pawaedc"> -41576.46781540 </i>
    <i name="eentropy">     -0.12450508 </i>
    <i name="bandstr">  -3313.03998673 </i>
    <i name="atom">  20917.06298232 </i>
    <i name="e_fr_energy">   -655.60008595 </i>
    <i name="e_wo_entrp">   -655.47558088 </i>
    <i name="e_0_energy">   -655.53783341 </i>
   </energy>
  </scstep>
  <structure>
   <crystal>
    <varray name="basis" >
     <v>       9.57094646       0.00000000       0.00000000 </v>
     <v>      -6.38062803      11.05157872       0.00000000 </v>
     <v>       0.00000000       0.00000000      34.88026251 </v>
    </varray>
    <i name="volume">   3689.42726549 </i>
    <varray name="rec_basis" >
     <v>       0.10448287       0.06032318       0.00000000 </v>
     <v>       0.00000000       0.09048481       0.00000000 </v>
     <v>       0.00000000       0.00000000       0.02866951 </v>
    </varray>
   </crystal>
   <varray name="positions" >
    <v>       0.84289515       0.19202215       0.39972539 </v>
    <v>       0.85089581       0.23557079       0.43794038 </v>
    <v>       0.90159813       0.29317891       0.37418303 </v>
    <v>       0.94640682       0.39932791       0.39663990 </v>
    <v>       0.91484548       0.36369838       0.43602407 </v>
    <v>       0.46112264       0.16197579       0.41993589 </v>
    <v>       0.56720922       0.36170027       0.40110034 </v>
    <v>       0.51753056       0.28246019       0.43356293 </v>
    <v>       0.54200068       0.29022439       0.36741055 </v>
    <v>       0.47628448       0.16676820       0.37906858 </v>
    <v>       0.70198459       0.27438601       0.40438141 </v>
    <v>       0.93302696       0.42331953       0.46010803 </v>
    <v>       0.52435188       0.30928266       0.46340472 </v>
    <v>       0.57009247       0.32400910       0.33816786 </v>
    <v>       0.61874635       0.45933495       0.40201050 </v>
    <v>       0.41769909       0.08134991       0.43757754 </v>
    <v>       0.81203756       0.18062269       0.46379616 </v>
    <v>       0.79695823       0.09820920       0.39151571 </v>
    <v>       0.90848023       0.28961646       0.34313210 </v>
    <v>       0.99272082       0.49059316       0.38570230 </v>
    <v>       0.44618587       0.09040317       0.36026758 </v>
    <v>       0.55555566       0.08333325       0.25000928 </v>
    <v>       0.55555566       0.33333325       0.25000928 </v>
    <v>       0.44444432       0.41666674       0.74999076 </v>
    <v>       0.55555566       0.58333325       0.25000928 </v>
    <v>       0.44444432       0.66666674       0.74999076 </v>
    <v>       0.55555566       0.83333325       0.25000928 </v>
    <v>       0.44444432       0.91666674       0.74999076 </v>
    <v>       0.88888899       0.33333325       0.25000928 </v>
    <v>       0.77777765       0.16666674       0.74999076 </v>
    <v>       0.77777765       0.41666674       0.74999076 </v>
    <v>       0.88888899       0.58333325       0.25000928 </v>
    <v>       0.77777765       0.66666674       0.74999076 </v>
    <v>       0.88888899       0.83333325       0.25000928 </v>
    <v>       0.77777765       0.91666674       0.74999076 </v>
    <v>       0.11111099       0.91666674       0.74999076 </v>
    <v>       0.88888899       0.08333325       0.25000928 </v>
    <v>       0.22222233       0.83333325       0.25000928 </v>
    <v>       0.44444432       0.16666674       0.74999076 </v>
    <v>       0.22222233       0.58333325       0.25000928 </v>
    <v>       0.11111099       0.41666674       0.74999076 </v>
    <v>       0.22222233       0.33333325       0.25000928 </v>
    <v>       0.22222233       0.08333325       0.25000928 </v>
    <v>       0.11111099       0.16666674       0.74999076 </v>
    <v>       0.11111099       0.66666674       0.74999076 </v>
    <v>       0.77777765       0.16666674       0.29487388 </v>
    <v>       0.88888899       0.08333325       0.79485533 </v>
    <v>       0.77777765       0.16666674       0.20514467 </v>
    <v>       0.88888899       0.08333325       0.70512613 </v>
    <v>       0.22222233       0.08333325       0.70512613 </v>
    <v>       0.11111099       0.16666674       0.20514467 </v>
    <v>       0.77777765       0.41666674       0.29487388 </v>
    <v>       0.88888899       0.33333325       0.79485533 </v>
    <v>       0.11111099       0.66666674       0.20514467 </v>
    <v>       0.55555566       0.83333325       0.70512613 </v>
    <v>       0.88888899       0.33333325       0.70512613 </v>
    <v>       0.22222233       0.08333325       0.79485533 </v>
    <v>       0.11111099       0.16666674       0.29487388 </v>
    <v>       0.77777765       0.66666674       0.29487388 </v>
    <v>       0.88888899       0.58333325       0.79485533 </v>
    <v>       0.77777765       0.66666674       0.20514467 </v>
    <v>       0.88888899       0.58333325       0.70512613 </v>
    <v>       0.77777765       0.91666674       0.29487388 </v>
    <v>       0.88888899       0.83333325       0.79485533 </v>
    <v>       0.77777765       0.41666674       0.20514467 </v>
    <v>       0.44444432       0.91666674       0.20514467 </v>
    <v>       0.44444432       0.91666674       0.29487388 </v>
    <v>       0.22222233       0.58333325       0.70512613 </v>
    <v>       0.22222233       0.58333325       0.79485533 </v>
    <v>       0.11111099       0.91666674       0.29487388 </v>
    <v>       0.22222233       0.83333325       0.79485533 </v>
    <v>       0.11111099       0.91666674       0.20514467 </v>
    <v>       0.22222233       0.83333325       0.70512613 </v>
    <v>       0.11111099       0.66666674       0.29487388 </v>
    <v>       0.77777765       0.91666674       0.20514467 </v>
    <v>       0.44444432       0.16666674       0.29487388 </v>
    <v>       0.55555566       0.08333325       0.79485533 </v>
    <v>       0.44444432       0.16666674       0.20514467 </v>
    <v>       0.55555566       0.08333325       0.70512613 </v>
    <v>       0.44444432       0.41666674       0.29487388 </v>
    <v>       0.55555566       0.33333325       0.79485533 </v>
    <v>       0.44444432       0.41666674       0.20514467 </v>
    <v>       0.55555566       0.33333325       0.70512613 </v>
    <v>       0.22222233       0.33333325       0.70512613 </v>
    <v>       0.11111099       0.41666674       0.20514467 </v>
    <v>       0.44444432       0.66666674       0.29487388 </v>
    <v>       0.55555566       0.58333325       0.79485533 </v>
    <v>       0.44444432       0.66666674       0.20514467 </v>
    <v>       0.55555566       0.58333325       0.70512613 </v>
    <v>       0.22222233       0.33333325       0.79485533 </v>
    <v>       0.11111099       0.41666674       0.29487388 </v>
    <v>       0.55555566       0.83333325       0.79485533 </v>
    <v>       0.88888899       0.83333325       0.70512613 </v>
   </varray>
  </structure>
  <varray name="forces" >
   <v>      -0.16865032       0.09899755      -0.07680260 </v>
   <v>      -0.16259642       0.00878572      -0.04044454 </v>
   <v>      -0.11403330       0.14806478       0.38241266 </v>
   <v>      -0.14413269      -0.14634987       0.01889360 </v>
   <v>      -0.12415159      -0.02031546      -0.01871298 </v>
   <v>       0.18302233       0.11310440      -0.00901838 </v>
   <v>       0.20045902      -0.11238387       0.01990427 </v>
   <v>       0.13306789       0.03280454       0.00503743 </v>
   <v>       0.07116340      -0.00720381       0.58099939 </v>
   <v>       0.15599991       0.08105913       0.39152389 </v>
   <v>      -0.02542641      -0.00538493       0.13309625 </v>
   <v>      -0.01580869      -0.02646025       0.01498204 </v>
   <v>       0.01564937       0.00439143       0.00611096 </v>
   <v>       0.02278247       0.04857057       0.45485937 </v>
   <v>       0.00945584      -0.00235362      -0.03908245 </v>
   <v>       0.02099104       0.01302906       0.00575040 </v>
   <v>      -0.02261705       0.00677264      -0.00118258 </v>
   <v>      -0.02203862       0.00681301      -0.05318090 </v>
   <v>      -0.04467133       0.08525754       0.36403957 </v>
   <v>      -0.01059083      -0.01960234      -0.06061317 </v>
   <v>       0.04285736       0.02276632       0.14509544 </v>
   <v>       0.00489651       0.18172902      -0.04847450 </v>
   <v>       0.03362236       0.11060743       0.01070060 </v>
   <v>      -0.02083401      -0.17611058      -0.00802143 </v>
   <v>       0.03914159       0.19524150       0.00050075 </v>
   <v>      -0.02073392      -0.17638957      -0.00816666 </v>
   <v>       0.04373778       0.16521091       0.02132114 </v>
   <v>      -0.02060449      -0.17665995      -0.00801606 </v>
   <v>       0.02903724       0.13154213       0.05741224 </v>
   <v>      -0.01490171      -0.17838821      -0.00769552 </v>
   <v>      -0.01496612      -0.17796673      -0.00773995 </v>
   <v>       0.02690164       0.19617847      -0.00755145 </v>
   <v>      -0.01489477      -0.17823968      -0.00784009 </v>
   <v>       0.02285592       0.19423223       0.03425866 </v>
   <v>      -0.01506445      -0.17828787      -0.00784572 </v>
   <v>      -0.02257186      -0.17684990      -0.00811125 </v>
   <v>       0.04878980       0.13673619      -0.01280386 </v>
   <v>      -0.00503834       0.21240213       0.02147305 </v>
   <v>      -0.02074459      -0.17664622      -0.00785583 </v>
   <v>       0.02117815       0.16111102       0.00159506 </v>
   <v>      -0.02248720      -0.17653376      -0.00832893 </v>
   <v>       0.00439775       0.14979615       0.01662113 </v>
   <v>       0.03635744       0.13122465      -0.01880622 </v>
   <v>      -0.02256395      -0.17666773      -0.00808860 </v>
   <v>      -0.02239455      -0.17665782      -0.00821850 </v>
   <v>      -0.12091932      -0.49866177      -0.74522580 </v>
   <v>       0.00987374       0.08831753      -0.20056770 </v>
   <v>      -0.01988993      -0.07541290       0.20139209 </v>
   <v>       0.00989244       0.08895879       0.20735295 </v>
   <v>       0.01076925       0.08905416       0.20731368 </v>
   <v>      -0.00975407      -0.07395442       0.20864221 </v>
   <v>       0.19928077       0.15263094      -0.51044185 </v>
   <v>       0.00989075       0.08819917      -0.20062927 </v>
   <v>      -0.01132281      -0.09075900       0.20584257 </v>
   <v>       0.00995909       0.08901588       0.20733174 </v>
   <v>       0.00992574       0.08897090       0.20735530 </v>
   <v>       0.01071188       0.08845290      -0.20041923 </v>
   <v>      -0.00761169      -0.08843026      -0.17329288 </v>
   <v>      -0.01586653      -0.08766039      -0.19802782 </v>
   <v>       0.00988193       0.08826358      -0.20065873 </v>
   <v>      -0.01131269      -0.09312168       0.20567844 </v>
   <v>       0.00987436       0.08906269       0.20739970 </v>
   <v>      -0.01651329      -0.08502268      -0.20168595 </v>
   <v>       0.00992321       0.08818488      -0.20045426 </v>
   <v>      -0.00994166      -0.08753940       0.19592240 </v>
   <v>      -0.00550373      -0.07930855       0.20229001 </v>
   <v>      -0.02031696      -0.09103831      -0.17927572 </v>
   <v>       0.01083105       0.08919942       0.20735453 </v>
   <v>       0.01073684       0.08849543      -0.20045139 </v>
   <v>      -0.00603970      -0.08837214      -0.18885292 </v>
   <v>       0.01081723       0.08843342      -0.20049487 </v>
   <v>      -0.00861784      -0.08038078       0.19919701 </v>
   <v>       0.01089504       0.08901821       0.20738461 </v>
   <v>      -0.01214817      -0.09152970      -0.19043460 </v>
   <v>      -0.01281868      -0.07720050       0.20184222 </v>
   <v>      -0.16708631      -0.43215976      -1.38382733 </v>
   <v>       0.01003557       0.08836773      -0.20059147 </v>
   <v>      -0.00925236      -0.07351895       0.18491187 </v>
   <v>       0.01012135       0.08895407       0.20738392 </v>
   <v>      -0.12984022      -0.00190933      -0.30515498 </v>
   <v>       0.00994695       0.08846970      -0.20050287 </v>
   <v>      -0.00309524      -0.08667804       0.20076318 </v>
   <v>       0.00998480       0.08920165       0.20732093 </v>
   <v>       0.01088346       0.08914124       0.20735181 </v>
   <v>      -0.01892363      -0.08078812       0.19382971 </v>
   <v>      -0.01597365      -0.08505292      -0.19774309 </v>
   <v>       0.01002135       0.08840846      -0.20053035 </v>
   <v>      -0.01488080      -0.08347143       0.19896870 </v>
   <v>       0.01005862       0.08913154       0.20743617 </v>
   <v>       0.01079727       0.08845535      -0.20046876 </v>
   <v>       0.12886776       0.07934695      -0.41143433 </v>
   <v>       0.00987524       0.08842724      -0.20041676 </v>
   <v>       0.00992600       0.08883287       0.20733142 </v>
  </varray>
  <varray name="stress" >
   <v>       1.51195023       0.28446286      -0.13215344 </v>
   <v>       0.28446285      -4.41284982       0.34430601 </v>
   <v>      -0.13215348       0.34430600      -5.54524292 </v>
  </varray>
  <energy>
   <i name="e_fr_energy">   -671.06671229 </i>
   <i name="e_wo_entrp">   -671.00445975 </i>
   <i name="e_0_energy">     -0.12450508 </i>
  </energy>
  <time name="totalsc">  403.55  405.76</time>
 </calculation>
 <calculation>
  <scstep>
   <time name="dav">    5.96    5.98</time>
   <time name="total">    6.95    6.98</time>
   <energy>
    <i name="alphaZ">    562.94535741 </i>
    <i name="ewald">  44438.45895129 </i>
    <i name="hartreedc"> -64340.71675739 </i>
    <i name="XCdc">   -662.28935590 </i>
    <i name="pawpsdc">  43336.99288077 </i>
    <i name="pawaedc"> -41577.13719796 </i>
    <i name="eentropy">     -0.12361137 </i>
    <i name="bandstr">  -3330.85753657 </i>
    <i name="atom">  20917.06298232 </i>
    <i name="e_fr_energy">   -655.66428740 </i>
    <i name="e_wo_entrp">   -655.54067603 </i>
    <i name="e_0_energy">   -655.60248172 </i>
   </energy>
  </scstep>
  <scstep>
   <time name="dav">    7.30    7.32</time>
   <time name="total">    8.24    8.27</time>
   <energy>
    <i name="e_fr_energy">   -655.98314578 </i>
    <i name="e_wo_entrp">   -655.89485933 </i>
    <i name="e_0_energy">   -655.93900255 </i>
   </energy>
  </scstep>
  <scstep>
   <time name="dav">    7.35    7.41</time>
   <time name="total">    8.32    8.39</time>
   <energy>
    <i name="e_fr_energy">   -656.13055969 </i>
    <i name="e_wo_entrp">   -656.01590485 </i>
    <i name="e_0_energy">   -656.07323227 </i>
   </energy>
  </scstep>
  <scstep>
   <time name="dav">    6.78    6.81</time>
   <time name="total">    7.77    7.81</time>
   <energy>
    <i name="e_fr_energy">   -655.77555315 </i>
    <i name="e_wo_entrp">   -655.66648304 </i>
    <i name="e_0_energy">   -655.72101809 </i>
   </energy>
  </scstep>
  <scstep>
   <time name="dav">    7.30    7.32</time>
   <time name="total">    8.28    8.31</time>
   <energy>
    <i name="e_fr_energy">   -655.84223041 </i>
    <i name="e_wo_entrp">   -655.72538145 </i>
    <i name="e_0_energy">   -655.78380593 </i>
   </energy>
  </scstep>
  <scstep>
   <time name="dav">    6.53    6.55</time>
   <time name="total">    7.51    7.53</time>
   <energy>
    <i name="e_fr_energy">   -655.80436015 </i>
    <i name="e_wo_entrp">   -655.70285196 </i>
    <i name="e_0_energy">   -655.75360606 </i>
   </energy>
  </scstep>
  <scstep>
   <time name="dav">    7.36    7.38</time>
   <time name="total">    8.33    8.36</time>
   <energy>
    <i name="e_fr_energy">   -655.81217990 </i>
    <i name="e_wo_entrp">   -655.71482060 </i>
    <i name="e_0_energy">   -655.76350025 </i>
   </energy>
  </scstep>
  <scstep>
   <time name="dav">    6.72    6.75</time>
   <time name="total">    7.70    7.73</time>
   <energy>
    <i name="e_fr_energy">   -655.80706933 </i>
    <i name="e_wo_entrp">   -655.70794432 </i>
    <i name="e_0_energy">   -655.75750683 </i>
   </energy>
  </scstep>
  <scstep>
   <time name="dav">    7.88    7.91</time>
   <time name="total">    8.86    8.89</time>
   <energy>
    <i name="e_fr_energy">   -655.76881692 </i>
    <i name="e_wo_entrp">   -655.64986562 </i>
    <i name="e_0_energy">   -655.70934127 </i>
   </energy>
  </scstep>
  <scstep>
   <time name="dav">    7.83    7.91</time>
   <time name="total">    8.79    8.88</time>
   <energy>
    <i name="e_fr_energy">   -655.80766862 </i>
    <i name="e_wo_entrp">   -655.71472062 </i>
    <i name="e_0_energy">   -655.76119462 </i>
   </energy>
  </scstep>
  <scstep>
   <time name="dav">    6.74    6.76</time>
   <time name="total">    7.73    7.76</time>
   <energy>
    <i name="e_fr_energy">   -655.76307972 </i>
    <i name="e_wo_entrp">   -655.63612477 </i>
    <i name="e_0_energy">   -655.69960225 </i>
   </energy>
  </scstep>
  <scstep>
   <time name="dav">    7.28    7.31</time>
   <time name="total">    8.26    8.30</time>
   <energy>
    <i name="e_fr_energy">   -655.76313714 </i>
    <i name="e_wo_entrp">   -655.64601979 </i>
    <i name="e_0_energy">   -655.70457847 </i>
   </energy>
  </scstep>
  <scstep>
   <time name="dav">    8.19    8.22</time>
   <time name="total">    9.17    9.27</time>
   <energy>
    <i name="e_fr_energy">   -655.75299401 </i>
    <i name="e_wo_entrp">   -655.62415969 </i>
    <i name="e_0_energy">   -655.68857685 </i>
   </energy>
  </scstep>
  <scstep>
   <time name="dav">    6.96    6.98</time>
   <time name="total">    7.93    7.97</time>
   <energy>
    <i name="e_fr_energy">   -655.75210658 </i>
    <i name="e_wo_entrp">   -655.62578531 </i>
    <i name="e_0_energy">   -655.68894594 </i>
   </energy>
  </scstep>
  <scstep>
   <time name="dav">    7.00    7.03</time>
   <time name="total">    7.98    8.02</time>
   <energy>
    <i name="e_fr_energy">   -655.75148668 </i>
    <i name="e_wo_entrp">   -655.62451543 </i>
    <i name="e_0_energy">   -655.68800105 </i>
   </energy>
  </scstep>
  <scstep>
   <time name="dav">    5.36    5.38</time>
   <time name="total">    6.34    6.38</time>
   <energy>
    <i name="e_fr_energy">   -655.75130555 </i>
    <i name="e_wo_entrp">   -655.62538399 </i>
    <i name="e_0_energy">   -655.68834477 </i>
   </energy>
  </scstep>
  <scstep>
   <time name="dav">    4.33    4.35</time>
   <time name="total">    5.32    5.35</time>
   <energy>
    <i name="e_fr_energy">   -655.75125692 </i>
    <i name="e_wo_entrp">   -655.62500767 </i>
    <i name="e_0_energy">   -655.68813230 </i>
   </energy>
  </scstep>
  <scstep>
   <time name="dav">    4.42    4.44</time>
   <time name="total">    5.41    5.44</time>
   <energy>
    <i name="e_fr_energy">   -655.75114956 </i>
    <i name="e_wo_entrp">   -655.62544077 </i>
    <i name="e_0_energy">   -655.68829516 </i>
   </energy>
  </scstep>
  <scstep>
   <time name="dav">    4.45    4.47</time>
   <time name="total">    4.83    4.89</time>
   <energy>
    <i name="alphaZ">    562.94535741 </i>
    <i name="ewald">  44438.45895129 </i>
    <i name="hartreedc"> -64345.15890914 </i>
    <i name="XCdc">   -662.26584308 </i>
    <i name="pawpsdc">  43871.19815227 </i>
    <i name="pawaedc"> -42112.23897963 </i>
    <i name="eentropy">     -0.12533109 </i>
    <i name="bandstr">  -3325.62751954 </i>
    <i name="atom">  20917.06298232 </i>
    <i name="e_fr_energy">   -655.75113920 </i>
    <i name="e_wo_entrp">   -655.62580810 </i>
    <i name="e_0_energy">   -655.68847365 </i>
   </energy>
  </scstep>
  <structure>
   <crystal>
    <varray name="basis" >
     <v>       9.57094646       0.00000000       0.00000000 </v>
     <v>      -6.38062803      11.05157872       0.00000000 </v>
     <v>       0.00000000       0.00000000      34.88026251 </v>
    </varray>
    <i name="volume">   3689.42726549 </i>
    <varray name="rec_basis" >
     <v>       0.10448287       0.06032318       0.00000000 </v>
     <v>       0.00000000       0.09048481       0.00000000 </v>
     <v>       0.00000000       0.00000000       0.02866951 </v>
    </varray>
   </crystal>
   <varray name="positions" >
    <v>       0.84233316       0.19245430       0.39961916 </v>
    <v>       0.85010180       0.23560914       0.43788445 </v>
    <v>       0.90145424       0.29382525       0.37471194 </v>
    <v>       0.94525441       0.39868906       0.39666603 </v>
    <v>       0.91416057       0.36360970       0.43599818 </v>
    <v>       0.46237432       0.16246952       0.41992341 </v>
    <v>       0.56789258       0.36120968       0.40112787 </v>
    <v>       0.51829676       0.28260339       0.43356990 </v>
    <v>       0.54233841       0.29019294       0.36821413 </v>
    <v>       0.47730670       0.16712205       0.37961010 </v>
    <v>       0.70184076       0.27436250       0.40456550 </v>
    <v>       0.93287028       0.42320402       0.46012875 </v>
    <v>       0.52444354       0.30930183       0.46341317 </v>
    <v>       0.57034865       0.32422113       0.33879697 </v>
    <v>       0.61878717       0.45932468       0.40195644 </v>
    <v>       0.41784282       0.08140679       0.43758549 </v>
    <v>       0.81194326       0.18065226       0.46379452 </v>
    <v>       0.79686697       0.09823894       0.39144215 </v>
    <v>       0.90850317       0.28998863       0.34363560 </v>
    <v>       0.99261039       0.49050759       0.38561846 </v>
    <v>       0.44646815       0.09050255       0.36046826 </v>
    <v>       0.55610920       0.08412654       0.24994224 </v>
    <v>       0.55604702       0.33381607       0.25002408 </v>
    <v>       0.44382680       0.41589798       0.74997966 </v>
    <v>       0.55632114       0.58418552       0.25000998 </v>
    <v>       0.44382649       0.66589676       0.74997946 </v>
    <v>       0.55625691       0.83405443       0.25003877 </v>
    <v>       0.44382635       0.91589558       0.74997967 </v>
    <v>       0.88941816       0.33390746       0.25008869 </v>
    <v>       0.77718340       0.16588804       0.74998011 </v>
    <v>       0.77718431       0.41588988       0.74998005 </v>
    <v>       0.88959550       0.58418961       0.24999884 </v>
    <v>       0.77718387       0.66588869       0.74997991 </v>
    <v>       0.88956944       0.83418112       0.25005667 </v>
    <v>       0.77718288       0.91588848       0.74997991 </v>
    <v>       0.11048255       0.91589475       0.74997954 </v>
    <v>       0.88953284       0.08393013       0.24999157 </v>
    <v>       0.22281505       0.83426043       0.25003898 </v>
    <v>       0.44382569       0.16589564       0.74997989 </v>
    <v>       0.22279793       0.58403653       0.25001149 </v>
    <v>       0.11048390       0.41589613       0.74997924 </v>
    <v>       0.22268042       0.33398714       0.25003227 </v>
    <v>       0.22278747       0.08390607       0.24998327 </v>
    <v>       0.11048312       0.16589555       0.74997957 </v>
    <v>       0.11048400       0.66589559       0.74997939 </v>
    <v>       0.77571697       0.16448997       0.29384316 </v>
    <v>       0.88919578       0.08371877       0.79457792 </v>
    <v>       0.77745793       0.16633755       0.20542322 </v>
    <v>       0.88919774       0.08372157       0.70541292 </v>
    <v>       0.22253577       0.08372199       0.70541287 </v>
    <v>       0.11084660       0.16634391       0.20543324 </v>
    <v>       0.77922631       0.41733301       0.29416789 </v>
    <v>       0.88919552       0.33371826       0.79457784 </v>
    <v>       0.11078979       0.66627056       0.20542937 </v>
    <v>       0.55586491       0.83372182       0.70541289 </v>
    <v>       0.88919794       0.33372163       0.70541292 </v>
    <v>       0.22253373       0.08371936       0.79457813 </v>
    <v>       0.11081527       0.16628072       0.29463420 </v>
    <v>       0.77744257       0.66628409       0.29459999 </v>
    <v>       0.88919566       0.58371854       0.79457780 </v>
    <v>       0.77744963       0.66626025       0.20542914 </v>
    <v>       0.88919795       0.58372203       0.70541299 </v>
    <v>       0.77744699       0.91629560       0.29459493 </v>
    <v>       0.88919564       0.83371819       0.79457808 </v>
    <v>       0.77747279       0.41628461       0.20541565 </v>
    <v>       0.44418578       0.91632054       0.20542446 </v>
    <v>       0.44407698       0.91626934       0.29462593 </v>
    <v>       0.22253650       0.58372262       0.70541292 </v>
    <v>       0.22253398       0.58371955       0.79457809 </v>
    <v>       0.11082337       0.91628098       0.29461268 </v>
    <v>       0.22253421       0.83371928       0.79457803 </v>
    <v>       0.11083363       0.91631586       0.20542018 </v>
    <v>       0.22253630       0.83372183       0.70541296 </v>
    <v>       0.11078339       0.66626719       0.29461049 </v>
    <v>       0.77748837       0.91632975       0.20542384 </v>
    <v>       0.44234447       0.16478027       0.29295992 </v>
    <v>       0.55586341       0.08371899       0.79457789 </v>
    <v>       0.44418373       0.16634582       0.20540042 </v>
    <v>       0.55586555       0.08372155       0.70541296 </v>
    <v>       0.44378430       0.41665841       0.29445182 </v>
    <v>       0.55586326       0.33371944       0.79457801 </v>
    <v>       0.44417647       0.41628837       0.20542235 </v>
    <v>       0.55586558       0.33372263       0.70541288 </v>
    <v>       0.22253660       0.33372237       0.70541292 </v>
    <v>       0.11078050       0.41631408       0.20541276 </v>
    <v>       0.44411629       0.66629547       0.29460038 </v>
    <v>       0.55586345       0.58371917       0.79457798 </v>
    <v>       0.44412640       0.66630237       0.20541986 </v>
    <v>       0.55586575       0.58372233       0.70541304 </v>
    <v>       0.22253417       0.33371937       0.79457806 </v>
    <v>       0.11199146       0.41701311       0.29430483 </v>
    <v>       0.55586277       0.83371925       0.79457813 </v>
    <v>       0.88919754       0.83372102       0.70541289 </v>
   </varray>
  </structure>
  <varray name="forces" >
   <v>      -0.06638328      -0.37139244       0.27712922 </v>
   <v>      -0.10713031      -0.13696237       0.11799787 </v>
   <v>       0.00115714      -0.20704271      -0.66224386 </v>
   <v>      -0.19390923       0.72208915       0.22702244 </v>
   <v>      -0.16124346       0.02428161       0.18421474 </v>
   <v>       0.07849334      -0.31861977       0.72132480 </v>
   <v>      -0.09167191       0.70839378       0.58564880 </v>
   <v>       0.13329630       0.06177285       0.35922076 </v>
   <v>       0.17154484      -0.02026795      -0.81842754 </v>
   <v>       0.22059210      -0.40385503      -0.42336754 </v>
   <v>       0.05984859       0.01310851       0.19663054 </v>
   <v>      -0.02755550      -0.02134608       0.00734430 </v>
   <v>       0.03176874       0.00509551       0.00172983 </v>
   <v>       0.02127040      -0.07667859       0.56472954 </v>
   <v>       0.04984206      -0.20708854      -0.04841211 </v>
   <v>       0.02574641       0.12104298      -0.03848364 </v>
   <v>      -0.03545054       0.02765533      -0.04355053 </v>
   <v>      -0.05726347       0.18202340      -0.05091294 </v>
   <v>      -0.06282689       0.08974515       0.33066560 </v>
   <v>       0.00136008      -0.21191407       0.00672274 </v>
   <v>      -0.00028920       0.24065746       0.27955407 </v>
   <v>       0.03126695      -0.30353275      -0.42091155 </v>
   <v>      -0.01860210       0.07093630      -0.20608750 </v>
   <v>       0.01281828       0.08172165       0.00773277 </v>
   <v>      -0.01864335      -0.04656994      -0.03855743 </v>
   <v>       0.01292553       0.08156274       0.00778572 </v>
   <v>      -0.01797826      -0.07727149      -0.00684629 </v>
   <v>       0.01276982       0.08164291       0.00767940 </v>
   <v>       0.06417129      -0.08639052      -0.15970992 </v>
   <v>       0.00891810       0.08237172       0.00734604 </v>
   <v>       0.00887780       0.08213118       0.00736409 </v>
   <v>       0.00084781       0.01863838      -0.10809651 </v>
   <v>       0.00882825       0.08236627       0.00751375 </v>
   <v>      -0.00221812      -0.09499268      -0.01517935 </v>
   <v>       0.00902104       0.08218872       0.00749587 </v>
   <v>       0.01546260       0.08226629       0.00857814 </v>
   <v>       0.06610823      -0.15007032      -0.15028208 </v>
   <v>       0.01164909      -0.10594359      -0.01610904 </v>
   <v>       0.01278436       0.08163137       0.00756252 </v>
   <v>       0.00598288       0.01672663      -0.07522483 </v>
   <v>       0.01562443       0.08216475       0.00859024 </v>
   <v>       0.02111061      -0.10385136      -0.10122803 </v>
   <v>      -0.28059084      -0.20922873      -0.32653847 </v>
   <v>       0.01552894       0.08218836       0.00850365 </v>
   <v>       0.01545462       0.08214270       0.00859853 </v>
   <v>      -0.02196513      -0.08707896      -0.06723506 </v>
   <v>      -0.00499871      -0.04180620      -0.02079192 </v>
   <v>       0.02688628       0.05122528      -0.00821904 </v>
   <v>      -0.00517980      -0.04191414       0.01048173 </v>
   <v>      -0.00650694      -0.04036854       0.01194834 </v>
   <v>      -0.00049567       0.05009188       0.03306190 </v>
   <v>       0.06823524       0.09551254      -0.05324111 </v>
   <v>      -0.00501310      -0.04162892      -0.02091200 </v>
   <v>       0.00269966       0.05451222       0.04225778 </v>
   <v>      -0.00551660      -0.04032904       0.01184859 </v>
   <v>      -0.00530219      -0.04177487       0.01054375 </v>
   <v>      -0.00650363      -0.04041483      -0.02238794 </v>
   <v>       0.00644650       0.03579303       0.01564665 </v>
   <v>       0.00346173       0.04123043      -0.01332226 </v>
   <v>      -0.00492435      -0.04169633      -0.02074898 </v>
   <v>      -0.00022588       0.05401834       0.03601549 </v>
   <v>      -0.00514541      -0.04177258       0.01036099 </v>
   <v>       0.00818660       0.03530524      -0.00312933 </v>
   <v>      -0.00509543      -0.04168064      -0.02089314 </v>
   <v>       0.01799095       0.02444165       0.04115891 </v>
   <v>       0.00658081       0.01176157       0.03185038 </v>
   <v>      -0.00670075       0.03868391      -0.00187747 </v>
   <v>      -0.00649486      -0.04023444       0.01173770 </v>
   <v>      -0.00645562      -0.04036418      -0.02240979 </v>
   <v>       0.00111833       0.03767681       0.01243171 </v>
   <v>      -0.00646020      -0.04042874      -0.02228058 </v>
   <v>       0.00061845       0.01691659       0.02068899 </v>
   <v>      -0.00649284      -0.04035436       0.01172642 </v>
   <v>       0.00597574       0.05152837      -0.02116488 </v>
   <v>       0.00973165       0.02581126       0.03115984 </v>
   <v>      -0.01689906      -0.02769853      -0.13398320 </v>
   <v>      -0.00550761      -0.04046470      -0.02219693 </v>
   <v>      -0.01052262       0.05147453      -0.09176265 </v>
   <v>      -0.00563603      -0.04036142       0.01193397 </v>
   <v>      -0.02486137       0.06008400      -0.03508268 </v>
   <v>      -0.00549541      -0.04038403      -0.02243040 </v>
   <v>       0.00289188       0.03156305       0.04960869 </v>
   <v>      -0.00557984      -0.04029239       0.01211773 </v>
   <v>      -0.00645526      -0.04026059       0.01183328 </v>
   <v>      -0.00701441       0.02683188       0.03458338 </v>
   <v>       0.00616277       0.04071354      -0.02498208 </v>
   <v>      -0.00553432      -0.04030916      -0.02224081 </v>
   <v>       0.00536535       0.04073473       0.03486289 </v>
   <v>      -0.00559440      -0.04018557       0.01180627 </v>
   <v>      -0.00651715      -0.04031197      -0.02241290 </v>
   <v>       0.05016037       0.08493523      -0.04866152 </v>
   <v>      -0.00543504      -0.04044242      -0.02230725 </v>
   <v>      -0.00529689      -0.04181528       0.01049174 </v>
  </varray>
  <varray name="stress" >
   <v>       4.61022712       0.43054858      -0.18250613 </v>
   <v>       0.43054855      -2.87785850       0.48777227 </v>
   <v>      -0.18250615       0.48777220       2.36798154 </v>
  </varray>
  <energy>
   <i name="e_fr_energy">   -671.24322463 </i>
   <i name="e_wo_entrp">   -671.18055908 </i>
   <i name="e_0_energy">     -0.12533109 </i>
  </energy>
  <time name="totalsc">  153.66  154.54</time>
 </calculation>
 <calculation>
  <scstep>
   <time name="dav">    5.84    5.86</time>
   <time name="total">    6.82    6.85</time>
   <energy>
    <i name="alphaZ">    562.94535741 </i>
    <i name="ewald">  44421.45658760 </i>
    <i name="hartreedc"> -64329.24382334 </i>
    <i name="XCdc">   -662.36957300 </i>
    <i name="pawpsdc">  43871.41751427 </i>
    <i name="pawaedc"> -42112.45762515 </i>
    <i name="eentropy">     -0.12499313 </i>
    <i name="bandstr">  -3324.43989953 </i>
    <i name="atom">  20917.06298232 </i>
    <i name="e_fr_energy">   -655.75347255 </i>
    <i name="e_wo_entrp">   -655.62847942 </i>
    <i name="e_0_energy">   -655.69097599 </i>
   </energy>
  </scstep>
  <scstep>
   <time name="dav">    6.93    6.97</time>
   <time name="total">    7.90    7.96</time>
   <energy>
    <i name="e_fr_energy">   -655.75451461 </i>
    <i name="e_wo_entrp">   -655.62961027 </i>
    <i name="e_0_energy">   -655.69206244 </i>
   </energy>
  </scstep>
  <scstep>
   <time name="dav">    6.83    6.86</time>
   <time name="total">    7.81    7.85</time>
   <energy>
    <i name="e_fr_energy">   -655.75674861 </i>
    <i name="e_wo_entrp">   -655.63750001 </i>
    <i name="e_0_energy">   -655.69712431 </i>
   </energy>
  </scstep>
  <scstep>
   <time name="dav">    5.96    5.98</time>
   <time name="total">    6.93    6.96</time>
   <energy>
    <i name="e_fr_energy">   -655.75419802 </i>
    <i name="e_wo_entrp">   -655.62751528 </i>
    <i name="e_0_energy">   -655.69085665 </i>
   </energy>
  </scstep>
  <scstep>
   <time name="dav">    5.80    5.82</time>
   <time name="total">    6.78    6.81</time>
   <energy>
    <i name="e_fr_energy">   -655.75406404 </i>
    <i name="e_wo_entrp">   -655.63093356 </i>
    <i name="e_0_energy">   -655.69249880 </i>
   </energy>
  </scstep>
  <scstep>
   <time name="dav">    4.97    4.99</time>
   <time name="total">    5.94    5.97</time>
   <energy>
    <i name="e_fr_energy">   -655.75386412 </i>
    <i name="e_wo_entrp">   -655.62923573 </i>
    <i name="e_0_energy">   -655.69154992 </i>
   </energy>
  </scstep>
  <scstep>
   <time name="dav">    4.43    4.48</time>
   <time name="total">    4.80    4.91</time>
   <energy>
    <i name="alphaZ">    562.94535741 </i>
    <i name="ewald">  44421.45658760 </i>
    <i name="hartreedc"> -64329.01051120 </i>
    <i name="XCdc">   -662.37037832 </i>
    <i name="pawpsdc">  43839.57087570 </i>
    <i name="pawaedc"> -42080.55345976 </i>
    <i name="eentropy">     -0.12457586 </i>
    <i name="bandstr">  -3324.73072917 </i>
    <i name="atom">  20917.06298232 </i>
    <i name="e_fr_energy">   -655.75385128 </i>
    <i name="e_wo_entrp">   -655.62927542 </i>
    <i name="e_0_energy">   -655.69156335 </i>
   </energy>
  </scstep>
  <structure>
   <crystal>
    <varray name="basis" >
     <v>       9.57094646       0.00000000       0.00000000 </v>
     <v>      -6.38062803      11.05157872       0.00000000 </v>
     <v>       0.00000000       0.00000000      34.88026251 </v>
    </varray>
    <i name="volume">   3689.42726549 </i>
    <varray name="rec_basis" >
     <v>       0.10448287       0.06032318       0.00000000 </v>
     <v>       0.00000000       0.09048481       0.00000000 </v>
     <v>       0.00000000       0.00000000       0.02866951 </v>
    </varray>
   </crystal>
   <varray name="positions" >
    <v>       0.84237051       0.19242557       0.39962622 </v>
    <v>       0.85015459       0.23560659       0.43788816 </v>
    <v>       0.90146380       0.29378228       0.37467678 </v>
    <v>       0.94533102       0.39873153       0.39666429 </v>
    <v>       0.91420610       0.36361559       0.43599990 </v>
    <v>       0.46229111       0.16243670       0.41992424 </v>
    <v>       0.56784716       0.36124230       0.40112604 </v>
    <v>       0.51824583       0.28259387       0.43356943 </v>
    <v>       0.54231596       0.29019503       0.36816071 </v>
    <v>       0.47723875       0.16709852       0.37957410 </v>
    <v>       0.70185032       0.27436407       0.40455326 </v>
    <v>       0.93288069       0.42321170       0.46012738 </v>
    <v>       0.52443745       0.30930055       0.46341261 </v>
    <v>       0.57033162       0.32420703       0.33875515 </v>
    <v>       0.61878445       0.45932536       0.40196004 </v>
    <v>       0.41783326       0.08140301       0.43758496 </v>
    <v>       0.81194953       0.18065029       0.46379463 </v>
    <v>       0.79687303       0.09823696       0.39144704 </v>
    <v>       0.90850165       0.28996389       0.34360213 </v>
    <v>       0.99261773       0.49051328       0.38562404 </v>
    <v>       0.44644938       0.09049594       0.36045492 </v>
    <v>       0.55607240       0.08407380       0.24994670 </v>
    <v>       0.55601436       0.33378398       0.25002310 </v>
    <v>       0.44386785       0.41594908       0.74998040 </v>
    <v>       0.55627025       0.58412887       0.25000993 </v>
    <v>       0.44386756       0.66594795       0.74998021 </v>
    <v>       0.55621029       0.83400649       0.25003681 </v>
    <v>       0.44386743       0.91594684       0.74998041 </v>
    <v>       0.88938299       0.33386929       0.25008341 </v>
    <v>       0.77722291       0.16593980       0.74998082 </v>
    <v>       0.77722375       0.41594152       0.74998076 </v>
    <v>       0.88954854       0.58413268       0.24999953 </v>
    <v>       0.77722334       0.66594041       0.74998063 </v>
    <v>       0.88952421       0.83412475       0.25005352 </v>
    <v>       0.77722241       0.91594021       0.74998063 </v>
    <v>       0.11052433       0.91594607       0.74998028 </v>
    <v>       0.88949004       0.08389045       0.24999275 </v>
    <v>       0.22277565       0.83419880       0.25003701 </v>
    <v>       0.44386681       0.16594690       0.74998061 </v>
    <v>       0.22275967       0.58398978       0.25001134 </v>
    <v>       0.11052558       0.41594736       0.74998000 </v>
    <v>       0.22264997       0.33394367       0.25003074 </v>
    <v>       0.22274990       0.08386799       0.24998500 </v>
    <v>       0.11052486       0.16594681       0.74998031 </v>
    <v>       0.11052568       0.66594685       0.74998015 </v>
    <v>       0.77585396       0.16463467       0.29391168 </v>
    <v>       0.88917539       0.08369315       0.79459636 </v>
    <v>       0.77747919       0.16635943       0.20540470 </v>
    <v>       0.88917722       0.08369576       0.70539386 </v>
    <v>       0.22251493       0.08369615       0.70539381 </v>
    <v>       0.11086418       0.16636537       0.20541406 </v>
[...]
       <r>   -18.5719     0.0000     4.0000 </r>
       <r>   -18.4945     0.0000     4.0000 </r>
       <r>   -18.4171     0.0000     4.0000 </r>
       <r>   -18.3398     0.0000     4.0000 </r>
       <r>   -18.2624     0.0000     4.0000 </r>
       <r>   -18.1850     0.0000     4.0000 </r>
       <r>   -18.1076     0.0000     4.0000 </r>
       <r>   -18.0303     0.0000     4.0000 </r>
       <r>   -17.9529     0.0000     4.0000 </r>
       <r>   -17.8755     0.0000     4.0000 </r>
       <r>   -17.7982     0.0000     4.0000 </r>
       <r>   -17.7208     0.0000     4.0000 </r>
       <r>   -17.6434     0.0000     4.0000 </r>
       <r>   -17.5661     0.0000     4.0000 </r>
       <r>   -17.4887     0.0000     4.0000 </r>
       <r>   -17.4113     0.0000     4.0000 </r>
       <r>   -17.3339     0.0000     4.0000 </r>
       <r>   -17.2566     0.0000     4.0000 </r>
       <r>   -17.1792     0.0000     4.0000 </r>
       <r>   -17.1018     0.0000     4.0000 </r>
       <r>   -17.0245     0.0000     4.0000 </r>
       <r>   -16.9471     0.0000     4.0000 </r>
       <r>   -16.8697     0.0000     4.0000 </r>
       <r>   -16.7924     0.0000     4.0000 </r>
       <r>   -16.7150     0.0000     4.0000 </r>
       <r>   -16.6376     0.0000     4.0000 </r>
       <r>   -16.5602     0.0000     4.0000 </r>
       <r>   -16.4829     0.0000     4.0000 </r>
       <r>   -16.4055     0.0000     4.0000 </r>
       <r>   -16.3281     0.0000     4.0000 </r>
       <r>   -16.2508     0.0000     4.0000 </r>
       <r>   -16.1734     0.0000     4.0000 </r>
       <r>   -16.0960     0.0000     4.0000 </r>
       <r>   -16.0187     0.0000     4.0000 </r>
       <r>   -15.9413     0.0000     4.0000 </r>
       <r>   -15.8639     0.0029     4.0002 </r>
       <r>   -15.7865     0.1250     4.0099 </r>
       <r>   -15.7092     1.8072     4.1497 </r>
       <r>   -15.6318     9.4074     4.8776 </r>
       <r>   -15.5544    18.9848     6.3464 </r>
       <r>   -15.4771    15.5847     7.5522 </r>
       <r>   -15.3997     5.1269     7.9489 </r>
       <r>   -15.3223     0.6331     7.9979 </r>
       <r>   -15.2450     0.0273     8.0000 </r>
       <r>   -15.1676     0.0038     8.0003 </r>
       <r>   -15.0902     0.1889     8.0149 </r>
       <r>   -15.0128     3.4947     8.2853 </r>
       <r>   -14.9355    22.5955    10.0335 </r>
       <r>   -14.8581    56.6072    14.4132 </r>
       <r>   -14.7807    66.2552    19.5393 </r>
       <r>   -14.7034    42.7347    22.8457 </r>
       <r>   -14.6260    18.5001    24.2770 </r>
       <r>   -14.5486    24.5634    26.1775 </r>
       <r>   -14.4713    43.8140    29.5674 </r>
       <r>   -14.3939    52.7300    33.6471 </r>
       <r>   -14.3165    63.3295    38.5469 </r>
       <r>   -14.2391    50.4254    42.4483 </r>
       <r>   -14.1618    18.1277    43.8508 </r>
       <r>   -14.0844     8.3094    44.4937 </r>
       <r>   -14.0070    26.7010    46.5596 </r>
       <r>   -13.9297    59.3402    51.1507 </r>
       <r>   -13.8523   101.5590    59.0083 </r>
       <r>   -13.7749   136.3188    69.5553 </r>
       <r>   -13.6976   111.2464    78.1624 </r>
       <r>   -13.6202    76.8622    84.1093 </r>
       <r>   -13.5428    85.6848    90.7387 </r>
       <r>   -13.4654    94.4864    98.0491 </r>
       <r>   -13.3881    75.5601   103.8952 </r>
       <r>   -13.3107    40.3807   107.0194 </r>
       <r>   -13.2333    11.3117   107.8946 </r>
       <r>   -13.1560     1.3072   107.9957 </r>
       <r>   -13.0786     0.0544   107.9999 </r>
       <r>   -13.0012     0.0008   108.0000 </r>
       <r>   -12.9239     0.0000   108.0000 </r>
       <r>   -12.8465     0.0000   108.0000 </r>
       <r>   -12.7691     0.0000   108.0000 </r>
       <r>   -12.6918     0.0000   108.0000 </r>
       <r>   -12.6144     0.0000   108.0000 </r>
       <r>   -12.5370     0.0000   108.0000 </r>
       <r>   -12.4596     0.0000   108.0000 </r>
       <r>   -12.3823     0.0000   108.0000 </r>
       <r>   -12.3049     0.0000   108.0000 </r>
       <r>   -12.2275     0.0000   108.0000 </r>
       <r>   -12.1502     0.0000   108.0000 </r>
       <r>   -12.0728     0.0000   108.0000 </r>
       <r>   -11.9954     0.0000   108.0000 </r>
       <r>   -11.9181     0.0000   108.0000 </r>
       <r>   -11.8407     0.0000   108.0000 </r>
       <r>   -11.7633     0.0000   108.0000 </r>
       <r>   -11.6859     0.0000   108.0000 </r>
       <r>   -11.6086     0.0000   108.0000 </r>
       <r>   -11.5312     0.0000   108.0000 </r>
       <r>   -11.4538     0.0000   108.0000 </r>
       <r>   -11.3765     0.0000   108.0000 </r>
       <r>   -11.2991     0.0000   108.0000 </r>
       <r>   -11.2217     0.0000   108.0000 </r>
       <r>   -11.1444     0.0000   108.0000 </r>
       <r>   -11.0670     0.0000   108.0000 </r>
       <r>   -10.9896     0.0001   108.0000 </r>
       <r>   -10.9122     0.0108   108.0008 </r>
       <r>   -10.8349     0.3302   108.0264 </r>
       <r>   -10.7575     3.4788   108.2955 </r>
       <r>   -10.6801    13.4172   109.3336 </r>
       <r>   -10.6028    20.4314   110.9144 </r>
       <r>   -10.5254    16.8066   112.2147 </r>
       <r>   -10.4480    22.5720   113.9611 </r>
       <r>   -10.3707    30.4971   116.3207 </r>
       <r>   -10.2933    17.6630   117.6873 </r>
       <r>   -10.2159     4.2379   118.0152 </r>
       <r>   -10.1385     3.9864   118.3236 </r>
       <r>   -10.0612     9.8559   119.0861 </r>
       <r>    -9.9838     8.8489   119.7708 </r>
       <r>    -9.9064     2.6830   119.9784 </r>
       <r>    -9.8291     0.2708   119.9993 </r>
       <r>    -9.7517     0.0089   120.0000 </r>
       <r>    -9.6743     0.0001   120.0000 </r>
       <r>    -9.5970     0.0000   120.0000 </r>
       <r>    -9.5196     0.0000   120.0000 </r>
       <r>    -9.4422     0.0000   120.0000 </r>
       <r>    -9.3648     0.0000   120.0000 </r>
       <r>    -9.2875     0.0000   120.0000 </r>
       <r>    -9.2101     0.0000   120.0000 </r>
       <r>    -9.1327     0.0000   120.0000 </r>
       <r>    -9.0554     0.0000   120.0000 </r>
       <r>    -8.9780     0.0000   120.0000 </r>
       <r>    -8.9006     0.0000   120.0000 </r>
       <r>    -8.8233     0.0000   120.0000 </r>
       <r>    -8.7459     0.0000   120.0000 </r>
       <r>    -8.6685     0.0000   120.0000 </r>
       <r>    -8.5911     0.0000   120.0000 </r>
       <r>    -8.5138     0.0000   120.0000 </r>
       <r>    -8.4364     0.0000   120.0000 </r>
       <r>    -8.3590     0.0000   120.0000 </r>
       <r>    -8.2817     0.0000   120.0000 </r>
       <r>    -8.2043     0.0000   120.0000 </r>
       <r>    -8.1269     0.0000   120.0000 </r>
       <r>    -8.0496     0.0000   120.0000 </r>
       <r>    -7.9722     0.0016   120.0001 </r>
       <r>    -7.8948     0.0757   120.0060 </r>
       <r>    -7.8174     1.1893   120.0980 </r>
       <r>    -7.7401     6.1674   120.5752 </r>
       <r>    -7.6627    10.7444   121.4065 </r>
       <r>    -7.5853     6.3334   121.8965 </r>
       <r>    -7.5080     1.2818   121.9956 </r>
       <r>    -7.4306     0.8875   122.0643 </r>
       <r>    -7.3532     8.2034   122.6990 </r>
       <r>    -7.2759    30.8732   125.0877 </r>
       <r>    -7.1985    47.6511   128.7744 </r>
       <r>    -7.1211    35.3585   131.5101 </r>
       <r>    -7.0438    20.7869   133.1184 </r>
       <r>    -6.9664    21.2147   134.7598 </r>
       <r>    -6.8890    33.7418   137.3704 </r>
       <r>    -6.8116    65.3243   142.4245 </r>
       <r>    -6.7343   108.7645   150.8396 </r>
       <r>    -6.6569   105.6276   159.0120 </r>
       <r>    -6.5795    79.5586   165.1674 </r>
       <r>    -6.5022   107.6121   173.4933 </r>
       <r>    -6.4248   144.4043   184.6659 </r>
       <r>    -6.3474   133.9767   195.0316 </r>
       <r>    -6.2701    96.9584   202.5333 </r>
       <r>    -6.1927    52.5344   206.5979 </r>
       <r>    -6.1153    15.9353   207.8308 </r>
       <r>    -6.0379     2.0843   207.9921 </r>
       <r>    -5.9606     0.1022   208.0000 </r>
       <r>    -5.8832     0.0855   208.0066 </r>
       <r>    -5.8058     1.7820   208.1445 </r>
       <r>    -5.7285    13.6145   209.1978 </r>
       <r>    -5.6511    40.8105   212.3553 </r>
       <r>    -5.5737    54.6790   216.5858 </r>
       <r>    -5.4964    51.1210   220.5410 </r>
       <r>    -5.4190    97.9343   228.1182 </r>
       <r>    -5.3416   199.4533   243.5499 </r>
       <r>    -5.2642   204.7408   259.3907 </r>
       <r>    -5.1869    94.2179   266.6803 </r>
       <r>    -5.1095    28.8485   268.9123 </r>
       <r>    -5.0321    35.1165   271.6293 </r>
       <r>    -4.9548    38.0019   274.5695 </r>
       <r>    -4.8774    18.6086   276.0092 </r>
       <r>    -4.8000    23.9793   277.8645 </r>
       <r>    -4.7227    71.2107   283.3740 </r>
       <r>    -4.6453   102.2320   291.2837 </r>
       <r>    -4.5679    82.4587   297.6635 </r>
       <r>    -4.4905    75.4407   303.5004 </r>
       <r>    -4.4132    88.8242   310.3727 </r>
       <r>    -4.3358    92.7644   317.5499 </r>
       <r>    -4.2584    64.5907   322.5472 </r>
       <r>    -4.1811    36.7590   325.3913 </r>
       <r>    -4.1037    48.6254   329.1534 </r>
       <r>    -4.0263    63.8191   334.0911 </r>
       <r>    -3.9490    62.7687   338.9475 </r>
       <r>    -3.8716    55.8732   343.2704 </r>
       <r>    -3.7942    42.8757   346.5877 </r>
       <r>    -3.7168    26.3339   348.6251 </r>
       <r>    -3.6395    24.1510   350.4937 </r>
       <r>    -3.5621    21.9587   352.1926 </r>
       <r>    -3.4847    30.8428   354.5789 </r>
       <r>    -3.4074    56.6570   358.9625 </r>
       <r>    -3.3300    90.4678   365.9620 </r>
       <r>    -3.2526   135.3843   376.4366 </r>
       <r>    -3.1753   142.4132   387.4551 </r>
       <r>    -3.0979   109.2920   395.9110 </r>
       <r>    -3.0205    84.0356   402.4128 </r>
       <r>    -2.9431    73.9027   408.1307 </r>
       <r>    -2.8658    88.7376   414.9963 </r>
       <r>    -2.7884   108.7653   423.4115 </r>
       <r>    -2.7110    87.2267   430.1602 </r>
       <r>    -2.6337    42.1992   433.4251 </r>
       <r>    -2.5563    29.8934   435.7380 </r>
       <r>    -2.4789    65.1260   440.7768 </r>
       <r>    -2.4016    92.0726   447.9004 </r>
       <r>    -2.3242    77.5715   453.9021 </r>
       <r>    -2.2468    52.9070   457.9955 </r>
       <r>    -2.1694    51.5094   461.9808 </r>
       <r>    -2.0921    61.2992   466.7235 </r>
       <r>    -2.0147    55.7784   471.0391 </r>
       <r>    -1.9373    50.4660   474.9436 </r>
       <r>    -1.8600    31.1941   477.3571 </r>
       <r>    -1.7826    13.6948   478.4167 </r>
       <r>    -1.7052    26.0094   480.4290 </r>
       <r>    -1.6279    41.6073   483.6482 </r>
       <r>    -1.5505    29.7694   485.9514 </r>
       <r>    -1.4731    21.7546   487.6346 </r>
       <r>    -1.3958    20.1994   489.1974 </r>
       <r>    -1.3184     8.8617   489.8830 </r>
       <r>    -1.2410     1.4298   489.9936 </r>
       <r>    -1.1636     0.0806   489.9999 </r>
       <r>    -1.0863     0.0015   490.0000 </r>
       <r>    -1.0089     0.0000   490.0000 </r>
       <r>    -0.9315     0.0000   490.0000 </r>
       <r>    -0.8542     0.0000   490.0000 </r>
       <r>    -0.7768     0.0000   490.0000 </r>
       <r>    -0.6994     0.0000   490.0000 </r>
       <r>    -0.6221     0.0000   490.0000 </r>
       <r>    -0.5447     0.0000   490.0000 </r>
       <r>    -0.4673     0.0000   490.0000 </r>
       <r>    -0.3899     0.0000   490.0000 </r>
       <r>    -0.3126     0.0000   490.0000 </r>
       <r>    -0.2352     0.0000   490.0000 </r>
       <r>    -0.1578     0.0000   490.0000 </r>
       <r>    -0.0805     0.0000   490.0000 </r>
       <r>    -0.0031     0.0000   490.0000 </r>
       <r>     0.0743     0.0009   490.0001 </r>
       <r>     0.1516     0.0677   490.0053 </r>
       <r>     0.2290     1.7655   490.1419 </r>
       <r>     0.3064    15.8331   491.3669 </r>
       <r>     0.3838    50.6598   495.2865 </r>
       <r>     0.4611    62.8097   500.1460 </r>
       <r>     0.5385    49.5995   503.9835 </r>
       <r>     0.6159    71.7892   509.5379 </r>
       <r>     0.6932   130.0388   519.5989 </r>
       <r>     0.7706   165.0950   532.3723 </r>
       <r>     0.8480   144.8530   543.5796 </r>
       <r>     0.9253   127.0520   553.4096 </r>
       <r>     1.0027    81.4424   559.7108 </r>
       <r>     1.0801    28.0963   561.8846 </r>
       <r>     1.1575    21.9258   563.5810 </r>
       <r>     1.2348    64.2968   568.5556 </r>
       <r>     1.3122   108.8176   576.9748 </r>
       <r>     1.3896   114.7610   585.8538 </r>
       <r>     1.4669    97.0987   593.3664 </r>
       <r>     1.5443    61.6654   598.1374 </r>
       <r>     1.6217    20.9741   599.7602 </r>
       <r>     1.6990     2.9477   599.9882 </r>
       <r>     1.7764     0.1494   599.9998 </r>
       <r>     1.8538     0.0025   600.0000 </r>
       <r>     1.9312     0.0000   600.0000 </r>
       <r>     2.0085     0.0000   600.0000 </r>
       <r>     2.0859     0.0000   600.0000 </r>
       <r>     2.1633     0.0000   600.0000 </r>
       <r>     2.2406     0.0000   600.0000 </r>
       <r>     2.3180     0.0000   600.0000 </r>
       <r>     2.3954     0.0000   600.0000 </r>
       <r>     2.4727     0.0000   600.0000 </r>
       <r>     2.5501     0.0000   600.0000 </r>
      </set>
     </set>
    </array>
   </total>
  </dos>
 </calculation>
 <structure name="finalpos" >
  <crystal>
   <varray name="basis" >
    <v>       9.57094646       0.00000000       0.00000000 </v>
    <v>      -6.38062803      11.05157872       0.00000000 </v>
    <v>       0.00000000       0.00000000      34.88026251 </v>
   </varray>
   <i name="volume">   3689.42726549 </i>
   <varray name="rec_basis" >
    <v>       0.10448287       0.06032318       0.00000000 </v>
    <v>       0.00000000       0.09048481       0.00000000 </v>
    <v>       0.00000000       0.00000000       0.02866951 </v>
   </varray>
  </crystal>
  <varray name="positions" >
   <v>       0.84445738       0.20491908       0.40405207 </v>
   <v>       0.85527951       0.23803080       0.44362922 </v>
   <v>       0.89603233       0.31186251       0.38157433 </v>
   <v>       0.94065518       0.41141093       0.40715289 </v>
   <v>       0.91514178       0.36590720       0.44555018 </v>
   <v>       0.47147434       0.16584166       0.43306143 </v>
   <v>       0.56713182       0.36476219       0.41453107 </v>
   <v>       0.52674746       0.28615437       0.44699230 </v>
   <v>       0.53829535       0.29343081       0.38067183 </v>
   <v>       0.47832770       0.17044064       0.39207312 </v>
   <v>       0.70322743       0.28105886       0.41521647 </v>
   <v>       0.93315262       0.41808284       0.47157382 </v>
   <v>       0.53948132       0.31306671       0.47694095 </v>
   <v>       0.56205401       0.32726575       0.35141726 </v>
   <v>       0.61671920       0.46217954       0.41532945 </v>
   <v>       0.43536434       0.08599015       0.45065253 </v>
   <v>       0.82049622       0.17691176       0.46801111 </v>
   <v>       0.79943727       0.11413026       0.39282756 </v>
   <v>       0.89681095       0.31616530       0.35047643 </v>
   <v>       0.98105802       0.50414329       0.39857408 </v>
   <v>       0.44887710       0.09536287       0.37273524 </v>
   <v>       0.55457887       0.07957680       0.24402727 </v>
   <v>       0.55474627       0.32967137       0.24423658 </v>
   <v>       0.44448109       0.41638155       0.74977857 </v>
   <v>       0.55491848       0.57991604       0.24423238 </v>
   <v>       0.44448164       0.66637837       0.74977840 </v>
   <v>       0.55479427       0.82978258       0.24421750 </v>
   <v>       0.44447836       0.91637478       0.74977913 </v>
   <v>       0.88826904       0.32965095       0.24425077 </v>
   <v>       0.77782729       0.16637256       0.74978837 </v>
   <v>       0.77782963       0.41637543       0.74978840 </v>
   <v>       0.88837738       0.58010027       0.24419778 </v>
   <v>       0.77782913       0.66637444       0.74978887 </v>
   <v>       0.88803079       0.82974542       0.24424081 </v>
   <v>       0.77782805       0.91637273       0.74978890 </v>
   <v>       0.11114150       0.91639346       0.74979256 </v>
   <v>       0.88823470       0.07963105       0.24415503 </v>
   <v>       0.22140546       0.82983327       0.24418785 </v>
   <v>       0.44447661       0.16637545       0.74977913 </v>
   <v>       0.22167690       0.57998948       0.24417899 </v>
   <v>       0.11114489       0.41639602       0.74979118 </v>
   <v>       0.22146610       0.32953072       0.24420224 </v>
   <v>       0.22098677       0.07956269       0.24412263 </v>
   <v>       0.11114280       0.16639478       0.74979181 </v>
   <v>       0.11114418       0.66639510       0.74979190 </v>
   <v>       0.77567378       0.16150544       0.28854069 </v>
   <v>       0.88953609       0.08382007       0.79435227 </v>
   <v>       0.77656824       0.16241412       0.19962115 </v>
   <v>       0.88955642       0.08383081       0.70524346 </v>
   <v>       0.22286265       0.08384188       0.70524279 </v>
   <v>       0.10962811       0.16236208       0.19959702 </v>
   <v>       0.77686395       0.41273408       0.28866380 </v>
   <v>       0.88953807       0.33382102       0.79435133 </v>
   <v>       0.10975563       0.66242172       0.19964026 </v>
   <v>       0.55623482       0.83384135       0.70523659 </v>
   <v>       0.88955751       0.33383340       0.70524330 </v>
   <v>       0.22289605       0.08385110       0.79434972 </v>
   <v>       0.10955124       0.16213664       0.28873587 </v>
   <v>       0.77640382       0.66239564       0.28875609 </v>
   <v>       0.88953750       0.58382043       0.79435225 </v>
   <v>       0.77631694       0.66239907       0.19966837 </v>
   <v>       0.88955936       0.58383507       0.70524338 </v>
   <v>       0.77630886       0.91233900       0.28875277 </v>
   <v>       0.88953595       0.83381938       0.79435296 </v>
   <v>       0.77648334       0.41232594       0.19971909 </v>
   <v>       0.44285122       0.91209538       0.19957581 </v>
   <v>       0.44292724       0.91242267       0.28870525 </v>
   <v>       0.22286849       0.58384708       0.70524194 </v>
   <v>       0.22289933       0.58385139       0.79434935 </v>
   <v>       0.10961284       0.91232304       0.28873572 </v>
   <v>       0.22289792       0.83385026       0.79434987 </v>
   <v>       0.10937049       0.91216138       0.19960890 </v>
   <v>       0.22286436       0.83384356       0.70524266 </v>
   <v>       0.10985368       0.66247479       0.28872490 </v>
   <v>       0.77629446       0.91223505       0.19964101 </v>
   <v>       0.44241846       0.16157033       0.28844874 </v>
   <v>       0.55619698       0.08382481       0.79434297 </v>
   <v>       0.44283527       0.16243238       0.19959278 </v>
   <v>       0.55623144       0.08383948       0.70523674 </v>
   <v>       0.44297012       0.41240157       0.28873625 </v>
   <v>       0.55619712       0.33382651       0.79434254 </v>
   <v>       0.44320453       0.41235306       0.19969412 </v>
   <v>       0.55623312       0.33384192       0.70523673 </v>
   <v>       0.22286633       0.33384499       0.70524213 </v>
   <v>       0.10978602       0.41232812       0.19967363 </v>
   <v>       0.44308469       0.66245765       0.28873378 </v>
   <v>       0.55619797       0.58382634       0.79434312 </v>
   <v>       0.44320164       0.66241609       0.19965946 </v>
   <v>       0.55623623       0.58384390       0.70523652 </v>
   <v>       0.22289763       0.33385279       0.79434889 </v>
   <v>       0.11043926       0.41259024       0.28863121 </v>
   <v>       0.55619749       0.83382508       0.79434343 </v>
   <v>       0.88955804       0.83383248       0.70524363 </v>
  </varray>
 </structure>
</modeling>
