basalPlane                              
           1
     9.570946    0.000000    0.000000
    -6.380628   11.051579    0.000000
     0.000000    0.000000   34.880263
   C    Co   H    Mo   S 
  10   1  10  24  48
Direct configuration=     1
   0.84289515  0.19202215  0.39972539
   0.85089581  0.23557079  0.43794038
   0.90159813  0.29317891  0.37418303
   0.94640682  0.39932791  0.39663990
   0.91484548  0.36369838  0.43602407
   0.46112264  0.16197579  0.41993589
   0.56720922  0.36170027  0.40110034
   0.51753056  0.28246019  0.43356293
   0.54200068  0.29022439  0.36741055
   0.47628448  0.16676820  0.37906858
   0.70198459  0.27438601  0.40438141
   0.93302696  0.42331953  0.46010803
   0.52435188  0.30928266  0.46340472
   0.57009247  0.32400910  0.33816786
   0.61874635  0.45933495  0.40201050
   0.41769909  0.08134991  0.43757754
   0.81203756  0.18062269  0.46379616
   0.79695823  0.09820920  0.39151571
   0.90848023  0.28961646  0.34313210
   0.99272082  0.49059316  0.38570230
   0.44618587  0.09040317  0.36026758
   0.55555566  0.08333325  0.25000928
   0.55555566  0.33333325  0.25000928
   0.44444432  0.41666674  0.74999076
   0.55555566  0.58333325  0.25000928
   0.44444432  0.66666674  0.74999076
   0.55555566  0.83333325  0.25000928
   0.44444432  0.91666674  0.74999076
   0.88888899  0.33333325  0.25000928
   0.77777765  0.16666674  0.74999076
   0.77777765  0.41666674  0.74999076
   0.88888899  0.58333325  0.25000928
   0.77777765  0.66666674  0.74999076
   0.88888899  0.83333325  0.25000928
   0.77777765  0.91666674  0.74999076
   0.11111099  0.91666674  0.74999076
   0.88888899  0.08333325  0.25000928
   0.22222233  0.83333325  0.25000928
   0.44444432  0.16666674  0.74999076
   0.22222233  0.58333325  0.25000928
   0.11111099  0.41666674  0.74999076
   0.22222233  0.33333325  0.25000928
   0.22222233  0.08333325  0.25000928
   0.11111099  0.16666674  0.74999076
   0.11111099  0.66666674  0.74999076
   0.77777765  0.16666674  0.29487388
   0.88888899  0.08333325  0.79485533
   0.77777765  0.16666674  0.20514467
   0.88888899  0.08333325  0.70512613
   0.22222233  0.08333325  0.70512613
   0.11111099  0.16666674  0.20514467
   0.77777765  0.41666674  0.29487388
   0.88888899  0.33333325  0.79485533
   0.11111099  0.66666674  0.20514467
   0.55555566  0.83333325  0.70512613
   0.88888899  0.33333325  0.70512613
   0.22222233  0.08333325  0.79485533
   0.11111099  0.16666674  0.29487388
   0.77777765  0.66666674  0.29487388
   0.88888899  0.58333325  0.79485533
   0.77777765  0.66666674  0.20514467
   0.88888899  0.58333325  0.70512613
   0.77777765  0.91666674  0.29487388
   0.88888899  0.83333325  0.79485533
   0.77777765  0.41666674  0.20514467
   0.44444432  0.91666674  0.20514467
   0.44444432  0.91666674  0.29487388
   0.22222233  0.58333325  0.70512613
   0.22222233  0.58333325  0.79485533
   0.11111099  0.91666674  0.29487388
   0.22222233  0.83333325  0.79485533
   0.11111099  0.91666674  0.20514467
   0.22222233  0.83333325  0.70512613
   0.11111099  0.66666674  0.29487388
   0.77777765  0.91666674  0.20514467
   0.44444432  0.16666674  0.29487388
   0.55555566  0.08333325  0.79485533
   0.44444432  0.16666674  0.20514467
   0.55555566  0.08333325  0.70512613
   0.44444432  0.41666674  0.29487388
   0.55555566  0.33333325  0.79485533
   0.44444432  0.41666674  0.20514467
   0.55555566  0.33333325  0.70512613
   0.22222233  0.33333325  0.70512613
   0.11111099  0.41666674  0.20514467
   0.44444432  0.66666674  0.29487388
   0.55555566  0.58333325  0.79485533
   0.44444432  0.66666674  0.20514467
   0.55555566  0.58333325  0.70512613
   0.22222233  0.33333325  0.79485533
   0.11111099  0.41666674  0.29487388
   0.55555566  0.83333325  0.79485533
   0.88888899  0.83333325  0.70512613
Direct configuration=     2
   0.84233316  0.19245430  0.39961916
   0.85010180  0.23560914  0.43788445
   0.90145424  0.29382525  0.37471194
   0.94525441  0.39868906  0.39666603
   0.91416057  0.36360970  0.43599818
   0.46237432  0.16246952  0.41992341
   0.56789258  0.36120968  0.40112787
   0.51829676  0.28260339  0.43356990
   0.54233841  0.29019294  0.36821413
   0.47730670  0.16712205  0.37961010
   0.70184076  0.27436250  0.40456550
   0.93287028  0.42320402  0.46012875
   0.52444354  0.30930183  0.46341317
   0.57034865  0.32422113  0.33879697
   0.61878717  0.45932468  0.40195644
   0.41784282  0.08140679  0.43758549
   0.81194326  0.18065226  0.46379452
   0.79686697  0.09823894  0.39144215
   0.90850317  0.28998863  0.34363560
   0.99261039  0.49050759  0.38561846
   0.44646815  0.09050255  0.36046826
   0.55610920  0.08412654  0.24994224
   0.55604702  0.33381607  0.25002408
   0.44382680  0.41589798  0.74997966
   0.55632114  0.58418552  0.25000998
   0.44382649  0.66589676  0.74997946
   0.55625691  0.83405443  0.25003877
   0.44382635  0.91589558  0.74997967
   0.88941816  0.33390746  0.25008869
   0.77718340  0.16588804  0.74998011
   0.77718431  0.41588988  0.74998005
   0.88959550  0.58418961  0.24999884
   0.77718387  0.66588869  0.74997991
   0.88956944  0.83418112  0.25005667
   0.77718288  0.91588848  0.74997991
   0.11048255  0.91589475  0.74997954
   0.88953284  0.08393013  0.24999157
   0.22281505  0.83426043  0.25003898
   0.44382569  0.16589564  0.74997989
   0.22279793  0.58403653  0.25001149
   0.11048390  0.41589613  0.74997924
   0.22268042  0.33398714  0.25003227
   0.22278747  0.08390607  0.24998327
   0.11048312  0.16589555  0.74997957
   0.11048400  0.66589559  0.74997939
   0.77571697  0.16448997  0.29384316
   0.88919578  0.08371877  0.79457792
   0.77745793  0.16633755  0.20542322
   0.88919774  0.08372157  0.70541292
   0.22253577  0.08372199  0.70541287
   0.11084660  0.16634391  0.20543324
   0.77922631  0.41733301  0.29416789
   0.88919552  0.33371826  0.79457784
   0.11078979  0.66627056  0.20542937
   0.55586491  0.83372182  0.70541289
   0.88919794  0.33372163  0.70541292
   0.22253373  0.08371936  0.79457813
   0.11081527  0.16628072  0.29463420
   0.77744257  0.66628409  0.29459999
   0.88919566  0.58371854  0.79457780
   0.77744963  0.66626025  0.20542914
   0.88919795  0.58372203  0.70541299
   0.77744699  0.91629560  0.29459493
   0.88919564  0.83371819  0.79457808
   0.77747279  0.41628461  0.20541565
   0.44418578  0.91632054  0.20542446
   0.44407698  0.91626934  0.29462593
   0.22253650  0.58372262  0.70541292
   0.22253398  0.58371955  0.79457809
   0.11082337  0.91628098  0.29461268
   0.22253421  0.83371928  0.79457803
   0.11083363  0.91631586  0.20542018
   0.22253630  0.83372183  0.70541296
   0.11078339  0.66626719  0.29461049
   0.77748837  0.91632975  0.20542384
   0.44234447  0.16478027  0.29295992
   0.55586341  0.08371899  0.79457789
   0.44418373  0.16634582  0.20540042
   0.55586555  0.08372155  0.70541296
   0.44378430  0.41665841  0.29445182
   0.55586326  0.33371944  0.79457801
   0.44417647  0.41628837  0.20542235
   0.55586558  0.33372263  0.70541288
   0.22253660  0.33372237  0.70541292
   0.11078050  0.41631408  0.20541276
   0.44411629  0.66629547  0.29460038
   0.55586345  0.58371917  0.79457798
   0.44412640  0.66630237  0.20541986
   0.55586575  0.58372233  0.70541304
   0.22253417  0.33371937  0.79457806
   0.11199146  0.41701311  0.29430483
   0.55586277  0.83371925  0.79457813
   0.88919754  0.83372102  0.70541289
Direct configuration=     3
   0.84237051  0.19242557  0.39962622
   0.85015459  0.23560659  0.43788816
   0.90146380  0.29378228  0.37467678
   0.94533102  0.39873153  0.39666429
   0.91420610  0.36361559  0.43599990
   0.46229111  0.16243670  0.41992424
   0.56784716  0.36124230  0.40112604
   0.51824583  0.28259387  0.43356943
   0.54231596  0.29019503  0.36816071
   0.47723875  0.16709852  0.37957410
   0.70185032  0.27436407  0.40455326
   0.93288069  0.42321170  0.46012738
   0.52443745  0.30930055  0.46341261
   0.57033162  0.32420703  0.33875515
   0.61878445  0.45932536  0.40196004
   0.41783326  0.08140301  0.43758496
   0.81194953  0.18065029  0.46379463
   0.79687303  0.09823696  0.39144704
   0.90850165  0.28996389  0.34360213
   0.99261773  0.49051328  0.38562404
   0.44644938  0.09049594  0.36045492
   0.55607240  0.08407380  0.24994670
   0.55601436  0.33378398  0.25002310
   0.44386785  0.41594908  0.74998040
   0.55627025  0.58412887  0.25000993
   0.44386756  0.66594795  0.74998021
   0.55621029  0.83400649  0.25003681
   0.44386743  0.91594684  0.74998041
   0.88938299  0.33386929  0.25008341
   0.77722291  0.16593980  0.74998082
   0.77722375  0.41594152  0.74998076
   0.88954854  0.58413268  0.24999953
   0.77722334  0.66594041  0.74998063
   0.88952421  0.83412475  0.25005352
   0.77722241  0.91594021  0.74998063
   0.11052433  0.91594607  0.74998028
   0.88949004  0.08389045  0.24999275
   0.22277565  0.83419880  0.25003701
   0.44386681  0.16594690  0.74998061
   0.22275967  0.58398978  0.25001134
   0.11052558  0.41594736  0.74998000
   0.22264997  0.33394367  0.25003074
   0.22274990  0.08386799  0.24998500
   0.11052486  0.16594681  0.74998031
   0.11052568  0.66594685  0.74998015
   0.77585396  0.16463467  0.29391168
   0.88917539  0.08369315  0.79459636
   0.77747919  0.16635943  0.20540470
   0.88917722  0.08369576  0.70539386
   0.22251493  0.08369615  0.70539381
   0.11086418  0.16636537  0.20541406
   0.77913001  0.41728872  0.29421482
   0.88917514  0.33369266  0.79459629
   0.11081114  0.66629690  0.20541045
   0.55584435  0.83369599  0.70539383
   0.88917740  0.33369581  0.70539386
   0.22251303  0.08369370  0.79459656
   0.11083493  0.16630639  0.29465013
   0.77746485  0.66630952  0.29461820
   0.88917528  0.58369293  0.79459625
   0.77747144  0.66628727  0.20541023
   0.88917741  0.58369618  0.70539392
   0.77746897  0.91632027  0.29461347
   0.88917526  0.83369261  0.79459651
   0.77749305  0.41631002  0.20539764
   0.44420296  0.91634356  0.20540586
   0.44410139  0.91629576  0.29464241
   0.22251562  0.58369674  0.70539386
   0.22251326  0.58369387  0.79459652
   0.11084249  0.91630662  0.29463004
   0.22251347  0.83369362  0.79459646
   0.11085206  0.91633919  0.20540187
   0.22251543  0.83369600  0.70539390
   0.11080516  0.66629375  0.29462800
   0.77750760  0.91635215  0.20540528
   0.44248405  0.16490567  0.29308715
   0.55584295  0.08369335  0.79459633
   0.44420105  0.16636715  0.20538342
   0.55584495  0.08369574  0.70539390
   0.44382817  0.41665896  0.29447988
   0.55584281  0.33369377  0.79459645
   0.44419428  0.41631353  0.20540389
   0.55584498  0.33369675  0.70539381
   0.22251571  0.33369650  0.70539385
   0.11080246  0.41633753  0.20539494
   0.44413809  0.66632015  0.29461857
   0.55584299  0.58369352  0.79459641
   0.44414753  0.66632659  0.20540157
   0.55584513  0.58369646  0.70539396
   0.22251344  0.33369371  0.79459649
   0.11193293  0.41699009  0.29434266
   0.55584236  0.83369359  0.79459656
   0.88917703  0.83369525  0.70539383
Direct configuration=     4
   0.84081412  0.19132154  0.39989209
   0.84882621  0.23510319  0.43798222
   0.90084320  0.29343960  0.37424767
   0.94556318  0.40101638  0.39695653
   0.91313117  0.36366137  0.43619154
   0.46264088  0.16155912  0.42076072
   0.56963384  0.36355843  0.40183449
   0.51949817  0.28292881  0.43399241
   0.54324668  0.29012191  0.36773127
   0.47783608  0.16580548  0.37944196
   0.70204509  0.27439871  0.40490841
   0.93260524  0.42304912  0.46014710
   0.52464650  0.30932983  0.46341747
   0.57039767  0.32405683  0.33984494
   0.61849627  0.45852573  0.40186656
   0.41834491  0.08190614  0.43754166
   0.81180984  0.18077965  0.46373908
   0.79703116  0.09895320  0.39133941
   0.90846903  0.29054641  0.34433044
   0.99201867  0.48964824  0.38557851
   0.44723636  0.09147205  0.36092207
   0.55581744  0.08346900  0.24940522
   0.55643434  0.33436918  0.24978723
   0.44371991  0.41574457  0.74998260
   0.55657872  0.58451794  0.24996415
   0.44372041  0.66574278  0.74998242
   0.55640129  0.83419598  0.25004772
   0.44371969  0.91574123  0.74998263
   0.88979827  0.33392885  0.24994591
   0.77707613  0.16573102  0.74998307
   0.77707684  0.41573295  0.74998301
   0.89006418  0.58477194  0.24986396
   0.77707644  0.66573203  0.74998297
   0.88973072  0.83433176  0.25006608
   0.77707539  0.91573097  0.74998294
   0.11038079  0.91574062  0.74998350
   0.88982413  0.08372632  0.24980265
   0.22295246  0.83441741  0.25003728
   0.44371866  0.16574128  0.74998283
   0.22321051  0.58452083  0.24992312
   0.11038339  0.41574238  0.74998303
   0.22278246  0.33398730  0.24992524
   0.22140926  0.08347332  0.24958299
   0.11038185  0.16574156  0.74998346
   0.11038279  0.66574144  0.74998330
   0.77417327  0.16286517  0.29314787
   0.88925080  0.08379201  0.79439096
   0.77750964  0.16633332  0.20557975
   0.88925316  0.08379639  0.70559425
   0.22259191  0.08380261  0.70559572
   0.11081188  0.16633720  0.20564431
   0.78062240  0.41808494  0.29368374
   0.88925073  0.33379177  0.79439071
   0.11074576  0.66623833  0.20564823
   0.55592345  0.83380246  0.70559572
   0.88925334  0.33379692  0.70559428
   0.22258869  0.08379811  0.79438936
   0.11075603  0.16618334  0.29450912
   0.77736205  0.66621032  0.29442109
   0.88925125  0.58379218  0.79439081
   0.77738885  0.66622074  0.20564042
   0.88925400  0.58379770  0.70559419
   0.77737545  0.91620740  0.29442476
   0.88925034  0.83379145  0.79439110
   0.77743093  0.41614790  0.20562541
   0.44409136  0.91616084  0.20562796
   0.44392793  0.91618031  0.29447553
   0.22259352  0.58380416  0.70559555
   0.22258954  0.58379867  0.79438926
   0.11075209  0.91619375  0.29447153
   0.22258961  0.83379804  0.79438930
   0.11071437  0.91617140  0.20560794
   0.22259274  0.83380252  0.70559564
   0.11074224  0.66622108  0.29442837
   0.77742427  0.91622682  0.20562646
   0.44094330  0.16354432  0.29165564
   0.55592019  0.08379729  0.79438923
   0.44411146  0.16634545  0.20544510
   0.55592378  0.08380193  0.70559593
   0.44343395  0.41687676  0.29415913
   0.55592026  0.33379836  0.79438916
   0.44410915  0.41618101  0.20564582
   0.55592428  0.33380389  0.70559602
   0.22259365  0.33380373  0.70559570
   0.11061966  0.41620456  0.20561244
   0.44404836  0.66622600  0.29440806
   0.55592060  0.58379827  0.79438931
   0.44406194  0.66623767  0.20562371
   0.55592475  0.58380386  0.70559590
   0.22258963  0.33379867  0.79438920
   0.11294304  0.41753586  0.29390840
   0.55591969  0.83379781  0.79438949
   0.88925259  0.83379578  0.70559418
Direct configuration=     5
   0.84186296  0.19206554  0.39971292
   0.84972139  0.23544243  0.43791884
   0.90126142  0.29367053  0.37453685
   0.94540673  0.39947663  0.39675960
   0.91385556  0.36363052  0.43606240
   0.46240518  0.16215051  0.42019703
   0.56842981  0.36199760  0.40135707
   0.51865423  0.28270310  0.43370737
   0.54261948  0.29017118  0.36802067
   0.47743354  0.16667685  0.37953101
   0.70191384  0.27437537  0.40466908
   0.93279086  0.42315868  0.46013381
   0.52450562  0.30931010  0.46341419
   0.57035316  0.32415805  0.33911054
   0.61869047  0.45906460  0.40192955
   0.41800011  0.08156708  0.43757084
   0.81190398  0.18069248  0.46377652
   0.79692460  0.09847053  0.39141194
   0.90849101  0.29015385  0.34383964
   0.99242237  0.49023118  0.38560919
   0.44670602  0.09081426  0.36060726
   0.55598926  0.08387657  0.24977012
   0.55615131  0.33397482  0.24994618
   0.44381960  0.41588239  0.74998112
   0.55637085  0.58425575  0.24999500
   0.44381957  0.66588104  0.74998093
   0.55627258  0.83406828  0.25004037
   0.44381925  0.91587979  0.74998113
   0.88951841  0.33388871  0.25003857
   0.77717504  0.16587172  0.74998156
   0.77717584  0.41587350  0.74998150
   0.88971669  0.58434115  0.24995532
   0.77717544  0.66587245  0.74998139
   0.88959155  0.83419226  0.25005761
   0.77717447  0.91587198  0.74998138
   0.11047752  0.91587907  0.74998133
   0.88959899  0.08383693  0.24993076
   0.22283331  0.83427009  0.25003710
   0.44381850  0.16587985  0.74998134
   0.22290669  0.58416296  0.24998257
   0.11047921  0.41588051  0.74998099
   0.22269318  0.33395790  0.24999634
   0.22231271  0.08373929  0.24985390
   0.11047822  0.16587988  0.74998134
   0.11047908  0.66587986  0.74998118
   0.77530587  0.16405762  0.29366260
   0.88919998  0.08372539  0.79452938
   0.77748912  0.16635092  0.20546178
   0.88920198  0.08372857  0.70545921
   0.22254004  0.08373087  0.70545965
   0.11084712  0.16635619  0.20548915
   0.77961669  0.41754837  0.29404163
   0.88919979  0.33372498  0.79452925
   0.11078982  0.66627780  0.20548799
   0.55587014  0.83373071  0.70545967
   0.88920217  0.33372878  0.70545922
   0.22253770  0.08372775  0.79452899
   0.11080920  0.16626626  0.29460415
   0.77743132  0.66627717  0.29455392
   0.88920005  0.58372529  0.79452925
   0.77744451  0.66626557  0.20548530
   0.88920239  0.58372929  0.70545923
   0.77743847  0.91628346  0.29455193
   0.88919974  0.83372484  0.79452952
   0.77747280  0.41625715  0.20547192
   0.44416657  0.91628397  0.20547829
   0.44404483  0.91625811  0.29458799
   0.22254102  0.58373177  0.70545963
   0.22253814  0.58372805  0.79452893
   0.11081301  0.91626981  0.29457835
   0.22253830  0.83372767  0.79452890
   0.11080716  0.91628447  0.20546907
   0.22254064  0.83373074  0.70545969
   0.11078464  0.66627005  0.29456290
   0.77748043  0.91631128  0.20547741
   0.44198160  0.16446173  0.29262032
   0.55586814  0.08372724  0.79452880
   0.44417184  0.16636007  0.20540353
   0.55587066  0.08373037  0.70545978
   0.44369962  0.41672999  0.29437528
   0.55586807  0.33372787  0.79452885
   0.44416652  0.41627031  0.20548278
   0.55587084  0.33373169  0.70545975
   0.22254113  0.33373147  0.70545968
   0.11074285  0.41629417  0.20546586
   0.44410883  0.66628945  0.29454992
   0.55586830  0.58372768  0.79452888
   0.44411962  0.66629760  0.20547401
   0.55587110  0.58373149  0.70545982
   0.22253829  0.33372793  0.79452889
   0.11226233  0.41716807  0.29420104
   0.55586758  0.83372758  0.79452903
   0.88920167  0.83372803  0.70545916
Direct configuration=     6
   0.84126613  0.19194960  0.39986391
   0.84893202  0.23524491  0.43796547
   0.90056555  0.29360409  0.37477132
   0.94498644  0.39965057  0.39697289
   0.91315638  0.36365937  0.43614750
   0.46317005  0.16244509  0.42042853
   0.56869357  0.36181253  0.40165363
   0.51951645  0.28287056  0.43394876
   0.54296248  0.28971485  0.36830343
   0.47822451  0.16693577  0.37968903
   0.70207009  0.27445736  0.40488253
   0.93255749  0.42316277  0.46023605
   0.52475598  0.30946719  0.46359262
   0.57082341  0.32446067  0.33941619
   0.61903987  0.45947496  0.40190993
   0.41803180  0.08120944  0.43775567
   0.81164946  0.18065283  0.46380348
   0.79682584  0.09867480  0.39131498
   0.90848854  0.29050023  0.34388983
   0.99231716  0.49038835  0.38551921
   0.44706509  0.09083915  0.36077757
   0.55534921  0.08272258  0.24924820
   0.55631132  0.33430559  0.24971182
   0.44403434  0.41613417  0.74998759
   0.55621860  0.58414935  0.24995411
   0.44403512  0.66613275  0.74998736
   0.55604775  0.83383313  0.25004359
   0.44403441  0.91613138  0.74998747
   0.88961341  0.33358117  0.24986971
   0.77737998  0.16612645  0.74998756
   0.77738045  0.41612774  0.74998751
   0.88986451  0.58450587  0.24982871
   0.77738010  0.66612723  0.74998757
   0.88936046  0.83386961  0.25005345
   0.77737876  0.91612625  0.74998742
   0.11070356  0.91613416  0.74998842
   0.88955726  0.08328558  0.24976046
   0.22267387  0.83395889  0.25003235
   0.44403356  0.16613165  0.74998756
   0.22301884  0.58429229  0.24989375
   0.11070574  0.41613542  0.74998805
   0.22257463  0.33360654  0.24988902
   0.22053108  0.08295073  0.24945978
   0.11070466  0.16613469  0.74998835
   0.11070519  0.66613451  0.74998827
   0.77469993  0.16344719  0.29345652
   0.88909571  0.08359512  0.79449109
   0.77778958  0.16651200  0.20541355
   0.88909771  0.08359889  0.70548855
   0.22243356  0.08360690  0.70549018
   0.11089730  0.16654808  0.20549052
   0.78033727  0.41798644  0.29389463
   0.88909602  0.33359528  0.79449081
   0.11095187  0.66649434  0.20553301
   0.55576870  0.83360747  0.70549001
   0.88909798  0.33359962  0.70548857
   0.22243154  0.08360325  0.79448923
   0.11088230  0.16634426  0.29458794
   0.77753310  0.66640417  0.29451648
   0.88909639  0.58359552  0.79449100
   0.77755775  0.66647336  0.20552679
   0.88909864  0.58360028  0.70548842
   0.77755783  0.91639277  0.29452547
   0.88909537  0.83359489  0.79449117
   0.77766652  0.41635632  0.20550642
   0.44412475  0.91616731  0.20548907
   0.44409181  0.91639494  0.29455641
   0.22243519  0.58360846  0.70548991
   0.22243250  0.58360381  0.79448913
   0.11088559  0.91640387  0.29456477
   0.22243234  0.83360330  0.79448921
   0.11074152  0.91622201  0.20547690
   0.22243420  0.83360699  0.70549000
   0.11092379  0.66644715  0.29451501
   0.77754593  0.91633126  0.20551351
   0.44160668  0.16414124  0.29223999
   0.55576580  0.08360315  0.79448911
   0.44416762  0.16654251  0.20524273
   0.55576869  0.08360701  0.70549025
   0.44370139  0.41695539  0.29428748
   0.55576589  0.33360416  0.79448895
   0.44424047  0.41639843  0.20553093
   0.55576917  0.33360871  0.70549042
   0.22243520  0.33360816  0.70549010
   0.11080067  0.41639458  0.20549840
   0.44422549  0.66642685  0.29450077
   0.55576631  0.58360432  0.79448917
   0.44425916  0.66645293  0.20551488
   0.55576986  0.58360897  0.70549013
   0.22243240  0.33360408  0.79448905
   0.11280675  0.41753270  0.29408064
   0.55576558  0.83360358  0.79448929
   0.88909731  0.83359861  0.70548845
Direct configuration=     7
   0.84109037  0.19191546  0.39990838
   0.84869956  0.23518675  0.43797920
   0.90036063  0.29358452  0.37484036
   0.94486268  0.39970179  0.39703571
   0.91295048  0.36366786  0.43617256
   0.46339530  0.16253184  0.42049670
   0.56877124  0.36175803  0.40174096
   0.51977036  0.28291988  0.43401985
   0.54306348  0.28958046  0.36838671
   0.47845744  0.16701202  0.37973556
   0.70211610  0.27448151  0.40494539
   0.93248876  0.42316397  0.46026615
   0.52482971  0.30951345  0.46364516
   0.57096188  0.32454979  0.33950620
   0.61914276  0.45959581  0.40190415
   0.41804113  0.08110412  0.43781010
   0.81157451  0.18064116  0.46381142
   0.79679675  0.09873495  0.39128642
   0.90848781  0.29060224  0.34390462
   0.99228618  0.49043464  0.38549271
   0.44717084  0.09084648  0.36082772
   0.55516072  0.08238275  0.24909450
   0.55635844  0.33440299  0.24964280
   0.44409757  0.41620832  0.74998950
   0.55617377  0.58411802  0.24994207
   0.44409859  0.66620687  0.74998926
   0.55598155  0.83376388  0.25004454
   0.44409777  0.91620547  0.74998933
   0.88964138  0.33349061  0.24981998
   0.77744033  0.16620147  0.74998932
   0.77744070  0.41620260  0.74998928
   0.88990804  0.58455437  0.24979142
   0.77744037  0.66620226  0.74998939
   0.88929240  0.83377459  0.25005222
   0.77743892  0.91620113  0.74998920
   0.11077012  0.91620927  0.74999050
   0.88954496  0.08312322  0.24971031
   0.22262692  0.83386725  0.25003095
   0.44409689  0.16620580  0.74998940
   0.22305186  0.58433037  0.24986760
   0.11077245  0.41621048  0.74999013
   0.22253971  0.33350307  0.24985742
   0.22000641  0.08271851  0.24934371
   0.11077134  0.16620973  0.74999042
   0.11077178  0.66620950  0.74999036
   0.77452149  0.16326743  0.29339584
   0.88906500  0.08355676  0.79447981
   0.77787807  0.16655943  0.20539935
   0.88906700  0.08356070  0.70549719
   0.22240220  0.08357039  0.70549917
   0.11091208  0.16660458  0.20549092
   0.78054947  0.41811544  0.29385134
   0.88906547  0.33355709  0.79447949
   0.11099960  0.66655811  0.20554626
   0.55573882  0.83357118  0.70549895
   0.88906730  0.33356159  0.70549721
   0.22240028  0.08356658  0.79447752
   0.11090382  0.16636723  0.29458317
   0.77756308  0.66644157  0.29450546
   0.88906587  0.58355731  0.79447973
   0.77759110  0.66653455  0.20553901
   0.88906809  0.58356229  0.70549702
   0.77759298  0.91642496  0.29451767
   0.88906463  0.83355662  0.79447988
   0.77772357  0.41638553  0.20551657
   0.44411244  0.91613296  0.20549224
   0.44410565  0.91643523  0.29454711
   0.22240402  0.58357215  0.70549883
   0.22240140  0.58356723  0.79447741
   0.11090696  0.91644335  0.29456077
   0.22240113  0.83356667  0.79447752
   0.11072219  0.91620362  0.20547920
   0.22240285  0.83357055  0.70549893
   0.11096477  0.66649930  0.29450090
   0.77756522  0.91633714  0.20552414
   0.44149628  0.16404687  0.29212798
   0.55573567  0.08356660  0.79447742
   0.44416638  0.16659623  0.20519538
   0.55573867  0.08357068  0.70549923
   0.44370192  0.41702177  0.29426162
   0.55573580  0.33356773  0.79447719
   0.44426225  0.41643616  0.20554511
   0.55573923  0.33357249  0.70549945
   0.22240400  0.33357185  0.70549906
   0.11081770  0.41642415  0.20550799
   0.44425985  0.66646732  0.29448630
   0.55573627  0.58356799  0.79447748
   0.44430025  0.66649868  0.20552691
   0.55574004  0.58357289  0.70549906
   0.22240122  0.33356760  0.79447732
   0.11296707  0.41764007  0.29404519
   0.55573554  0.83356706  0.79447759
   0.88906657  0.83356049  0.70549707
Direct configuration=     8
   0.84074072  0.19196518  0.39995159
   0.84801539  0.23528028  0.43813681
   0.89978219  0.29378486  0.37492479
   0.94441242  0.39967953  0.39708760
   0.91231294  0.36364168  0.43639517
   0.46401776  0.16224805  0.42068413
   0.56933295  0.36204085  0.40185851
   0.52050585  0.28306022  0.43436168
   0.54398568  0.29016567  0.36871390
   0.47873203  0.16660084  0.38012385
   0.70214969  0.27455093  0.40518800
   0.93213543  0.42320736  0.46044575
   0.52522223  0.30977717  0.46398095
   0.57157077  0.32486094  0.33978038
   0.61930100  0.45953453  0.40192922
   0.41832482  0.08099491  0.43801100
   0.81108639  0.18044552  0.46392424
   0.79652727  0.09879136  0.39119372
   0.90833377  0.29096452  0.34407453
   0.99203572  0.49050682  0.38545617
   0.44762432  0.09081078  0.36101071
   0.55472377  0.08173698  0.24882376
   0.55650734  0.33460967  0.24954626
   0.44418872  0.41632861  0.74998474
   0.55608559  0.58408827  0.24992906
   0.44418970  0.66632718  0.74998453
   0.55587397  0.83366958  0.25006393
   0.44418855  0.91632540  0.74998464
   0.88965902  0.33327702  0.24977564
   0.77752796  0.16631547  0.74998446
   0.77752855  0.41631680  0.74998440
   0.89012290  0.58472206  0.24973579
   0.77752810  0.66631632  0.74998453
   0.88908092  0.83352564  0.25007160
   0.77752559  0.91631441  0.74998465
   0.11085483  0.91632028  0.74998563
   0.88950349  0.08281680  0.24965158
   0.22259541  0.83378236  0.25005267
   0.44418766  0.16632583  0.74998473
   0.22312717  0.58445054  0.24982360
   0.11085742  0.41632178  0.74998515
   0.22255079  0.33332204  0.24983245
   0.21918307  0.08231573  0.24917082
   0.11085624  0.16632082  0.74998553
   0.11085673  0.66632061  0.74998543
   0.77388373  0.16271056  0.29319167
   0.88902343  0.08349613  0.79449592
   0.77829596  0.16658004  0.20515739
   0.88902746  0.08350175  0.70548244
   0.22236214  0.08351475  0.70548429
   0.11069417  0.16679103  0.20525802
   0.78096722  0.41829975  0.29372895
   0.88902445  0.33349695  0.79449554
   0.11122091  0.66681651  0.20545971
   0.55569941  0.83351538  0.70548383
   0.88902795  0.33350310  0.70548246
   0.22236048  0.08351014  0.79449404
   0.11084462  0.16628626  0.29451579
   0.77762818  0.66649270  0.29449575
   0.88902464  0.58349683  0.79449592
   0.77763348  0.66675169  0.20546891
   0.88902889  0.58350389  0.70548221
   0.77771230  0.91647920  0.29451185
   0.88902301  0.83349639  0.79449600
   0.77811921  0.41657311  0.20540304
   0.44373081  0.91549527  0.20529676
   0.44415710  0.91659361  0.29449719
   0.22236462  0.58351708  0.70548382
   0.22236197  0.58351086  0.79449392
   0.11090723  0.91658639  0.29452650
   0.22236130  0.83351027  0.79449407
   0.11030107  0.91574479  0.20533423
   0.22236270  0.83351514  0.70548399
   0.11106588  0.66663161  0.29447938
   0.77749748  0.91611911  0.20545513
   0.44115376  0.16372700  0.29178618
   0.55569482  0.08350977  0.79449352
   0.44388074  0.16671493  0.20487597
   0.55569890  0.08351489  0.70548422
   0.44377442  0.41708778  0.29419463
   0.55569495  0.33351103  0.79449319
   0.44430048  0.41665183  0.20544283
   0.55569951  0.33351699  0.70548458
   0.22236439  0.33351676  0.70548414
   0.11103240  0.41657089  0.20541719
   0.44435365  0.66657368  0.29447834
   0.55569570  0.58351172  0.79449369
   0.44450778  0.66667959  0.20546321
   0.55570090  0.58351776  0.70548398
   0.22236133  0.33351153  0.79449382
   0.11327202  0.41780281  0.29395313
   0.55569490  0.83351018  0.79449371
   0.88902696  0.83350183  0.70548232
Direct configuration=     9
   0.84048566  0.19200144  0.39998311
   0.84751633  0.23534850  0.43825178
   0.89936025  0.29393099  0.37498637
   0.94408398  0.39966329  0.39712545
   0.91184788  0.36362259  0.43655755
   0.46447182  0.16204103  0.42082084
   0.56974269  0.36224715  0.40194425
   0.52104236  0.28316260  0.43461104
   0.54465838  0.29059255  0.36895257
   0.47893233  0.16630091  0.38040709
   0.70217418  0.27460158  0.40536496
   0.93187769  0.42323901  0.46057675
   0.52550855  0.30996955  0.46422588
   0.57201492  0.32508792  0.33998039
   0.61941644  0.45948983  0.40194751
   0.41853176  0.08091525  0.43815755
   0.81073032  0.18030281  0.46400654
   0.79633070  0.09883250  0.39112610
   0.90822141  0.29122879  0.34419847
   0.99185303  0.49055947  0.38542952
   0.44795512  0.09078474  0.36114419
   0.55440504  0.08126593  0.24862627
   0.55661596  0.33476044  0.24947583
   0.44425522  0.41641636  0.74998126
   0.55602127  0.58406657  0.24991956
   0.44425617  0.66641494  0.74998109
   0.55579549  0.83360078  0.25007807
   0.44425477  0.91641288  0.74998121
   0.88967189  0.33312122  0.24974330
   0.77759189  0.16639863  0.74998091
   0.77759263  0.41640010  0.74998084
   0.89027962  0.58484438  0.24969521
   0.77759210  0.66639952  0.74998099