 171 171   0   0
  0.4145774E+02  0.1590000E-08  0.1590000E-08  0.3238000E-08  0.5000000E-15
  1.000000000000000E-004
  CAR 
 basalPlane                              
      2.31435927    -19.04061799  301      0.25561535      1.00000000
    -19.041  0.0000E+00  0.0000E+00
    -18.969  0.0000E+00  0.0000E+00
    -18.898  0.0000E+00  0.0000E+00
    -18.827  0.0000E+00  0.0000E+00
    -18.756  0.0000E+00  0.0000E+00
    -18.685  0.0000E+00  0.0000E+00
    -18.614  0.7798E-18  0.5551E-19
    -18.542  0.1812E-14  0.1290E-15
    -18.471  0.1598E-11  0.1139E-12
    -18.400  0.5231E-09  0.3735E-10
    -18.329  0.6403E-07  0.4595E-08
    -18.258  0.2957E-05  0.2151E-06
    -18.186  0.5207E-04  0.3921E-05
    -18.115  0.3542E-03  0.2913E-04
    -18.044  0.9412E-03  0.9613E-04
    -17.973  0.9844E-03  0.1662E-03
    -17.902  0.4072E-03  0.1952E-03
    -17.831  0.1014E-03  0.2024E-03
    -17.759  0.2867E-03  0.2228E-03
    -17.688  0.8635E-03  0.2843E-03
    -17.617  0.1037E-02  0.3581E-03
    -17.546  0.4908E-03  0.3930E-03
    -17.475  0.9096E-04  0.3995E-03
    -17.403  0.6530E-05  0.4000E-03
    -17.332  0.1793E-06  0.4000E-03
    -17.261  0.1863E-08  0.4000E-03
    -17.190  0.7247E-11  0.4000E-03
    -17.119  0.1048E-13  0.4000E-03
    -17.047  0.5615E-17  0.4000E-03
    -16.976  0.0000E+00  0.4000E-03
    -16.905  0.0000E+00  0.4000E-03
    -16.834  0.0000E+00  0.4000E-03
    -16.763  0.0000E+00  0.4000E-03
    -16.692  0.0000E+00  0.4000E-03
    -16.620  0.0000E+00  0.4000E-03
    -16.549  0.0000E+00  0.4000E-03
    -16.478  0.0000E+00  0.4000E-03
    -16.407  0.0000E+00  0.4000E-03
    -16.336  0.0000E+00  0.4000E-03
    -16.264  0.0000E+00  0.4000E-03
    -16.193  0.7642E-17  0.4000E-03
    -16.122  0.1476E-13  0.4000E-03
    -16.051  0.1062E-10  0.4000E-03
    -15.980  0.2849E-08  0.4000E-03
    -15.909  0.2869E-06  0.4000E-03
    -15.837  0.1096E-04  0.4008E-03
    -15.766  0.1604E-03  0.4122E-03
    -15.695  0.9115E-03  0.4771E-03
    -15.624  0.2033E-02  0.6218E-03
    -15.553  0.1791E-02  0.7493E-03
    -15.481  0.6225E-03  0.7936E-03
    -15.410  0.8491E-04  0.7997E-03
    -15.339  0.1761E-04  0.8009E-03
    -15.268  0.3024E-03  0.8225E-03
    -15.197  0.2687E-02  0.1014E-02
    -15.126  0.9342E-02  0.1679E-02
    -15.054  0.1281E-01  0.2591E-02
    -14.983  0.6948E-02  0.3085E-02
    -14.912  0.1483E-02  0.3191E-02
    -14.841  0.1232E-03  0.3200E-02
    -14.770  0.3940E-05  0.3200E-02
    -14.698  0.1977E-06  0.3200E-02
    -14.627  0.6647E-05  0.3200E-02
    -14.556  0.1140E-03  0.3209E-02
    -14.485  0.7997E-03  0.3266E-02
    -14.414  0.2820E-02  0.3466E-02
    -14.343  0.7390E-02  0.3992E-02
    -14.271  0.1466E-01  0.5035E-02
    -14.200  0.1903E-01  0.6390E-02
    -14.129  0.1986E-01  0.7804E-02
    -14.058  0.1909E-01  0.9162E-02
    -13.987  0.1501E-01  0.1023E-01
    -13.915  0.7296E-02  0.1075E-01
    -13.844  0.5991E-02  0.1118E-01
    -13.773  0.1570E-01  0.1229E-01
    -13.702  0.2858E-01  0.1433E-01
    -13.631  0.3142E-01  0.1657E-01
    -13.560  0.2161E-01  0.1810E-01
    -13.488  0.1782E-01  0.1937E-01
    -13.417  0.1647E-01  0.2054E-01
    -13.346  0.7637E-02  0.2109E-01
    -13.275  0.1457E-02  0.2119E-01
    -13.204  0.1109E-03  0.2120E-01
    -13.132  0.3318E-05  0.2120E-01
    -13.061  0.3859E-07  0.2120E-01
    -12.990  0.1731E-09  0.2120E-01
    -12.919  0.2977E-12  0.2120E-01
    -12.848  0.1962E-15  0.2120E-01
    -12.776  0.0000E+00  0.2120E-01
    -12.705  0.0000E+00  0.2120E-01
    -12.634  0.0000E+00  0.2120E-01
    -12.563  0.0000E+00  0.2120E-01
    -12.492  0.0000E+00  0.2120E-01
    -12.421  0.0000E+00  0.2120E-01
    -12.349  0.0000E+00  0.2120E-01
    -12.278  0.0000E+00  0.2120E-01
    -12.207  0.0000E+00  0.2120E-01
    -12.136  0.0000E+00  0.2120E-01
    -12.065  0.0000E+00  0.2120E-01
    -11.993  0.0000E+00  0.2120E-01
    -11.922  0.0000E+00  0.2120E-01
    -11.851  0.0000E+00  0.2120E-01
    -11.780  0.0000E+00  0.2120E-01
    -11.709  0.0000E+00  0.2120E-01
    -11.638  0.0000E+00  0.2120E-01
    -11.566  0.0000E+00  0.2120E-01
    -11.495  0.0000E+00  0.2120E-01
    -11.424  0.0000E+00  0.2120E-01
    -11.353  0.0000E+00  0.2120E-01
    -11.282  0.0000E+00  0.2120E-01
    -11.210  0.0000E+00  0.2120E-01
    -11.139  0.0000E+00  0.2120E-01
    -11.068  0.0000E+00  0.2120E-01
    -10.997  0.0000E+00  0.2120E-01
    -10.926  0.0000E+00  0.2120E-01
    -10.855  0.0000E+00  0.2120E-01
    -10.783  0.0000E+00  0.2120E-01
    -10.712  0.0000E+00  0.2120E-01
    -10.641  0.0000E+00  0.2120E-01
    -10.570  0.0000E+00  0.2120E-01
    -10.499  0.0000E+00  0.2120E-01
    -10.427  0.0000E+00  0.2120E-01
    -10.356  0.0000E+00  0.2120E-01
    -10.285  0.0000E+00  0.2120E-01
    -10.214  0.0000E+00  0.2120E-01
    -10.143  0.0000E+00  0.2120E-01
    -10.072  0.0000E+00  0.2120E-01
    -10.000  0.0000E+00  0.2120E-01
     -9.929  0.1716E-17  0.2120E-01
     -9.858  0.3662E-14  0.2120E-01
     -9.787  0.2942E-11  0.2120E-01
     -9.716  0.8817E-09  0.2120E-01
     -9.644  0.9963E-07  0.2120E-01
     -9.573  0.4318E-05  0.2120E-01
     -9.502  0.7368E-04  0.2121E-01
     -9.431  0.5138E-03  0.2124E-01
     -9.360  0.1545E-02  0.2135E-01
     -9.289  0.2255E-02  0.2151E-01
     -9.217  0.2382E-02  0.2168E-01
     -9.146  0.2722E-02  0.2188E-01
     -9.075  0.2442E-02  0.2205E-01
     -9.004  0.1481E-02  0.2216E-01
     -8.933  0.5976E-03  0.2220E-01
     -8.861  0.4842E-03  0.2223E-01
     -8.790  0.9809E-03  0.2230E-01
     -8.719  0.9524E-03  0.2237E-01
     -8.648  0.3663E-03  0.2240E-01
     -8.577  0.5506E-04  0.2240E-01
     -8.505  0.3198E-05  0.2240E-01
     -8.434  0.7085E-07  0.2240E-01
     -8.363  0.5923E-09  0.2240E-01
     -8.292  0.1851E-11  0.2240E-01
     -8.221  0.2149E-14  0.2240E-01
     -8.150  0.9358E-18  0.2240E-01
     -8.078  0.0000E+00  0.2240E-01
     -8.007  0.0000E+00  0.2240E-01
     -7.936  0.0000E+00  0.2240E-01
     -7.865  0.0000E+00  0.2240E-01
     -7.794  0.0000E+00  0.2240E-01
     -7.722  0.2963E-17  0.2240E-01
     -7.651  0.6201E-14  0.2240E-01
     -7.580  0.5058E-11  0.2240E-01
     -7.509  0.1556E-08  0.2240E-01
     -7.438  0.1846E-06  0.2240E-01
     -7.367  0.8785E-05  0.2240E-01
     -7.295  0.1783E-03  0.2241E-01
     -7.224  0.1648E-02  0.2253E-01
     -7.153  0.7115E-02  0.2304E-01
     -7.082  0.1393E-01  0.2403E-01
     -7.011  0.1177E-01  0.2487E-01
     -6.939  0.4336E-02  0.2517E-01
     -6.868  0.3290E-02  0.2541E-01
     -6.797  0.1286E-01  0.2632E-01
     -6.726  0.2778E-01  0.2830E-01
     -6.655  0.3454E-01  0.3076E-01
     -6.584  0.3179E-01  0.3302E-01
     -6.512  0.1883E-01  0.3436E-01
     -6.441  0.5419E-02  0.3475E-01
     -6.370  0.6691E-03  0.3480E-01
     -6.299  0.1555E-03  0.3481E-01
     -6.228  0.1476E-02  0.3491E-01
     -6.156  0.7025E-02  0.3541E-01
     -6.085  0.1344E-01  0.3637E-01
     -6.014  0.1053E-01  0.3712E-01
     -5.943  0.3708E-02  0.3738E-01
     -5.872  0.2569E-02  0.3757E-01
     -5.801  0.7999E-02  0.3814E-01
     -5.729  0.1445E-01  0.3916E-01
     -5.658  0.1315E-01  0.4010E-01
     -5.587  0.1297E-01  0.4102E-01
     -5.516  0.2211E-01  0.4260E-01
     -5.445  0.2430E-01  0.4433E-01
     -5.373  0.1418E-01  0.4534E-01
     -5.302  0.1091E-01  0.4611E-01
     -5.231  0.1572E-01  0.4723E-01
     -5.160  0.1817E-01  0.4853E-01
     -5.089  0.1839E-01  0.4984E-01
     -5.018  0.1247E-01  0.5072E-01
     -4.946  0.8187E-02  0.5131E-01
     -4.875  0.1264E-01  0.5221E-01
     -4.804  0.1607E-01  0.5335E-01
     -4.733  0.1905E-01  0.5471E-01
     -4.662  0.2874E-01  0.5675E-01
     -4.590  0.3135E-01  0.5898E-01
     -4.519  0.1906E-01  0.6034E-01
     -4.448  0.5896E-02  0.6076E-01
     -4.377  0.2886E-02  0.6096E-01
     -4.306  0.8621E-02  0.6158E-01
     -4.235  0.1443E-01  0.6261E-01
     -4.163  0.1175E-01  0.6344E-01
     -4.092  0.5813E-02  0.6386E-01
     -4.021  0.1774E-02  0.6398E-01
     -3.950  0.7581E-03  0.6404E-01
     -3.879  0.4707E-02  0.6437E-01
     -3.807  0.1738E-01  0.6561E-01
     -3.736  0.2629E-01  0.6748E-01
     -3.665  0.1966E-01  0.6888E-01
     -3.594  0.1691E-01  0.7008E-01
     -3.523  0.2047E-01  0.7154E-01
     -3.451  0.1956E-01  0.7293E-01
     -3.380  0.1684E-01  0.7413E-01
     -3.309  0.1681E-01  0.7533E-01
     -3.238  0.1129E-01  0.7613E-01
     -3.167  0.3769E-02  0.7640E-01
     -3.096  0.2517E-02  0.7658E-01
     -3.024  0.4244E-02  0.7688E-01
     -2.953  0.3660E-02  0.7714E-01
     -2.882  0.4072E-02  0.7743E-01
     -2.811  0.1161E-01  0.7826E-01
     -2.740  0.2253E-01  0.7986E-01
     -2.668  0.2957E-01  0.8197E-01
     -2.597  0.2555E-01  0.8379E-01
     -2.526  0.1339E-01  0.8474E-01
     -2.455  0.1116E-01  0.8554E-01
     -2.384  0.1920E-01  0.8690E-01
     -2.313  0.2132E-01  0.8842E-01
     -2.241  0.1278E-01  0.8933E-01
     -2.170  0.4985E-02  0.8968E-01
     -2.099  0.6355E-02  0.9014E-01
     -2.028  0.1283E-01  0.9105E-01
     -1.957  0.1323E-01  0.9199E-01
     -1.885  0.9107E-02  0.9264E-01
     -1.814  0.1170E-01  0.9347E-01
     -1.743  0.1229E-01  0.9435E-01
     -1.672  0.5912E-02  0.9477E-01
     -1.601  0.2585E-02  0.9495E-01
     -1.530  0.2175E-02  0.9511E-01
     -1.458  0.1072E-02  0.9518E-01
     -1.387  0.2130E-03  0.9520E-01
     -1.316  0.1645E-04  0.9520E-01
     -1.245  0.4870E-06  0.9520E-01
     -1.174  0.5465E-08  0.9520E-01
     -1.102  0.2302E-10  0.9520E-01
     -1.031  0.3612E-13  0.9520E-01
     -0.960  0.2121E-16  0.9520E-01
     -0.889  0.0000E+00  0.9520E-01
     -0.818  0.0000E+00  0.9520E-01
     -0.747  0.0000E+00  0.9520E-01
     -0.675  0.0000E+00  0.9520E-01
     -0.604  0.0000E+00  0.9520E-01
     -0.533  0.8984E-16  0.9520E-01
     -0.462  0.1181E-12  0.9520E-01
     -0.391  0.5752E-10  0.9520E-01
     -0.319  0.1044E-07  0.9520E-01
     -0.248  0.7125E-06  0.9520E-01
     -0.177  0.1845E-04  0.9520E-01
     -0.106  0.1837E-03  0.9521E-01
     -0.035  0.7113E-03  0.9527E-01
      0.036  0.1087E-02  0.9534E-01
      0.108  0.7458E-03  0.9540E-01
      0.179  0.8001E-03  0.9545E-01
      0.250  0.1871E-02  0.9559E-01
      0.321  0.3653E-02  0.9585E-01
      0.392  0.1103E-01  0.9663E-01
      0.464  0.2454E-01  0.9838E-01
      0.535  0.2705E-01  0.1003E+00
      0.606  0.2562E-01  0.1021E+00
      0.677  0.2675E-01  0.1040E+00
      0.748  0.1535E-01  0.1051E+00
      0.820  0.5454E-02  0.1055E+00
      0.891  0.1282E-01  0.1064E+00
      0.962  0.3393E-01  0.1088E+00
      1.033  0.3937E-01  0.1116E+00
      1.104  0.2620E-01  0.1135E+00
      1.175  0.1702E-01  0.1147E+00
      1.247  0.1234E-01  0.1156E+00
      1.318  0.1055E-01  0.1163E+00
      1.389  0.6746E-02  0.1168E+00
      1.460  0.2114E-02  0.1170E+00
      1.531  0.2802E-03  0.1170E+00
      1.603  0.1480E-04  0.1170E+00
      1.674  0.3017E-06  0.1170E+00
      1.745  0.2332E-08  0.1170E+00
      1.816  0.6752E-11  0.1170E+00
      1.887  0.7269E-14  0.1170E+00
      1.958  0.3431E-17  0.1170E+00
      2.030  0.0000E+00  0.1170E+00
      2.101  0.0000E+00  0.1170E+00
      2.172  0.0000E+00  0.1170E+00
      2.243  0.0000E+00  0.1170E+00
      2.314  0.0000E+00  0.1170E+00
