       N       E                     dE             d eps       ncg     rms          rms(c)
DAV:   1     0.777292351851E+04    0.77729E+04   -0.36219E+05  1170   0.112E+03
DAV:   2    -0.238208716571E+03   -0.80111E+04   -0.77593E+04  1638   0.269E+02
DAV:   3    -0.126226807181E+04   -0.10241E+04   -0.10103E+04  1365   0.104E+02
DAV:   4    -0.132141194013E+04   -0.59144E+02   -0.58829E+02  1807   0.299E+01
DAV:   5    -0.132320176277E+04   -0.17898E+01   -0.17803E+01  1807   0.469E+00    0.169E+02
DAV:   6    -0.127697227080E+04    0.46229E+02   -0.93234E+02  1586   0.270E+01    0.920E+01
DAV:   7    -0.129702906468E+04   -0.20057E+02   -0.12046E+03  1755   0.445E+01    0.549E+01
DAV:   8    -0.123317828114E+04    0.63851E+02   -0.68286E+01  1456   0.752E+00    0.317E+01
DAV:   9    -0.124163235685E+04   -0.84541E+01   -0.20738E+02  1716   0.897E+00    0.500E+01
DAV:  10    -0.122354939265E+04    0.18083E+02   -0.17731E+02  1781   0.176E+01    0.229E+01
DAV:  11    -0.122465004678E+04   -0.11007E+01   -0.23139E+01  1560   0.211E+00    0.173E+01
DAV:  12    -0.122463681912E+04    0.13228E-01   -0.25901E+00  1768   0.840E-01    0.198E+01
DAV:  13    -0.122346779671E+04    0.11690E+01   -0.13669E+01  1729   0.180E+00    0.175E+01
DAV:  14    -0.122339747900E+04    0.70318E-01   -0.74888E-01  1586   0.511E-01    0.163E+01
DAV:  15    -0.122395135443E+04   -0.55388E+00   -0.33241E+00  1794   0.669E-01    0.165E+01
DAV:  16    -0.122396748200E+04   -0.16128E-01   -0.86671E-01  1456   0.460E-01    0.120E+01
DAV:  17    -0.122594399785E+04   -0.19765E+01   -0.11264E+01  1690   0.864E-01    0.197E+01
DAV:  18    -0.122416163333E+04    0.17824E+01   -0.11643E+00  1703   0.795E-01    0.105E+01
DAV:  19    -0.122389913116E+04    0.26250E+00   -0.44834E-01  1651   0.286E-01    0.858E+00
DAV:  20    -0.122370286571E+04    0.19627E+00   -0.51416E-01  1742   0.276E-01    0.774E+00
DAV:  21    -0.122358671909E+04    0.11615E+00   -0.55168E-02  1612   0.144E-01    0.726E+00
DAV:  22    -0.122346651154E+04    0.12021E+00   -0.12341E-01  1664   0.203E-01    0.693E+00
DAV:  23    -0.122333256255E+04    0.13395E+00   -0.53041E-02  1482   0.116E-01    0.633E+00
DAV:  24    -0.122319735852E+04    0.13520E+00   -0.13153E-01  1755   0.200E-01    0.591E+00
DAV:  25    -0.122298119530E+04    0.21616E+00   -0.12869E-01  1716   0.176E-01    0.417E+00
DAV:  26    -0.122287237949E+04    0.10882E+00   -0.78940E-01  1768   0.219E-01    0.331E+00
DAV:  27    -0.122278343519E+04    0.88944E-01   -0.46460E-01  1716   0.184E-01    0.202E+00
DAV:  28    -0.122280203831E+04   -0.18603E-01   -0.32548E-01  1495   0.809E-02    0.251E+00
DAV:  29    -0.122277028663E+04    0.31752E-01   -0.53492E-01  1612   0.115E-01    0.210E+00
DAV:  30    -0.122278123444E+04   -0.10948E-01   -0.29230E-01  1365   0.653E-02    0.182E+00
DAV:  31    -0.122278359552E+04   -0.23611E-02   -0.33234E-01  1573   0.831E-02    0.281E+00
DAV:  32    -0.122277995495E+04    0.36406E-02   -0.10524E-01  1209   0.498E-02    0.161E+00
DAV:  33    -0.122279594674E+04   -0.15992E-01   -0.11658E-01  1404   0.497E-02    0.327E+00
DAV:  34    -0.122278730997E+04    0.86368E-02   -0.10703E-02  1144   0.404E-02    0.164E+00
DAV:  35    -0.122279016682E+04   -0.28569E-02   -0.84046E-03  1157   0.327E-02    0.235E+00
DAV:  36    -0.122278946284E+04    0.70398E-03   -0.74207E-03  1092   0.252E-02    0.156E+00
DAV:  37    -0.122278809092E+04    0.13719E-02   -0.40829E-03  1144   0.245E-02    0.174E+00
DAV:  38    -0.122278819551E+04   -0.10459E-03   -0.17278E-02  1040   0.188E-02    0.128E+00
DAV:  39    -0.122278566881E+04    0.25267E-02   -0.30793E-03  1105   0.195E-02    0.124E+00
DAV:  40    -0.122278621432E+04   -0.54552E-03   -0.35657E-03   858   0.109E-02    0.115E+00
DAV:  41    -0.122278554397E+04    0.67036E-03   -0.32003E-04   949   0.105E-02    0.105E+00
DAV:  42    -0.122278590219E+04   -0.35822E-03   -0.10354E-04   845   0.930E-03    0.994E-01
DAV:  43    -0.122278611060E+04   -0.20841E-03   -0.38384E-04  1040   0.103E-02    0.904E-01
DAV:  44    -0.122278599092E+04    0.11967E-03   -0.12337E-04   962   0.103E-02    0.796E-01
DAV:  45    -0.122278557297E+04    0.41795E-03   -0.70957E-04  1118   0.171E-02    0.575E-01
DAV:  46    -0.122278504701E+04    0.52596E-03   -0.29498E-04   988   0.126E-02    0.595E-01
DAV:  47    -0.122278503578E+04    0.11237E-04   -0.98624E-05   754   0.829E-03
   1 F= -.12530001E+04 E0= -.12529272E+04  d E =-.125300E+04
       N       E                     dE             d eps       ncg     rms          rms(c)
DAV:   1    -0.122319404029E+04   -0.40899E+00   -0.89783E+01  1261   0.911E+00    0.900E+00
DAV:   2    -0.122380871312E+04   -0.61467E+00   -0.60210E+00  1378   0.277E+00    0.110E+01
DAV:   3    -0.122537489912E+04   -0.15662E+01   -0.11137E+01  1664   0.190E+00    0.172E+01
DAV:   4    -0.122373358652E+04    0.16413E+01   -0.25290E+01  1677   0.195E+00    0.436E+00
DAV:   5    -0.122388025846E+04   -0.14667E+00   -0.31551E+00  1729   0.926E-01    0.798E+00
DAV:   6    -0.122369475970E+04    0.18550E+00   -0.34868E-01  1443   0.407E-01    0.147E+00
DAV:   7    -0.122365481520E+04    0.39945E-01   -0.51217E-01  1677   0.240E-01    0.204E+00
DAV:   8    -0.122363291480E+04    0.21900E-01   -0.34705E-01  1521   0.129E-01    0.741E-01
DAV:   9    -0.122363242610E+04    0.48869E-03   -0.12558E-01  1599   0.110E-01    0.131E+00
DAV:  10    -0.122362117237E+04    0.11254E-01   -0.85862E-02  1547   0.745E-02    0.323E-01
DAV:  11    -0.122362389925E+04   -0.27269E-02   -0.13788E-02  1287   0.451E-02    0.985E-01
DAV:  12    -0.122361867470E+04    0.52245E-02   -0.10136E-02  1079   0.351E-02    0.232E-01
DAV:  13    -0.122361943742E+04   -0.76271E-03   -0.28175E-03  1235   0.301E-02    0.661E-01
DAV:  14    -0.122361752233E+04    0.19151E-02   -0.19970E-03   988   0.220E-02    0.267E-01
DAV:  15    -0.122361787088E+04   -0.34856E-03   -0.12686E-03   923   0.177E-02    0.360E-01
DAV:  16    -0.122361754152E+04    0.32936E-03   -0.67727E-04   728   0.873E-03    0.210E-01
DAV:  17    -0.122361762186E+04   -0.80344E-04   -0.50959E-04   793   0.116E-02
   2 F= -.12539474E+04 E0= -.12538791E+04  d E =-.947293E+00
       N       E                     dE             d eps       ncg     rms          rms(c)
DAV:   1    -0.122360737228E+04    0.10169E-01   -0.19635E+00  1261   0.135E+00    0.119E+00
DAV:   2    -0.122361754661E+04   -0.10174E-01   -0.12224E-01  1326   0.401E-01    0.932E-01
DAV:   3    -0.122362729852E+04   -0.97519E-02   -0.30756E-02  1599   0.144E-01    0.104E+00
DAV:   4    -0.122365058379E+04   -0.23285E-01   -0.10274E-01  1664   0.173E-01    0.399E+00
DAV:   5    -0.122364626982E+04    0.43140E-02   -0.54949E-02  1534   0.152E-01    0.130E+00
DAV:   6    -0.122364164189E+04    0.46279E-02   -0.22457E-02  1677   0.889E-02    0.109E+00
DAV:   7    -0.122363636789E+04    0.52740E-02   -0.69879E-03  1300   0.563E-02    0.995E-01
DAV:   8    -0.122363234068E+04    0.40272E-02   -0.37237E-03  1391   0.365E-02    0.776E-01
DAV:   9    -0.122362798341E+04    0.43573E-02   -0.23729E-03  1027   0.336E-02    0.735E-01
DAV:  10    -0.122362671155E+04    0.12719E-02   -0.14606E-03   949   0.188E-02    0.650E-01
DAV:  11    -0.122362351076E+04    0.32008E-02   -0.15742E-03  1014   0.255E-02    0.613E-01
DAV:  12    -0.122362135746E+04    0.21533E-02   -0.94947E-04  1001   0.179E-02    0.525E-01
DAV:  13    -0.122361900886E+04    0.23486E-02   -0.78002E-04   949   0.187E-02    0.409E-01
DAV:  14    -0.122361807225E+04    0.93661E-03   -0.33751E-04   910   0.125E-02    0.288E-01
DAV:  15    -0.122361772691E+04    0.34533E-03   -0.11884E-04   676   0.850E-03    0.243E-01
DAV:  16    -0.122361730265E+04    0.42426E-03   -0.20199E-04   897   0.106E-02    0.372E-02
DAV:  17    -0.122361735193E+04   -0.49277E-04   -0.54593E-05   689   0.756E-03
   3 F= -.12539650E+04 E0= -.12538994E+04  d E =-.964875E+00
       N       E                     dE             d eps       ncg     rms          rms(c)
DAV:   1    -0.122361712013E+04    0.18252E-03   -0.34791E-04   858   0.189E-02    0.707E-02
DAV:   2    -0.122362199905E+04   -0.48789E-02   -0.55159E-03  1066   0.391E-02    0.129E+00
DAV:   3    -0.122361825005E+04    0.37490E-02   -0.44108E-03   988   0.372E-02    0.232E-01
DAV:   4    -0.122361722449E+04    0.10256E-02   -0.56225E-04   832   0.148E-02    0.943E-02
DAV:   5    -0.122361714137E+04    0.83117E-04   -0.11999E-04   715   0.777E-03
   4 F= -.12539650E+04 E0= -.12538981E+04  d E =-.964883E+00
       N       E                     dE             d eps       ncg     rms          rms(c)
DAV:   1    -0.122361692583E+04    0.29866E-03   -0.29966E-04   767   0.172E-02    0.528E-02
DAV:   2    -0.122361723903E+04   -0.31320E-03   -0.48092E-04   741   0.134E-02    0.253E-01
DAV:   3    -0.122361723088E+04    0.81472E-05   -0.11289E-03   793   0.173E-02    0.275E-01
DAV:   4    -0.122361702610E+04    0.20478E-03   -0.36602E-04   741   0.106E-02    0.105E-01
DAV:   5    -0.122361694178E+04    0.84319E-04   -0.64455E-05   702   0.494E-03
   5 F= -.12539650E+04 E0= -.12538970E+04  d E =-.964884E+00
       N       E                     dE             d eps       ncg     rms          rms(c)
DAV:   1    -0.122361705612E+04   -0.30025E-04   -0.97174E-05   702   0.111E-02    0.382E-02
DAV:   2    -0.122361724535E+04   -0.18923E-03   -0.25471E-04   715   0.113E-02    0.181E-01
DAV:   3    -0.122361717068E+04    0.74666E-04   -0.60882E-04   728   0.148E-02
   6 F= -.12539651E+04 E0= -.12538948E+04  d E =-.965001E+00
       N       E                     dE             d eps       ncg     rms          rms(c)
DAV:   1    -0.122361699786E+04    0.24749E-03   -0.14495E-04   728   0.955E-03    0.289E-02
DAV:   2    -0.122361763578E+04   -0.63793E-03   -0.63437E-04   741   0.146E-02    0.407E-01
DAV:   3    -0.122361704885E+04    0.58693E-03   -0.59976E-04   754   0.147E-02    0.617E-02
DAV:   4    -0.122361700638E+04    0.42477E-04   -0.50892E-05   676   0.444E-03
   7 F= -.12539650E+04 E0= -.12538969E+04  d E =-.964902E+00
       N       E                     dE             d eps       ncg     rms          rms(c)
DAV:   1    -0.122361149118E+04    0.55577E-02   -0.53044E-01  1196   0.375E-01    0.294E-01
DAV:   2    -0.122364589520E+04   -0.34404E-01   -0.49553E-02  1638   0.131E-01    0.392E+00
DAV:   3    -0.122362675685E+04    0.19138E-01   -0.30542E-02  1404   0.897E-02    0.665E-01
DAV:   4    -0.122361568085E+04    0.11076E-01   -0.59005E-03  1235   0.444E-02    0.697E-01
DAV:   5    -0.122361311136E+04    0.25695E-02   -0.20276E-03   949   0.285E-02    0.343E-01
DAV:   6    -0.122361271375E+04    0.39760E-03   -0.16140E-03   910   0.216E-02    0.261E-01
DAV:   7    -0.122361304866E+04   -0.33490E-03   -0.65730E-04   923   0.201E-02    0.388E-01
DAV:   8    -0.122361224451E+04    0.80415E-03   -0.89230E-04   910   0.195E-02    0.962E-02
DAV:   9    -0.122361233856E+04   -0.94051E-04   -0.69379E-04   741   0.103E-02
   8 F= -.12539604E+04 E0= -.12538946E+04  d E =0.465984E-02
       N       E                     dE             d eps       ncg     rms          rms(c)
DAV:   1    -0.122361700153E+04   -0.47570E-02   -0.32033E-01  1196   0.295E-01    0.198E-01
DAV:   2    -0.122362584408E+04   -0.88425E-02   -0.25382E-02  1482   0.102E-01    0.953E-01
DAV:   3    -0.122361820644E+04    0.76376E-02   -0.15451E-02  1157   0.668E-02    0.247E-01
DAV:   4    -0.122361830600E+04   -0.99564E-04   -0.10708E-03   962   0.208E-02    0.345E-01
DAV:   5    -0.122361778659E+04    0.51942E-03   -0.90305E-04   871   0.191E-02    0.213E-01
DAV:   6    -0.122361797702E+04   -0.19043E-03   -0.88554E-04   910   0.208E-02    0.320E-01
DAV:   7    -0.122361750067E+04    0.47635E-03   -0.57203E-04   871   0.179E-02    0.858E-02
DAV:   8    -0.122361747932E+04    0.21350E-04   -0.39520E-04   741   0.806E-03
   9 F= -.12539655E+04 E0= -.12538976E+04  d E =-.472858E-03
       N       E                     dE             d eps       ncg     rms          rms(c)
DAV:   1    -0.122361750297E+04   -0.23033E-05   -0.33126E-04   728   0.639E-03    0.109E-01
DAV:   2    -0.122362304698E+04   -0.55440E-02   -0.11775E-02  1066   0.511E-02    0.786E-01
DAV:   3    -0.122361779979E+04    0.52472E-02   -0.10619E-02  1079   0.502E-02    0.166E-01
DAV:   4    -0.122361759591E+04    0.20388E-03   -0.70751E-04   819   0.114E-02    0.141E-01
DAV:   5    -0.122361750157E+04    0.94340E-04   -0.55465E-04   715   0.767E-03
  10 F= -.12539655E+04 E0= -.12538986E+04  d E =-.495102E-03
       N       E                     dE             d eps       ncg     rms          rms(c)
DAV:   1    -0.122361748065E+04    0.11526E-03   -0.35265E-04   715   0.748E-03    0.648E-02
DAV:   2    -0.122361873542E+04   -0.12548E-02   -0.31315E-03   819   0.233E-02    0.435E-01
DAV:   3    -0.122361766307E+04    0.10723E-02   -0.35681E-03   832   0.261E-02    0.201E-01
DAV:   4    -0.122361749547E+04    0.16760E-03   -0.41652E-04   728   0.739E-03    0.765E-02
DAV:   5    -0.122361746782E+04    0.27655E-04   -0.27279E-04   676   0.335E-03
  11 F= -.12539655E+04 E0= -.12538983E+04  d E =-.461351E-03
       N       E                     dE             d eps       ncg     rms          rms(c)
DAV:   1    -0.122361761758E+04   -0.12211E-03   -0.17477E-02  1170   0.102E-01    0.696E-02
DAV:   2    -0.122361780442E+04   -0.18684E-03   -0.13169E-03  1105   0.263E-02    0.184E-01
DAV:   3    -0.122361793469E+04   -0.13028E-03   -0.15481E-03   780   0.163E-02    0.239E-01
DAV:   4    -0.122361776915E+04    0.16555E-03   -0.82764E-04   780   0.144E-02    0.149E-01
DAV:   5    -0.122361768356E+04    0.85587E-04   -0.13175E-04   689   0.655E-03
  12 F= -.12539657E+04 E0= -.12538994E+04  d E =-.236492E-03
       N       E                     dE             d eps       ncg     rms          rms(c)
DAV:   1    -0.122361761613E+04    0.15302E-03   -0.11946E-02  1144   0.846E-02    0.579E-02
DAV:   2    -0.122361796518E+04   -0.34904E-03   -0.69380E-04   988   0.256E-02    0.278E-01
DAV:   3    -0.122361771686E+04    0.24832E-03   -0.70378E-04   754   0.178E-02    0.139E-01
DAV:   4    -0.122361763903E+04    0.77826E-04   -0.97659E-05   663   0.860E-03
  13 F= -.12539657E+04 E0= -.12538977E+04  d E =-.209854E-03
       N       E                     dE             d eps       ncg     rms          rms(c)
DAV:   1    -0.122361765462E+04    0.62237E-04   -0.19872E-03  1131   0.342E-02    0.389E-02
DAV:   2    -0.122361780161E+04   -0.14699E-03   -0.28971E-04   845   0.113E-02    0.184E-01
DAV:   3    -0.122361780211E+04   -0.49845E-06   -0.58128E-04   741   0.131E-02
  14 F= -.12539658E+04 E0= -.12539016E+04  d E =-.365849E-03
       N       E                     dE             d eps       ncg     rms          rms(c)
DAV:   1    -0.122361766250E+04    0.13911E-03   -0.83031E-03  1118   0.645E-02    0.360E-02
DAV:   2    -0.122361801519E+04   -0.35269E-03   -0.50679E-04   832   0.183E-02    0.257E-01
DAV:   3    -0.122361771450E+04    0.30069E-03   -0.55965E-04   754   0.151E-02    0.934E-02
DAV:   4    -0.122361770534E+04    0.91593E-05   -0.71474E-05   624   0.678E-03
  15 F= -.12539658E+04 E0= -.12538997E+04  d E =0.422142E-04
       N       E                     dE             d eps       ncg     rms          rms(c)
DAV:   1    -0.122361762485E+04    0.89645E-04   -0.34212E-03  1105   0.415E-02    0.429E-02
DAV:   2    -0.122361846163E+04   -0.83678E-03   -0.10515E-03   858   0.225E-02    0.475E-01
DAV:   3    -0.122361775166E+04    0.70997E-03   -0.91847E-04   767   0.179E-02    0.103E-01
DAV:   4    -0.122361763473E+04    0.11693E-03   -0.82331E-05   663   0.699E-03    0.224E-02
DAV:   5    -0.122361763723E+04   -0.25019E-05   -0.19688E-05   624   0.441E-03
  16 F= -.12539658E+04 E0= -.12538988E+04  d E =0.750328E-04
       N       E                     dE             d eps       ncg     rms          rms(c)
DAV:   1    -0.122361762888E+04    0.58496E-05   -0.75527E-03  1157   0.685E-02    0.484E-02
DAV:   2    -0.122361830308E+04   -0.67420E-03   -0.11375E-03   884   0.220E-02    0.420E-01
DAV:   3    -0.122361779999E+04    0.50310E-03   -0.11293E-03   793   0.189E-02    0.139E-01
DAV:   4    -0.122361769741E+04    0.10258E-03   -0.89168E-05   663   0.740E-03    0.858E-02
DAV:   5    -0.122361764639E+04    0.51020E-04   -0.49727E-05   650   0.555E-03
  17 F= -.12539659E+04 E0= -.12538989E+04  d E =-.987628E-04
       N       E                     dE             d eps       ncg     rms          rms(c)
DAV:   1    -0.122361741100E+04    0.28641E-03   -0.47683E-02  1170   0.172E-01    0.661E-02
DAV:   2    -0.122361753023E+04   -0.11923E-03   -0.12851E-03  1664   0.341E-02    0.822E-02
DAV:   3    -0.122361755288E+04   -0.22657E-04   -0.26451E-04   767   0.920E-03
  18 F= -.12539660E+04 E0= -.12539006E+04  d E =-.231584E-03
       N       E                     dE             d eps       ncg     rms          rms(c)
DAV:   1    -0.122361763411E+04   -0.10389E-03   -0.51787E-03  1183   0.545E-02    0.181E-01
DAV:   2    -0.122363168321E+04   -0.14049E-01   -0.38874E-02  1417   0.950E-02    0.995E-01
DAV:   3    -0.122361817098E+04    0.13512E-01   -0.28090E-02  1313   0.867E-02    0.300E-01
DAV:   4    -0.122361780182E+04    0.36915E-03   -0.88239E-04   845   0.158E-02    0.243E-01
DAV:   5    -0.122361761422E+04    0.18761E-03   -0.59710E-04   767   0.142E-02    0.124E-01
DAV:   6    -0.122361761789E+04   -0.36684E-05   -0.22367E-04   676   0.106E-02
  19 F= -.12539661E+04 E0= -.12539016E+04  d E =-.138740E-03
       N       E                     dE             d eps       ncg     rms          rms(c)
DAV:   1    -0.122361735463E+04    0.25959E-03   -0.43001E-02  1170   0.156E-01    0.746E-02
DAV:   2    -0.122361771656E+04   -0.36192E-03   -0.16148E-03  1638   0.379E-02    0.238E-01
DAV:   3    -0.122361772744E+04   -0.10880E-04   -0.11434E-03   832   0.189E-02    0.237E-01
DAV:   4    -0.122361745525E+04    0.27218E-03   -0.49335E-04   728   0.142E-02    0.767E-02
DAV:   5    -0.122361742689E+04    0.28360E-04   -0.47452E-05   611   0.506E-03
  20 F= -.12539662E+04 E0= -.12538999E+04  d E =-.169617E-03
       N       E                     dE             d eps       ncg     rms          rms(c)
DAV:   1    -0.122361643784E+04    0.10174E-02   -0.17195E-01  1170   0.312E-01    0.129E-01
DAV:   2    -0.122361749787E+04   -0.10600E-02   -0.65871E-03  1703   0.698E-02    0.448E-01
DAV:   3    -0.122361753809E+04   -0.40226E-04   -0.38551E-03  1066   0.307E-02    0.350E-01
DAV:   4    -0.122361684705E+04    0.69104E-03   -0.71579E-04   806   0.188E-02    0.124E-01
DAV:   5    -0.122361677846E+04    0.68590E-04   -0.12900E-04   728   0.799E-03
  21 F= -.12539660E+04 E0= -.12538993E+04  d E =0.322714E-04
       N       E                     dE             d eps       ncg     rms          rms(c)
DAV:   1    -0.122361708777E+04   -0.24072E-03   -0.85604E-02  1170   0.220E-01    0.124E-01
DAV:   2    -0.122361793224E+04   -0.84447E-03   -0.44903E-03  1716   0.556E-02    0.360E-01
DAV:   3    -0.122361866726E+04   -0.73502E-03   -0.42622E-03  1001   0.275E-02    0.611E-01
DAV:   4    -0.122361789552E+04    0.77174E-03   -0.25158E-03   884   0.256E-02    0.267E-01
DAV:   5    -0.122361746215E+04    0.43338E-03   -0.30830E-04   728   0.112E-02    0.154E-01
DAV:   6    -0.122361733701E+04    0.12514E-03   -0.13627E-04   689   0.991E-03    0.953E-02
DAV:   7    -0.122361732509E+04    0.11918E-04   -0.12600E-04   663   0.748E-03
  22 F= -.12539662E+04 E0= -.12538988E+04  d E =-.202724E-03
       N       E                     dE             d eps       ncg     rms          rms(c)
DAV:   1    -0.122361735260E+04   -0.15594E-04   -0.38406E-03  1131   0.472E-02    0.359E-02
DAV:   2    -0.122361768443E+04   -0.33183E-03   -0.78264E-04   871   0.169E-02    0.236E-01
DAV:   3    -0.122361740379E+04    0.28063E-03   -0.79509E-04   728   0.152E-02    0.108E-01
DAV:   4    -0.122361736413E+04    0.39668E-04   -0.10784E-04   637   0.650E-03
  23 F= -.12539662E+04 E0= -.12538997E+04  d E =-.175047E-03
       N       E                     dE             d eps       ncg     rms          rms(c)
DAV:   1    -0.122361740971E+04   -0.59196E-05   -0.82513E-03  1157   0.660E-02    0.422E-02
DAV:   2    -0.122361747065E+04   -0.60937E-04   -0.50960E-04   910   0.177E-02
  24 F= -.12539664E+04 E0= -.12539004E+04  d E =-.196038E-03
       N       E                     dE             d eps       ncg     rms          rms(c)
DAV:   1    -0.122361743882E+04   -0.29107E-04   -0.74789E-02  1170   0.199E-01    0.194E-01
DAV:   2    -0.122363017058E+04   -0.12732E-01   -0.32484E-02  1846   0.106E-01    0.993E-01
DAV:   3    -0.122361801049E+04    0.12160E-01   -0.26257E-02  1443   0.900E-02    0.255E-01
DAV:   4    -0.122361781671E+04    0.19377E-03   -0.16296E-03   910   0.202E-02    0.245E-01
DAV:   5    -0.122361759601E+04    0.22070E-03   -0.99897E-04   832   0.178E-02    0.145E-01
DAV:   6    -0.122361763152E+04   -0.35508E-04   -0.94270E-04   715   0.145E-02
  25 F= -.12539668E+04 E0= -.12539023E+04  d E =-.626536E-03
       N       E                     dE             d eps       ncg     rms          rms(c)
DAV:   1    -0.122361622592E+04    0.13701E-02   -0.29413E-01  1170   0.395E-01    0.201E-01
DAV:   2    -0.122361874773E+04   -0.25218E-02   -0.12741E-02  1729   0.932E-02    0.743E-01
DAV:   3    -0.122361877827E+04   -0.30539E-04   -0.93788E-03  1274   0.476E-02    0.506E-01
DAV:   4    -0.122361701103E+04    0.17672E-02   -0.17102E-03   910   0.263E-02    0.181E-01
DAV:   5    -0.122361689058E+04    0.12045E-03   -0.40491E-04   780   0.119E-02    0.175E-01
DAV:   6    -0.122361682628E+04    0.64301E-04   -0.66616E-04   741   0.122E-02
  26 F= -.12539665E+04 E0= -.12538995E+04  d E =-.365475E-03
       N       E                     dE             d eps       ncg     rms          rms(c)
DAV:   1    -0.122361716342E+04   -0.27284E-03   -0.86323E-02  1170   0.213E-01    0.179E-01
DAV:   2    -0.122362308534E+04   -0.59219E-02   -0.19942E-02  1729   0.824E-02    0.773E-01
DAV:   3    -0.122361805204E+04    0.50333E-02   -0.20902E-02  1313   0.647E-02    0.404E-01
DAV:   4    -0.122361775672E+04    0.29532E-03   -0.29438E-03   832   0.217E-02    0.272E-01
DAV:   5    -0.122361747707E+04    0.27965E-03   -0.17559E-03   702   0.109E-02    0.173E-01
DAV:   6    -0.122361729677E+04    0.18030E-03   -0.14514E-03   728   0.111E-02    0.103E-01
DAV:   7    -0.122361732674E+04   -0.29968E-04   -0.14925E-03   702   0.878E-03    0.118E-01
DAV:   8    -0.122361726858E+04    0.58164E-04   -0.87629E-04   650   0.763E-03
  27 F= -.12539667E+04 E0= -.12539003E+04  d E =-.518622E-03
       N       E                     dE             d eps       ncg     rms          rms(c)
DAV:   1    -0.122361736396E+04   -0.37223E-04   -0.60068E-03  1118   0.545E-02    0.882E-02
DAV:   2    -0.122361864738E+04   -0.12834E-02   -0.49709E-03   897   0.268E-02    0.478E-01
DAV:   3    -0.122361805585E+04    0.59153E-03   -0.63227E-03   871   0.315E-02    0.402E-01
DAV:   4    -0.122361757691E+04    0.47894E-03   -0.12254E-03   741   0.164E-02    0.163E-01
DAV:   5    -0.122361738219E+04    0.19472E-03   -0.36272E-04   676   0.726E-03    0.730E-02
DAV:   6    -0.122361735938E+04    0.22806E-04   -0.14893E-04   676   0.631E-03
  28 F= -.12539667E+04 E0= -.12539000E+04  d E =-.534717E-03
       N       E                     dE             d eps       ncg     rms          rms(c)
DAV:   1    -0.122361735445E+04    0.27738E-04   -0.28193E-02  1170   0.120E-01    0.759E-02
DAV:   2    -0.122361817485E+04   -0.82040E-03   -0.18978E-03  1378   0.366E-02    0.377E-01
DAV:   3    -0.122361773631E+04    0.43854E-03   -0.20881E-03   858   0.248E-02    0.273E-01
DAV:   4    -0.122361757264E+04    0.16367E-03   -0.46789E-04   741   0.131E-02    0.156E-01
DAV:   5    -0.122361744595E+04    0.12669E-03   -0.71530E-05   663   0.620E-03    0.806E-02
DAV:   6    -0.122361741431E+04    0.31645E-04   -0.66948E-05   689   0.626E-03
  29 F= -.12539669E+04 E0= -.12538999E+04  d E =-.218110E-03
       N       E                     dE             d eps       ncg     rms          rms(c)
DAV:   1    -0.122361679133E+04    0.65462E-03   -0.20766E-01  1170   0.327E-01    0.205E-01
DAV:   2    -0.122362435345E+04   -0.75621E-02   -0.20014E-02  1755   0.110E-01    0.888E-01
DAV:   3    -0.122361807777E+04    0.62757E-02   -0.18110E-02  1430   0.705E-02    0.426E-01
DAV:   4    -0.122361790183E+04    0.17594E-03   -0.10270E-03   845   0.203E-02    0.345E-01
DAV:   5    -0.122361750571E+04    0.39612E-03   -0.53560E-04   793   0.162E-02    0.236E-01
DAV:   6    -0.122361727426E+04    0.23145E-03   -0.72526E-04   858   0.205E-02    0.177E-01
DAV:   7    -0.122361719580E+04    0.78459E-04   -0.20644E-04   741   0.144E-02
  30 F= -.12539672E+04 E0= -.12538985E+04  d E =-.448245E-03
       N       E                     dE             d eps       ncg     rms          rms(c)
DAV:   1    -0.122361707727E+04    0.19699E-03   -0.33227E-02  1170   0.133E-01    0.915E-02
DAV:   2    -0.122361948734E+04   -0.24101E-02   -0.59851E-03  1638   0.505E-02    0.553E-01
DAV:   3    -0.122361727493E+04    0.22124E-02   -0.52136E-03  1053   0.366E-02    0.182E-01
DAV:   4    -0.122361715707E+04    0.11785E-03   -0.44742E-04   702   0.103E-02    0.101E-01
DAV:   5    -0.122361714722E+04    0.98563E-05   -0.50957E-04   637   0.655E-03
  31 F= -.12539672E+04 E0= -.12539004E+04  d E =-.622745E-04
       N       E                     dE             d eps       ncg     rms          rms(c)
DAV:   1    -0.122361674976E+04    0.40732E-03   -0.17557E-01  1170   0.305E-01    0.166E-01
DAV:   2    -0.122362229607E+04   -0.55463E-02   -0.15691E-02  1794   0.960E-02    0.741E-01
DAV:   3    -0.122361734948E+04    0.49466E-02   -0.12864E-02  1365   0.580E-02    0.248E-01
DAV:   4    -0.122361724883E+04    0.10065E-03   -0.71089E-04   806   0.144E-02    0.217E-01
DAV:   5    -0.122361713278E+04    0.11606E-03   -0.73767E-04   728   0.126E-02    0.161E-01
DAV:   6    -0.122361708958E+04    0.43194E-04   -0.98409E-04   767   0.149E-02
  32 F= -.12539674E+04 E0= -.12538989E+04  d E =-.261110E-03
       N       E                     dE             d eps       ncg     rms          rms(c)
DAV:   1    -0.122361726934E+04   -0.13656E-03   -0.66721E-02  1170   0.188E-01    0.152E-01
DAV:   2    -0.122362502605E+04   -0.77567E-02   -0.22846E-02  1729   0.894E-02    0.868E-01
DAV:   3    -0.122361766238E+04    0.73637E-02   -0.18127E-02  1235   0.641E-02    0.178E-01
DAV:   4    -0.122361762547E+04    0.36902E-04   -0.23954E-03   897   0.163E-02    0.232E-01
DAV:   5    -0.122361742308E+04    0.20239E-03   -0.22326E-03   728   0.138E-02    0.133E-01
DAV:   6    -0.122361741264E+04    0.10441E-04   -0.14970E-03   793   0.128E-02    0.132E-01
DAV:   7    -0.122361734369E+04    0.68955E-04   -0.16263E-03   754   0.116E-02    0.861E-02
DAV:   8    -0.122361734890E+04   -0.52100E-05   -0.92581E-04   650   0.724E-03
  33 F= -.12539677E+04 E0= -.12539016E+04  d E =-.294514E-03
       N       E                     dE             d eps       ncg     rms          rms(c)
DAV:   1    -0.122361734590E+04   -0.22125E-05   -0.39744E-02  1170   0.144E-01    0.915E-02
DAV:   2    -0.122361992363E+04   -0.25777E-02   -0.66418E-03  1625   0.517E-02    0.579E-01
DAV:   3    -0.122361758423E+04    0.23394E-02   -0.56869E-03   949   0.361E-02    0.159E-01
DAV:   4    -0.122361752111E+04    0.63121E-04   -0.55694E-04   702   0.111E-02
  34 F= -.12539679E+04 E0= -.12539029E+04  d E =-.494469E-03
       N       E                     dE             d eps       ncg     rms          rms(c)
DAV:   1    -0.122361686701E+04    0.71722E-03   -0.15773E-01  1170   0.288E-01    0.118E-01
DAV:   2    -0.122361720434E+04   -0.33732E-03   -0.41571E-03  1690   0.584E-02    0.123E-01
DAV:   3    -0.122361780423E+04   -0.59989E-03   -0.19878E-03   871   0.215E-02    0.346E-01
DAV:   4    -0.122361722503E+04    0.57920E-03   -0.15245E-03   780   0.206E-02    0.144E-01
DAV:   5    -0.122361719475E+04    0.30276E-04   -0.16131E-04   689   0.811E-03
  35 F= -.12539677E+04 E0= -.12539025E+04  d E =-.225483E-03
       N       E                     dE             d eps       ncg     rms          rms(c)
DAV:   1    -0.122361731362E+04   -0.88588E-04   -0.76387E-02  1170   0.200E-01    0.161E-01
DAV:   2    -0.122362818281E+04   -0.10869E-01   -0.14021E-02  1846   0.799E-02    0.199E+00
DAV:   3    -0.122362053213E+04    0.76507E-02   -0.10831E-02  1274   0.585E-02    0.453E-01
DAV:   4    -0.122361764614E+04    0.28860E-02   -0.13756E-03   949   0.221E-02    0.140E-01
DAV:   5    -0.122361753675E+04    0.10939E-03   -0.42948E-04   754   0.137E-02    0.166E-01
DAV:   6    -0.122361740637E+04    0.13039E-03   -0.37626E-04   663   0.102E-02    0.769E-02
DAV:   7    -0.122361740833E+04   -0.19627E-05   -0.44059E-04   689   0.106E-02
  36 F= -.12539678E+04 E0= -.12539009E+04  d E =-.399375E-03
       N       E                     dE             d eps       ncg     rms          rms(c)
DAV:   1    -0.122361757029E+04   -0.16392E-03   -0.55254E-02  1170   0.170E-01    0.941E-02
DAV:   2    -0.122362050092E+04   -0.29306E-02   -0.73209E-03  1703   0.626E-02    0.611E-01
DAV:   3    -0.122361783214E+04    0.26688E-02   -0.49661E-03   988   0.364E-02    0.131E-01
DAV:   4    -0.122361781528E+04    0.16861E-04   -0.32268E-04   728   0.113E-02
  37 F= -.12539683E+04 E0= -.12539029E+04  d E =-.468838E-03
       N       E                     dE             d eps       ncg     rms          rms(c)
DAV:   1    -0.122361708844E+04    0.74369E-03   -0.49113E-01  1170   0.510E-01    0.224E-01
DAV:   2    -0.122362328793E+04   -0.61995E-02   -0.24771E-02  1716   0.136E-01    0.786E-01
DAV:   3    -0.122361866582E+04    0.46221E-02   -0.13663E-02  1365   0.630E-02    0.397E-01
DAV:   4    -0.122361864647E+04    0.19356E-04   -0.11610E-03   988   0.225E-02    0.351E-01
DAV:   5    -0.122361829137E+04    0.35509E-03   -0.39384E-04   871   0.152E-02    0.253E-01
DAV:   6    -0.122361850313E+04   -0.21176E-03   -0.15326E-03  1300   0.279E-02    0.364E-01
DAV:   7    -0.122361801891E+04    0.48422E-03   -0.80444E-04   910   0.190E-02    0.127E-01
DAV:   8    -0.122361793429E+04    0.84618E-04   -0.75884E-04   689   0.998E-03
  38 F= -.12539686E+04 E0= -.12539010E+04  d E =-.778881E-03
       N       E                     dE             d eps       ncg     rms          rms(c)
DAV:   1    -0.122361811309E+04   -0.94184E-04   -0.28164E-02  1170   0.119E-01    0.138E-01
DAV:   2    -0.122362459172E+04   -0.64786E-02   -0.15997E-02  1664   0.717E-02    0.837E-01
DAV:   3    -0.122361855783E+04    0.60339E-02   -0.14630E-02  1222   0.591E-02    0.217E-01
DAV:   4    -0.122361844109E+04    0.11674E-03   -0.14573E-03   832   0.161E-02    0.218E-01
DAV:   5    -0.122361824033E+04    0.20076E-03   -0.14805E-03   741   0.139E-02    0.141E-01
DAV:   6    -0.122361819671E+04    0.43616E-04   -0.98643E-04   728   0.116E-02
  39 F= -.12539689E+04 E0= -.12539020E+04  d E =-.328413E-03
       N       E                     dE             d eps       ncg     rms          rms(c)
DAV:   1    -0.122361811418E+04    0.12615E-03   -0.21812E-02  1157   0.103E-01    0.118E-01
DAV:   2    -0.122362093066E+04   -0.28165E-02   -0.88021E-03  1469   0.486E-02    0.664E-01
DAV:   3    -0.122361905656E+04    0.18741E-02   -0.10181E-02  1053   0.432E-02    0.439E-01
DAV:   4    -0.122361859097E+04    0.46560E-03   -0.17981E-03   819   0.196E-02    0.252E-01
DAV:   5    -0.122361820922E+04    0.38175E-03   -0.51461E-04   676   0.963E-03    0.110E-01
DAV:   6    -0.122361816580E+04    0.43411E-04   -0.27780E-04   689   0.993E-03
  40 F= -.12539690E+04 E0= -.12539024E+04  d E =-.355659E-03
       N       E                     dE             d eps       ncg     rms          rms(c)
DAV:   1    -0.122361819575E+04    0.13469E-04   -0.35483E-02  1170   0.137E-01    0.875E-02
DAV:   2    -0.122361910062E+04   -0.90487E-03   -0.25339E-03  1573   0.404E-02    0.398E-01
DAV:   3    -0.122361877417E+04    0.32645E-03   -0.28198E-03   949   0.276E-02    0.350E-01
DAV:   4    -0.122361851383E+04    0.26033E-03   -0.79237E-04   754   0.163E-02    0.188E-01
DAV:   5    -0.122361831793E+04    0.19590E-03   -0.10381E-04   676   0.748E-03    0.894E-02
DAV:   6    -0.122361828565E+04    0.32286E-04   -0.83403E-05   676   0.689E-03
  41 F= -.12539691E+04 E0= -.12539025E+04  d E =-.173523E-03
       N       E                     dE             d eps       ncg     rms          rms(c)
DAV:   1    -0.122361822206E+04    0.95874E-04   -0.18008E-02  1157   0.984E-02    0.747E-02
DAV:   2    -0.122361869998E+04   -0.47792E-03   -0.10179E-03  1300   0.293E-02    0.305E-01
DAV:   3    -0.122361880375E+04   -0.10377E-03   -0.17337E-03   897   0.230E-02    0.375E-01
DAV:   4    -0.122361843716E+04    0.36659E-03   -0.72458E-04   754   0.156E-02    0.153E-01
DAV:   5    -0.122361830230E+04    0.13486E-03   -0.94847E-05   663   0.736E-03    0.973E-02
DAV:   6    -0.122361826186E+04    0.40439E-04   -0.52033E-05   650   0.576E-03
  42 F= -.12539691E+04 E0= -.12539026E+04  d E =-.188830E-03
       N       E                     dE             d eps       ncg     rms          rms(c)
DAV:   1    -0.122361834969E+04   -0.47398E-04   -0.26354E-02  1170   0.118E-01    0.759E-02
DAV:   2    -0.122361907589E+04   -0.72619E-03   -0.16938E-03  1170   0.325E-02    0.368E-01
DAV:   3    -0.122361885194E+04    0.22394E-03   -0.21980E-03   845   0.256E-02    0.338E-01
DAV:   4    -0.122361855878E+04    0.29316E-03   -0.60084E-04   754   0.144E-02    0.152E-01
DAV:   5    -0.122361841974E+04    0.13904E-03   -0.82675E-05   663   0.698E-03    0.853E-02
DAV:   6    -0.122361838710E+04    0.32646E-04   -0.62903E-05   663   0.643E-03
  43 F= -.12539694E+04 E0= -.12539023E+04  d E =-.220066E-03
       N       E                     dE             d eps       ncg     rms          rms(c)
DAV:   1    -0.122361830223E+04    0.11751E-03   -0.38465E-02  1170   0.142E-01    0.983E-02
DAV:   2    -0.122361963891E+04   -0.13367E-02   -0.28255E-03  1430   0.412E-02    0.484E-01
DAV:   3    -0.122361915283E+04    0.48608E-03   -0.39389E-03   962   0.330E-02    0.441E-01
DAV:   4    -0.122361864531E+04    0.50752E-03   -0.91695E-04   767   0.172E-02    0.191E-01
DAV:   5    -0.122361842261E+04    0.22270E-03   -0.13663E-04   663   0.857E-03    0.119E-01
DAV:   6    -0.122361834808E+04    0.74531E-04   -0.93527E-05   676   0.791E-03
  44 F= -.12539694E+04 E0= -.12539024E+04  d E =-.296531E-03
       N       E                     dE             d eps       ncg     rms          rms(c)
DAV:   1    -0.122361849611E+04   -0.73504E-04   -0.11146E-02  1170   0.818E-02    0.127E-01
DAV:   2    -0.122362080091E+04   -0.23048E-02   -0.36409E-03  1066   0.357E-02    0.634E-01
DAV:   3    -0.122362013030E+04    0.67060E-03   -0.75533E-03  1053   0.442E-02    0.660E-01
DAV:   4    -0.122361907999E+04    0.10503E-02   -0.16972E-03   884   0.219E-02    0.252E-01
DAV:   5    -0.122361858966E+04    0.49034E-03   -0.28141E-04   715   0.110E-02    0.139E-01
DAV:   6    -0.122361849057E+04    0.99083E-04   -0.12891E-04   689   0.885E-03
  45 F= -.12539697E+04 E0= -.12539032E+04  d E =-.217105E-03
       N       E                     dE             d eps       ncg     rms          rms(c)
DAV:   1    -0.122361841956E+04    0.17010E-03   -0.10163E-01  1170   0.245E-01    0.133E-01
DAV:   2    -0.122361986412E+04   -0.14446E-02   -0.37646E-03  1703   0.547E-02    0.504E-01
DAV:   3    -0.122362023481E+04   -0.37069E-03   -0.49343E-03  1092   0.367E-02    0.686E-01
DAV:   4    -0.122361918459E+04    0.10502E-02   -0.20420E-03   910   0.245E-02    0.264E-01
DAV:   5    -0.122361878017E+04    0.40442E-03   -0.32931E-04   832   0.134E-02    0.210E-01
DAV:   6    -0.122361859418E+04    0.18598E-03   -0.16896E-04   728   0.110E-02    0.998E-02
DAV:   7    -0.122361872230E+04   -0.12812E-03   -0.13684E-04   676   0.914E-03    0.200E-01
DAV:   8    -0.122361851365E+04    0.20865E-03   -0.17213E-04   676   0.843E-03    0.418E-02
DAV:   9    -0.122361857123E+04   -0.57579E-04   -0.13356E-04   650   0.619E-03
  46 F= -.12539700E+04 E0= -.12539021E+04  d E =-.522498E-03
       N       E                     dE             d eps       ncg     rms          rms(c)
DAV:   1    -0.122361702439E+04    0.14893E-02   -0.40767E-01  1170   0.490E-01    0.188E-01
DAV:   2    -0.122361800656E+04   -0.98217E-03   -0.11558E-02  1716   0.930E-02    0.259E-01
DAV:   3    -0.122362059318E+04   -0.25866E-02   -0.82805E-03  1196   0.390E-02    0.949E-01
DAV:   4    -0.122361863704E+04    0.19561E-02   -0.51745E-03  1066   0.347E-02    0.298E-01
DAV:   5    -0.122361792071E+04    0.71632E-03   -0.49602E-04   897   0.163E-02    0.201E-01
DAV:   6    -0.122361767255E+04    0.24816E-03   -0.19875E-04   741   0.120E-02    0.959E-02
DAV:   7    -0.122361775948E+04   -0.86925E-04   -0.21263E-04   832   0.124E-02
  47 F= -.12539696E+04 E0= -.12539016E+04  d E =-.164371E-03
       N       E                     dE             d eps       ncg     rms          rms(c)
DAV:   1    -0.122361808723E+04   -0.41468E-03   -0.21550E-01  1170   0.357E-01    0.138E-01
DAV:   2    -0.122361940988E+04   -0.13226E-02   -0.65283E-03  1755   0.774E-02    0.388E-01
DAV:   3    -0.122361950041E+04   -0.90529E-04   -0.43365E-03  1092   0.356E-02    0.547E-01
DAV:   4    -0.122361872316E+04    0.77724E-03   -0.13280E-03   897   0.239E-02    0.186E-01
DAV:   5    -0.122361847682E+04    0.24634E-03   -0.20203E-04   871   0.111E-02    0.966E-02
DAV:   6    -0.122361847701E+04   -0.19019E-06   -0.15774E-04   780   0.110E-02
  48 F= -.12539700E+04 E0= -.12539024E+04  d E =-.552288E-03
       N       E                     dE             d eps       ncg     rms          rms(c)
DAV:   1    -0.122361849985E+04   -0.23026E-04   -0.22486E-02  1170   0.109E-01    0.687E-02
DAV:   2    -0.122361931726E+04   -0.81741E-03   -0.26218E-03  1352   0.354E-02    0.377E-01
DAV:   3    -0.122361883668E+04    0.48058E-03   -0.25151E-03   871   0.241E-02    0.250E-01
DAV:   4    -0.122361869431E+04    0.14237E-03   -0.44920E-04   728   0.129E-02    0.145E-01
DAV:   5    -0.122361857665E+04    0.11766E-03   -0.92108E-05   650   0.593E-03    0.646E-02
DAV:   6    -0.122361856881E+04    0.78415E-05   -0.83216E-05   676   0.639E-03
  49 F= -.12539702E+04 E0= -.12539035E+04  d E =-.192729E-03
       N       E                     dE             d eps       ncg     rms          rms(c)
DAV:   1    -0.122361833219E+04    0.24447E-03   -0.19843E-01  1170   0.324E-01    0.137E-01
DAV:   2    -0.122361894751E+04   -0.61532E-03   -0.62458E-03  1690   0.664E-02    0.246E-01
DAV:   3    -0.122361989754E+04   -0.95003E-03   -0.47459E-03   871   0.307E-02    0.433E-01
DAV:   4    -0.122361883062E+04    0.10669E-02   -0.25494E-03   806   0.277E-02    0.174E-01
DAV:   5    -0.122361872303E+04    0.10759E-03   -0.29770E-04   728   0.943E-03    0.121E-01
DAV:   6    -0.122361869148E+04    0.31553E-04   -0.39521E-04   676   0.843E-03
  50 F= -.12539706E+04 E0= -.12539044E+04  d E =-.619582E-03
       N       E                     dE             d eps       ncg     rms          rms(c)
DAV:   1    -0.122361624381E+04    0.24792E-02   -0.79192E-01  1170   0.648E-01    0.280E-01
DAV:   2    -0.122361874697E+04   -0.25032E-02   -0.26488E-02  1716   0.131E-01    0.458E-01
DAV:   3    -0.122362394898E+04   -0.52020E-02   -0.21037E-02  1534   0.638E-02    0.148E+00
DAV:   4    -0.122361972408E+04    0.42249E-02   -0.10179E-02  1170   0.482E-02    0.416E-01
DAV:   5    -0.122361788947E+04    0.18346E-02   -0.18028E-03  1079   0.221E-02    0.235E-01
DAV:   6    -0.122361760642E+04    0.28305E-03   -0.18875E-03   871   0.151E-02    0.170E-01
DAV:   7    -0.122361763728E+04   -0.30856E-04   -0.12531E-03   897   0.166E-02    0.153E-01
DAV:   8    -0.122361756264E+04    0.74638E-04   -0.74596E-04   806   0.129E-02
  51 F= -.12539701E+04 E0= -.12539029E+04  d E =-.105365E-03
       N       E                     dE             d eps       ncg     rms          rms(c)
DAV:   1    -0.122361787174E+04   -0.23446E-03   -0.38910E-01  1170   0.456E-01    0.208E-01
DAV:   2    -0.122362088935E+04   -0.30176E-02   -0.14115E-02  1703   0.107E-01    0.627E-01
DAV:   3    -0.122362147071E+04   -0.58136E-03   -0.10882E-02  1222   0.535E-02    0.931E-01
DAV:   4    -0.122362001503E+04    0.14557E-02   -0.42499E-03  1027   0.396E-02    0.394E-01
DAV:   5    -0.122361882027E+04    0.11948E-02   -0.92875E-04   936   0.194E-02    0.207E-01
DAV:   6    -0.122361857548E+04    0.24479E-03   -0.52748E-04   793   0.135E-02    0.121E-01
DAV:   7    -0.122361868985E+04   -0.11437E-03   -0.68892E-04   754   0.124E-02    0.200E-01
DAV:   8    -0.122361854904E+04    0.14080E-03   -0.69950E-04   676   0.964E-03    0.934E-02
DAV:   9    -0.122361854300E+04    0.60460E-05   -0.39592E-04   676   0.796E-03
  52 F= -.12539707E+04 E0= -.12539028E+04  d E =-.655791E-03
       N       E                     dE             d eps       ncg     rms          rms(c)
DAV:   1    -0.122361855541E+04   -0.63674E-05   -0.30632E-02  1170   0.122E-01    0.805E-02
DAV:   2    -0.122361986312E+04   -0.13077E-02   -0.35418E-03  1508   0.427E-02    0.448E-01
DAV:   3    -0.122361891853E+04    0.94459E-03   -0.33711E-03   936   0.296E-02    0.244E-01
DAV:   4    -0.122361871713E+04    0.20140E-03   -0.25198E-04   702   0.111E-02    0.112E-01
DAV:   5    -0.122361866905E+04    0.48073E-04   -0.10943E-04   676   0.702E-03
  53 F= -.12539709E+04 E0= -.12539042E+04  d E =-.273208E-03
       N       E                     dE             d eps       ncg     rms          rms(c)
DAV:   1    -0.122361816706E+04    0.55006E-03   -0.27111E-01  1170   0.365E-01    0.175E-01
DAV:   2    -0.122361980908E+04   -0.16420E-02   -0.89383E-03  1768   0.841E-02    0.423E-01
DAV:   3    -0.122362064349E+04   -0.83441E-03   -0.74980E-03  1183   0.464E-02    0.778E-01
DAV:   4    -0.122361925376E+04    0.13897E-02   -0.23687E-03   962   0.286E-02    0.255E-01
DAV:   5    -0.122361876014E+04    0.49361E-03   -0.31648E-04   819   0.132E-02    0.146E-01
DAV:   6    -0.122361868009E+04    0.80053E-04   -0.32332E-04   741   0.119E-02
  54 F= -.12539714E+04 E0= -.12539043E+04  d E =-.727618E-03
       N       E                     dE             d eps       ncg     rms          rms(c)
DAV:   1    -0.122361518554E+04    0.35746E-02   -0.10823E+00  1170   0.729E-01    0.364E-01
DAV:   2    -0.122362695933E+04   -0.11774E-01   -0.53790E-02  1755   0.194E-01    0.996E-01
DAV:   3    -0.122362106563E+04    0.58937E-02   -0.42621E-02  1612   0.109E-01    0.106E+00
DAV:   4    -0.122362092423E+04    0.14140E-03   -0.10120E-02  1157   0.518E-02    0.625E-01
DAV:   5    -0.122361822321E+04    0.27010E-02   -0.16191E-03  1196   0.285E-02    0.393E-01
DAV:   6    -0.122361728455E+04    0.93866E-03   -0.11784E-03   988   0.232E-02    0.207E-01
DAV:   7    -0.122361779670E+04   -0.51215E-03   -0.86829E-04   949   0.199E-02    0.417E-01
DAV:   8    -0.122361719639E+04    0.60032E-03   -0.63826E-04   845   0.174E-02    0.866E-02
DAV:   9    -0.122361732018E+04   -0.12379E-03   -0.19235E-04   689   0.114E-02    0.232E-01
DAV:  10    -0.122361706422E+04    0.25596E-03   -0.10188E-04   663   0.829E-03    0.439E-02
DAV:  11    -0.122361712891E+04   -0.64686E-04   -0.72648E-05   663   0.629E-03
  55 F= -.12539707E+04 E0= -.12539030E+04  d E =-.721127E-04
       N       E                     dE             d eps       ncg     rms          rms(c)
DAV:   1    -0.122361729322E+04   -0.22900E-03   -0.58446E-01  1170   0.534E-01    0.245E-01
DAV:   2    -0.122361881158E+04   -0.15184E-02   -0.16133E-02  1690   0.114E-01    0.293E-01
DAV:   3    -0.122362317470E+04   -0.43631E-02   -0.12029E-02  1326   0.603E-02    0.731E-01
DAV:   4    -0.122361869085E+04    0.44838E-02   -0.81365E-03  1040   0.462E-02    0.169E-01
DAV:   5    -0.122361857890E+04    0.11195E-03   -0.49283E-04   832   0.144E-02    0.183E-01
DAV:   6    -0.122361843978E+04    0.13912E-03   -0.70139E-04   767   0.144E-02    0.949E-02
DAV:   7    -0.122361857290E+04   -0.13312E-03   -0.12235E-03   819   0.131E-02    0.169E-01
DAV:   8    -0.122361843249E+04    0.14042E-03   -0.11780E-03   728   0.114E-02    0.767E-02
DAV:   9    -0.122361845843E+04   -0.25946E-04   -0.91426E-04   650   0.754E-03
  56 F= -.12539714E+04 E0= -.12539051E+04  d E =-.744178E-03
       N       E                     dE             d eps       ncg     rms          rms(c)
DAV:   1    -0.122361843975E+04   -0.72659E-05   -0.62239E-02  1170   0.171E-01    0.905E-02
DAV:   2    -0.122361883006E+04   -0.39030E-03   -0.30696E-03  1664   0.417E-02    0.229E-01
DAV:   3    -0.122361914013E+04   -0.31007E-03   -0.28421E-03   897   0.223E-02    0.381E-01
DAV:   4    -0.122361877739E+04    0.36274E-03   -0.11432E-03   754   0.176E-02    0.174E-01
DAV:   5    -0.122361861252E+04    0.16487E-03   -0.11038E-04   663   0.732E-03    0.816E-02
DAV:   6    -0.122361857925E+04    0.33273E-04   -0.91226E-05   676   0.613E-03
  57 F= -.12539717E+04 E0= -.12539051E+04  d E =-.338437E-03
       N       E                     dE             d eps       ncg     rms          rms(c)
DAV:   1    -0.122361752838E+04    0.10841E-02   -0.55246E-01  1170   0.512E-01    0.252E-01
DAV:   2    -0.122361887021E+04   -0.13418E-02   -0.14953E-02  1716   0.111E-01    0.247E-01
DAV:   3    -0.122361987160E+04   -0.10014E-02   -0.21961E-03  1144   0.315E-02    0.599E-01
DAV:   4    -0.122362012059E+04   -0.24900E-03   -0.51908E-03  1014   0.370E-02    0.470E-01
DAV:   5    -0.122361877840E+04    0.13422E-02   -0.18840E-03   962   0.253E-02    0.182E-01
DAV:   6    -0.122361884196E+04   -0.63559E-04   -0.39293E-04   780   0.117E-02
  58 F= -.12539727E+04 E0= -.12539061E+04  d E =-.125804E-02
       N       E                     dE             d eps       ncg     rms          rms(c)
DAV:   1    -0.122361215563E+04    0.66228E-02   -0.22086E+00  1170   0.102E+00    0.505E-01
DAV:   2    -0.122361854392E+04   -0.63883E-02   -0.65102E-02  1703   0.231E-01    0.618E-01
DAV:   3    -0.122364993905E+04   -0.31395E-01   -0.49681E-02  1612   0.115E-01    0.394E+00
DAV:   4    -0.122363116602E+04    0.18773E-01   -0.30595E-02  1391   0.937E-02    0.686E-01
DAV:   5    -0.122361969052E+04    0.11475E-01   -0.67259E-03  1274   0.452E-02    0.708E-01
DAV:   6    -0.122361715647E+04    0.25341E-02   -0.22330E-03  1105   0.303E-02    0.360E-01
DAV:   7    -0.122361748149E+04   -0.32502E-03   -0.30464E-03  1079   0.274E-02    0.455E-01
DAV:   8    -0.122361640483E+04    0.10767E-02   -0.22844E-03   988   0.226E-02    0.100E-01
DAV:   9    -0.122361667364E+04   -0.26881E-03   -0.15208E-03   832   0.158E-02    0.299E-01
DAV:  10    -0.122361625070E+04    0.42294E-03   -0.16145E-03   689   0.105E-02    0.955E-02
DAV:  11    -0.122361631977E+04   -0.69071E-04   -0.80984E-04   689   0.820E-03
  59 F= -.12539715E+04 E0= -.12539031E+04  d E =-.677981E-04
       N       E                     dE             d eps       ncg     rms          rms(c)
DAV:   1    -0.122361596904E+04    0.28167E-03   -0.11800E+00  1170   0.750E-01    0.367E-01
DAV:   2    -0.122361991191E+04   -0.39429E-02   -0.36604E-02  1664   0.165E-01    0.523E-01
DAV:   3    -0.122363744978E+04   -0.17538E-01   -0.34164E-02  1651   0.907E-02    0.286E+00
DAV:   4    -0.122362566475E+04    0.11785E-01   -0.15991E-02  1378   0.738E-02    0.561E-01
DAV:   5    -0.122361954629E+04    0.61185E-02   -0.32210E-03  1131   0.338E-02    0.422E-01
DAV:   6    -0.122361851101E+04    0.10353E-02   -0.73381E-04   884   0.208E-02    0.230E-01
DAV:   7    -0.122361872828E+04   -0.21727E-03   -0.90076E-04   897   0.203E-02    0.312E-01
DAV:   8    -0.122361829803E+04    0.43025E-03   -0.34867E-04   858   0.174E-02    0.121E-01
DAV:   9    -0.122361839225E+04   -0.94225E-04   -0.17098E-04   728   0.118E-02
  60 F= -.12539726E+04 E0= -.12539038E+04  d E =-.116785E-02
       N       E                     dE             d eps       ncg     rms          rms(c)
DAV:   1    -0.122361816538E+04    0.13265E-03   -0.12207E-01  1170   0.236E-01    0.103E-01
DAV:   2    -0.122361886120E+04   -0.69582E-03   -0.36692E-03  1729   0.534E-02    0.276E-01
DAV:   3    -0.122361884820E+04    0.13004E-04   -0.18966E-03   923   0.253E-02    0.354E-01
DAV:   4    -0.122361851670E+04    0.33150E-03   -0.71274E-04   780   0.168E-02    0.132E-01
DAV:   5    -0.122361843230E+04    0.84398E-04   -0.12148E-04   754   0.934E-03
  61 F= -.12539729E+04 E0= -.12539049E+04  d E =-.293541E-03
       N       E                     dE             d eps       ncg     rms          rms(c)
DAV:   1    -0.122361635322E+04    0.21635E-02   -0.10900E+00  1170   0.705E-01    0.298E-01
DAV:   2    -0.122361994327E+04   -0.35901E-02   -0.27778E-02  1638   0.148E-01    0.712E-01
DAV:   3    -0.122362255986E+04   -0.26166E-02   -0.14090E-02  1547   0.660E-02    0.698E-01
DAV:   4    -0.122361849920E+04    0.40607E-02   -0.46543E-03  1300   0.447E-02    0.234E-01
DAV:   5    -0.122361822856E+04    0.27064E-03   -0.73564E-04   949   0.178E-02    0.207E-01
DAV:   6    -0.122361863696E+04   -0.40840E-03   -0.12645E-03  1378   0.264E-02    0.390E-01
DAV:   7    -0.122361833476E+04    0.30219E-03   -0.93786E-04   962   0.244E-02    0.217E-01
DAV:   8    -0.122361805365E+04    0.28112E-03   -0.18611E-04   715   0.110E-02    0.243E-02
DAV:   9    -0.122361811109E+04   -0.57444E-04   -0.15444E-04   676   0.771E-03
  62 F= -.12539733E+04 E0= -.12539071E+04  d E =-.738746E-03
       N       E                     dE             d eps       ncg     rms          rms(c)
DAV:   1    -0.122361798811E+04    0.65540E-04   -0.11441E-01  1170   0.237E-01    0.100E-01
DAV:   2    -0.122361835664E+04   -0.36853E-03   -0.33024E-03  1625   0.483E-02    0.185E-01
DAV:   3    -0.122361892490E+04   -0.56827E-03   -0.24014E-03   858   0.231E-02    0.347E-01
DAV:   4    -0.122361827735E+04    0.64755E-03   -0.98231E-04   793   0.194E-02    0.103E-01
DAV:   5    -0.122361825425E+04    0.23100E-04   -0.92860E-05   702   0.676E-03
  63 F= -.12539737E+04 E0= -.12539079E+04  d E =-.412418E-03
       N       E                     dE             d eps       ncg     rms          rms(c)
DAV:   1    -0.122361683486E+04    0.14425E-02   -0.10250E+00  1170   0.711E-01    0.283E-01
DAV:   2    -0.122362031312E+04   -0.34783E-02   -0.24719E-02  1716   0.138E-01    0.713E-01
DAV:   3    -0.122362189010E+04   -0.15770E-02   -0.12315E-02  1417   0.622E-02    0.641E-01
DAV:   4    -0.122361863521E+04    0.32549E-02   -0.36986E-03  1183   0.390E-02    0.228E-01
DAV:   5    -0.122361854119E+04    0.94020E-04   -0.48744E-04  1079   0.163E-02
  64 F= -.12539748E+04 E0= -.12539113E+04  d E =-.151203E-02
       N       E                     dE             d eps       ncg     rms          rms(c)
DAV:   1    -0.122361175974E+04    0.68755E-02   -0.40815E+00  1170   0.142E+00    0.668E-01
DAV:   2    -0.122366049317E+04   -0.48733E-01   -0.21802E-01  1716   0.353E-01    0.181E+00
DAV:   3    -0.122362243236E+04    0.38061E-01   -0.14071E-01  1690   0.223E-01    0.788E-01
DAV:   4    -0.122362436154E+04   -0.19292E-02   -0.17612E-02  1638   0.718E-02    0.112E+00
DAV:   5    -0.122362038818E+04    0.39734E-02   -0.14631E-02  1690   0.709E-02    0.546E-01
DAV:   6    -0.122361881606E+04    0.15721E-02   -0.72576E-03  1391   0.500E-02    0.634E-01
DAV:   7    -0.122361723168E+04    0.15844E-02   -0.65050E-03  1131   0.307E-02    0.200E-01
DAV:   8    -0.122361722106E+04    0.10618E-04   -0.64975E-03   910   0.174E-02    0.220E-01
DAV:   9    -0.122361733043E+04   -0.10936E-03   -0.46244E-03   806   0.192E-02    0.294E-01
DAV:  10    -0.122361709352E+04    0.23691E-03   -0.28170E-03   832   0.140E-02    0.152E-01
DAV:  11    -0.122361696112E+04    0.13240E-03   -0.14466E-03   715   0.878E-03    0.755E-02
DAV:  12    -0.122361698859E+04   -0.27465E-04   -0.86652E-04   715   0.659E-03
  65 F= -.12539749E+04 E0= -.12539078E+04  d E =-.160672E-02
       N       E                     dE             d eps       ncg     rms          rms(c)
DAV:   1    -0.122361702025E+04   -0.59129E-04   -0.31724E-01  1170   0.393E-01    0.157E-01
DAV:   2    -0.122361817055E+04   -0.11503E-02   -0.91892E-03  1664   0.811E-02    0.331E-01
DAV:   3    -0.122361929026E+04   -0.11197E-02   -0.58096E-03  1066   0.371E-02    0.706E-01
DAV:   4    -0.122361809097E+04    0.11993E-02   -0.20984E-03   949   0.296E-02    0.247E-01
DAV:   5    -0.122361765836E+04    0.43261E-03   -0.31637E-04   806   0.125E-02    0.135E-01
DAV:   6    -0.122361758785E+04    0.70507E-04   -0.17514E-04   715   0.109E-02
  66 F= -.12539750E+04 E0= -.12539085E+04  d E =-.174551E-02
       N       E                     dE             d eps       ncg     rms          rms(c)
DAV:   1    -0.122361694402E+04    0.71433E-03   -0.59680E-01  1170   0.516E-01    0.262E-01
DAV:   2    -0.122362314384E+04   -0.61998E-02   -0.24316E-02  1742   0.132E-01    0.838E-01
DAV:   3    -0.122362139404E+04    0.17498E-02   -0.19591E-02  1404   0.731E-02    0.984E-01
DAV:   4    -0.122362034784E+04    0.10462E-02   -0.64040E-03  1027   0.426E-02    0.502E-01
DAV:   5    -0.122361840583E+04    0.19420E-02   -0.14411E-03  1144   0.274E-02    0.255E-01
DAV:   6    -0.122361804137E+04    0.36446E-03   -0.48280E-04   871   0.159E-02    0.158E-01
DAV:   7    -0.122361827480E+04   -0.23343E-03   -0.54689E-04   806   0.149E-02    0.288E-01
DAV:   8    -0.122361796853E+04    0.30627E-03   -0.60802E-04   715   0.111E-02    0.108E-01
DAV:   9    -0.122361797359E+04   -0.50538E-05   -0.44469E-04   689   0.888E-03
  67 F= -.12539762E+04 E0= -.12539082E+04  d E =-.110950E-02
       N       E                     dE             d eps       ncg     rms          rms(c)
DAV:   1    -0.122361340038E+04    0.45681E-02   -0.18785E+00  1170   0.915E-01    0.417E-01
DAV:   2    -0.122362351637E+04   -0.10116E-01   -0.61914E-02  1703   0.214E-01    0.885E-01
DAV:   3    -0.122362728610E+04   -0.37697E-02   -0.43246E-02  1612   0.110E-01    0.199E+00
DAV:   4    -0.122362274092E+04    0.45452E-02   -0.15985E-02  1261   0.688E-02    0.625E-01
DAV:   5    -0.122361807192E+04    0.46690E-02   -0.36390E-03  1300   0.368E-02    0.488E-01
DAV:   6    -0.122361673983E+04    0.13321E-02   -0.19648E-03  1014   0.232E-02    0.215E-01
DAV:   7    -0.122361774375E+04   -0.10039E-02   -0.28076E-03  1014   0.249E-02    0.550E-01
DAV:   8    -0.122361672851E+04    0.10152E-02   -0.24149E-03   936   0.161E-02    0.182E-01
DAV:   9    -0.122361671052E+04    0.17986E-04   -0.14458E-03   806   0.133E-02    0.242E-01
DAV:  10    -0.122361646030E+04    0.25023E-03   -0.11163E-03   650   0.833E-03    0.115E-01
DAV:  11    -0.122361653106E+04   -0.70766E-04   -0.54785E-04   663   0.677E-03
  68 F= -.12539760E+04 E0= -.12539079E+04  d E =-.968945E-03
       N       E                     dE             d eps       ncg     rms          rms(c)
DAV:   1    -0.122361676103E+04   -0.30074E-03   -0.41026E-01  1170   0.427E-01    0.196E-01
DAV:   2    -0.122361791793E+04   -0.11569E-02   -0.12792E-02  1690   0.879E-02    0.287E-01
DAV:   3    -0.122362086672E+04   -0.29488E-02   -0.10367E-02  1053   0.404E-02    0.103E+00
DAV:   4    -0.122361850695E+04    0.23598E-02   -0.52934E-03  1001   0.371E-02    0.292E-01
DAV:   5    -0.122361772759E+04    0.77936E-03   -0.61138E-04   845   0.154E-02    0.194E-01
DAV:   6    -0.122361750636E+04    0.22123E-03   -0.38654E-04   741   0.121E-02    0.990E-02
DAV:   7    -0.122361758853E+04   -0.82164E-04   -0.24835E-04   780   0.115E-02
  69 F= -.12539765E+04 E0= -.12539083E+04  d E =-.141654E-02
       N       E                     dE             d eps       ncg     rms          rms(c)
DAV:   1    -0.122361701901E+04    0.48735E-03   -0.46426E-01  1170   0.471E-01    0.221E-01
DAV:   2    -0.122361908248E+04   -0.20635E-02   -0.14378E-02  1794   0.114E-01    0.424E-01
DAV:   3    -0.122362244936E+04   -0.33669E-02   -0.11222E-02  1326   0.579E-02    0.123E+00
DAV:   4    -0.122361928064E+04    0.31687E-02   -0.42957E-03  1027   0.381E-02    0.330E-01
DAV:   5    -0.122361819072E+04    0.10899E-02   -0.74797E-04   936   0.181E-02    0.204E-01
DAV:   6    -0.122361797648E+04    0.21425E-03   -0.34945E-04   806   0.160E-02    0.134E-01
DAV:   7    -0.122361797250E+04    0.39742E-05   -0.57055E-04   793   0.135E-02
  70 F= -.12539774E+04 E0= -.12539086E+04  d E =-.973735E-03
       N       E                     dE             d eps       ncg     rms          rms(c)
DAV:   1    -0.122360961640E+04    0.83601E-02   -0.41677E+00  1170   0.141E+00    0.645E-01
DAV:   2    -0.122362137669E+04   -0.11760E-01   -0.11593E-01  1729   0.312E-01    0.764E-01
DAV:   3    -0.122368231538E+04   -0.60939E-01   -0.89619E-02  1651   0.166E-01    0.566E+00
DAV:   4    -0.122364559339E+04    0.36722E-01   -0.40917E-02  1547   0.120E-01    0.832E-01
DAV:   5    -0.122362189628E+04    0.23697E-01   -0.11163E-02  1313   0.601E-02    0.816E-01
DAV:   6    -0.122361851055E+04    0.33857E-02   -0.25347E-03  1378   0.396E-02    0.448E-01
DAV:   7    -0.122361881541E+04   -0.30486E-03   -0.70487E-03  1248   0.320E-02    0.567E-01
DAV:   8    -0.122361734654E+04    0.14689E-02   -0.63964E-03   936   0.249E-02    0.201E-01
DAV:   9    -0.122361766022E+04   -0.31368E-03   -0.45824E-03   871   0.172E-02    0.389E-01
DAV:  10    -0.122361708660E+04    0.57362E-03   -0.32927E-03   754   0.129E-02    0.177E-01
DAV:  11    -0.122361719389E+04   -0.10729E-03   -0.22317E-03   728   0.115E-02    0.249E-01
DAV:  12    -0.122361697246E+04    0.22143E-03   -0.10550E-03   676   0.746E-03    0.120E-01
DAV:  13    -0.122361703628E+04   -0.63815E-04   -0.72856E-04   650   0.583E-03
  71 F= -.12539783E+04 E0= -.12539097E+04  d E =-.182618E-02
       N       E                     dE             d eps       ncg     rms          rms(c)
DAV:   1    -0.122361665607E+04    0.31640E-03   -0.30763E-01  1170   0.380E-01    0.207E-01
DAV:   2    -0.122362055460E+04   -0.38985E-02   -0.13907E-02  1729   0.973E-02    0.678E-01
DAV:   3    -0.122361975852E+04    0.79608E-03   -0.13853E-02  1300   0.624E-02    0.856E-01
DAV:   4    -0.122361835718E+04    0.14013E-02   -0.30745E-03   949   0.326E-02    0.347E-01
DAV:   5    -0.122361754198E+04    0.81520E-03   -0.83421E-04   858   0.180E-02    0.237E-01
DAV:   6    -0.122361720514E+04    0.33684E-03   -0.56609E-04   767   0.147E-02    0.919E-02
DAV:   7    -0.122361744995E+04   -0.24482E-03   -0.27498E-04   754   0.128E-02    0.249E-01
DAV:   8    -0.122361716677E+04    0.28319E-03   -0.22145E-04   637   0.103E-02    0.375E-02
DAV:   9    -0.122361726123E+04   -0.94462E-04   -0.13699E-04   650   0.727E-03
  72 F= -.12539790E+04 E0= -.12539104E+04  d E =-.714092E-03
       N       E                     dE             d eps       ncg     rms          rms(c)
DAV:   1    -0.122361206064E+04    0.51061E-02   -0.27633E+00  1170   0.114E+00    0.502E-01
DAV:   2    -0.122362206429E+04   -0.10004E-01   -0.79574E-02  1742   0.254E-01    0.784E-01
DAV:   3    -0.122364397518E+04   -0.21911E-01   -0.59133E-02  1651   0.133E-01    0.349E+00
DAV:   4    -0.122362931297E+04    0.14662E-01   -0.24166E-02  1443   0.902E-02    0.697E-01
DAV:   5    -0.122361993556E+04    0.93774E-02   -0.56747E-03  1209   0.419E-02    0.666E-01
DAV:   6    -0.122361741098E+04    0.25246E-02   -0.18305E-03  1313   0.325E-02    0.332E-01
DAV:   7    -0.122361779625E+04   -0.38527E-03   -0.27238E-03  1157   0.288E-02    0.471E-01
DAV:   8    -0.122361698166E+04    0.81459E-03   -0.16231E-03   923   0.201E-02    0.216E-01
DAV:   9    -0.122361712465E+04   -0.14299E-03   -0.18204E-03   806   0.152E-02    0.312E-01
DAV:  10    -0.122361670942E+04    0.41523E-03   -0.12236E-03   702   0.107E-02    0.111E-01
DAV:  11    -0.122361680685E+04   -0.97430E-04   -0.94244E-04   689   0.874E-03
  73 F= -.12539800E+04 E0= -.12539112E+04  d E =-.173962E-02
       N       E                     dE             d eps       ncg     rms          rms(c)
DAV:   1    -0.122361689977E+04   -0.19035E-03   -0.26428E-01  1170   0.374E-01    0.168E-01
DAV:   2    -0.122362119857E+04   -0.42988E-02   -0.13923E-02  1768   0.942E-02    0.684E-01
DAV:   3    -0.122361817872E+04    0.30199E-02   -0.10812E-02  1313   0.548E-02    0.427E-01
DAV:   4    -0.122361771204E+04    0.46668E-03   -0.72710E-04   897   0.194E-02    0.233E-01
DAV:   5    -0.122361756610E+04    0.14594E-03   -0.32964E-04   819   0.139E-02    0.198E-01
DAV:   6    -0.122361743629E+04    0.12981E-03   -0.48390E-04   897   0.174E-02    0.161E-01
DAV:   7    -0.122361742230E+04    0.13995E-04   -0.37284E-04   767   0.131E-02
  74 F= -.12539812E+04 E0= -.12539122E+04  d E =-.114943E-02
       N       E                     dE             d eps       ncg     rms          rms(c)
DAV:   1    -0.122361352091E+04    0.39154E-02   -0.23739E+00  1170   0.112E+00    0.440E-01
DAV:   2    -0.122362917007E+04   -0.15649E-01   -0.91199E-02  1729   0.258E-01    0.102E+00
DAV:   3    -0.122362209114E+04    0.70789E-02   -0.58056E-02  1664   0.127E-01    0.122E+00
DAV:   4    -0.122362152591E+04    0.56524E-03   -0.11890E-02  1365   0.615E-02    0.662E-01
DAV:   5    -0.122361888130E+04    0.26446E-02   -0.20032E-03  1313   0.319E-02    0.517E-01
DAV:   6    -0.122361737937E+04    0.15019E-02   -0.23462E-03  1313   0.335E-02    0.249E-01
DAV:   7    -0.122361791377E+04   -0.53440E-03   -0.25656E-03  1066   0.234E-02    0.471E-01
DAV:   8    -0.122361717533E+04    0.73845E-03   -0.23096E-03   923   0.199E-02    0.134E-01
DAV:   9    -0.122361723196E+04   -0.56638E-04   -0.22477E-03   780   0.150E-02    0.232E-01
DAV:  10    -0.122361702764E+04    0.20432E-03   -0.18073E-03   728   0.102E-02    0.120E-01
DAV:  11    -0.122361705315E+04   -0.25509E-04   -0.11323E-03   702   0.811E-03    0.137E-01
DAV:  12    -0.122361694927E+04    0.10389E-03   -0.74050E-04   650   0.560E-03    0.442E-02
DAV:  13    -0.122361699340E+04   -0.44135E-04   -0.39231E-04   637   0.479E-03
  75 F= -.12539824E+04 E0= -.12539147E+04  d E =-.234019E-02
       N       E                     dE             d eps       ncg     rms          rms(c)
DAV:   1    -0.122361639917E+04    0.55009E-03   -0.53383E-01  1170   0.528E-01    0.195E-01
DAV:   2    -0.122361771646E+04   -0.13173E-02   -0.13116E-02  1690   0.101E-01    0.283E-01
DAV:   3    -0.122362130396E+04   -0.35875E-02   -0.76439E-03  1261   0.484E-02    0.115E+00
DAV:   4    -0.122361829537E+04    0.30086E-02   -0.40536E-03  1092   0.377E-02    0.276E-01
DAV:   5    -0.122361749295E+04    0.80242E-03   -0.75519E-04   975   0.179E-02    0.206E-01
DAV:   6    -0.122361725323E+04    0.23972E-03   -0.25207E-04   806   0.137E-02    0.109E-01
DAV:   7    -0.122361733832E+04   -0.85088E-04   -0.27654E-04   871   0.131E-02
  76 F= -.12539835E+04 E0= -.12539147E+04  d E =-.112109E-02
       N       E                     dE             d eps       ncg     rms          rms(c)
DAV:   1    -0.122361510080E+04    0.21524E-02   -0.96909E-01  1170   0.713E-01    0.273E-01
DAV:   2    -0.122361845471E+04   -0.33539E-02   -0.26450E-02  1755   0.144E-01    0.510E-01
DAV:   3    -0.122362220873E+04   -0.37540E-02   -0.15777E-02  1508   0.686E-02    0.138E+00
DAV:   4    -0.122361845044E+04    0.37583E-02   -0.61272E-03  1144   0.463E-02    0.399E-01
DAV:   5    -0.122361689260E+04    0.15578E-02   -0.10467E-03  1196   0.234E-02    0.222E-01
DAV:   6    -0.122361669548E+04    0.19713E-03   -0.10228E-03   923   0.177E-02    0.187E-01
DAV:   7    -0.122361666710E+04    0.28378E-04   -0.18808E-03   936   0.158E-02    0.161E-01
DAV:   8    -0.122361663963E+04    0.27464E-04   -0.15622E-03   793   0.119E-02    0.126E-01
DAV:   9    -0.122361657919E+04    0.60448E-04   -0.15298E-03   702   0.868E-03    0.960E-02
DAV:  10    -0.122361656389E+04    0.15299E-04   -0.83258E-04   702   0.690E-03
  77 F= -.12539838E+04 E0= -.12539166E+04  d E =-.140180E-02
       N       E                     dE             d eps       ncg     rms          rms(c)
DAV:   1    -0.122361610888E+04    0.47031E-03   -0.53760E-01  1170   0.508E-01    0.237E-01
DAV:   2    -0.122361748603E+04   -0.13771E-02   -0.15749E-02  1677   0.107E-01    0.277E-01
DAV:   3    -0.122362198776E+04   -0.45017E-02   -0.11037E-02  1300   0.528E-02    0.128E+00
DAV:   4    -0.122361844757E+04    0.35402E-02   -0.67523E-03  1040   0.431E-02    0.338E-01
DAV:   5    -0.122361725070E+04    0.11969E-02   -0.92869E-04   897   0.178E-02    0.178E-01
DAV:   6    -0.122361709789E+04    0.15280E-03   -0.10051E-03   728   0.122E-02    0.138E-01
DAV:   7    -0.122361708962E+04    0.82699E-05   -0.84768E-04   819   0.126E-02
  78 F= -.12539852E+04 E0= -.12539172E+04  d E =-.139304E-02
       N       E                     dE             d eps       ncg     rms          rms(c)
DAV:   1    -0.122361472856E+04    0.23693E-02   -0.11175E+00  1170   0.732E-01    0.365E-01
DAV:   2    -0.122361903607E+04   -0.43075E-02   -0.37703E-02  1742   0.160E-01    0.629E-01
DAV:   3    -0.122362590737E+04   -0.68713E-02   -0.28588E-02  1599   0.807E-02    0.182E+00
DAV:   4    -0.122361980528E+04    0.61021E-02   -0.13726E-02  1300   0.605E-02    0.477E-01
DAV:   5    -0.122361687314E+04    0.29321E-02   -0.32451E-03  1118   0.267E-02    0.236E-01
DAV:   6    -0.122361662853E+04    0.24462E-03   -0.36961E-03   832   0.158E-02    0.199E-01
DAV:   7    -0.122361662837E+04    0.15822E-06   -0.28425E-03   897   0.172E-02    0.171E-01
DAV:   8    -0.122361657857E+04    0.49799E-04   -0.18133E-03   806   0.132E-02    0.131E-01
DAV:   9    -0.122361651990E+04    0.58666E-04   -0.13987E-03   676   0.969E-03    0.866E-02
DAV:  10    -0.122361649850E+04    0.21409E-04   -0.82763E-04   663   0.689E-03
  79 F= -.12539858E+04 E0= -.12539189E+04  d E =-.206275E-02
       N       E                     dE             d eps       ncg     rms          rms(c)
DAV:   1    -0.122361541650E+04    0.11034E-02   -0.76425E-01  1170   0.622E-01    0.297E-01
DAV:   2    -0.122361812484E+04   -0.27083E-02   -0.23203E-02  1716   0.140E-01    0.448E-01
DAV:   3    -0.122362849429E+04   -0.10369E-01   -0.21423E-02  1560   0.806E-02    0.214E+00
DAV:   4    -0.122362084893E+04    0.76454E-02   -0.10426E-02  1222   0.570E-02    0.457E-01
DAV:   5    -0.122361751211E+04    0.33368E-02   -0.17726E-03   988   0.263E-02    0.292E-01
DAV:   6    -0.122361699106E+04    0.52105E-03   -0.56601E-04   871   0.178E-02    0.177E-01
DAV:   7    -0.122361707112E+04   -0.80064E-04   -0.87333E-04   858   0.158E-02
  80 F= -.12539876E+04 E0= -.12539186E+04  d E =-.181294E-02
       N       E                     dE             d eps       ncg     rms          rms(c)
DAV:   1    -0.122361606179E+04    0.92927E-03   -0.23099E-01  1170   0.342E-01    0.222E-01
DAV:   2    -0.122362176361E+04   -0.57018E-02   -0.22581E-02  1781   0.106E-01    0.768E-01
DAV:   3    -0.122361823788E+04    0.35257E-02   -0.24590E-02  1521   0.755E-02    0.705E-01
DAV:   4    -0.122361723464E+04    0.10032E-02   -0.44497E-03   975   0.315E-02    0.314E-01
DAV:   5    -0.122361655993E+04    0.67471E-03   -0.15693E-03   897   0.160E-02    0.169E-01
DAV:   6    -0.122361635660E+04    0.20333E-03   -0.14927E-03   715   0.120E-02    0.994E-02
DAV:   7    -0.122361649944E+04   -0.14283E-03   -0.16882E-03   819   0.123E-02    0.175E-01
DAV:   8    -0.122361637908E+04    0.12036E-03   -0.10633E-03   676   0.959E-03    0.489E-02
DAV:   9    -0.122361640246E+04   -0.23386E-04   -0.66942E-04   637   0.687E-03
  81 F= -.12539877E+04 E0= -.12539199E+04  d E =-.183094E-02
       N       E                     dE             d eps       ncg     rms          rms(c)
DAV:   1    -0.122361585153E+04    0.52755E-03   -0.42657E-01  1170   0.452E-01    0.203E-01
DAV:   2    -0.122361838502E+04   -0.25335E-02   -0.14051E-02  1742   0.103E-01    0.701E-01
DAV:   3    -0.122361839444E+04   -0.94178E-05   -0.70684E-03  1313   0.448E-02    0.473E-01
DAV:   4    -0.122361688527E+04    0.15092E-02   -0.13590E-03   949   0.276E-02    0.173E-01
DAV:   5    -0.122361670743E+04    0.17784E-03   -0.33165E-04   845   0.128E-02    0.140E-01
DAV:   6    -0.122361667284E+04    0.34583E-04   -0.27769E-04   910   0.140E-02
  82 F= -.12539888E+04 E0= -.12539212E+04  d E =-.112887E-02
       N       E                     dE             d eps       ncg     rms          rms(c)
DAV:   1    -0.122361561020E+04    0.10972E-02   -0.29454E-01  1170   0.377E-01    0.198E-01
DAV:   2    -0.122361709520E+04   -0.14850E-02   -0.11497E-02  1755   0.887E-02    0.409E-01
DAV:   3    -0.122361838103E+04   -0.12858E-02   -0.87430E-03  1261   0.446E-02    0.801E-01
DAV:   4    -0.122361676105E+04    0.16200E-02   -0.43762E-03  1066   0.343E-02    0.257E-01
DAV:   5    -0.122361617374E+04    0.58731E-03   -0.10865E-03   858   0.152E-02    0.111E-01
DAV:   6    -0.122361613049E+04    0.43248E-04   -0.13355E-03   715   0.917E-03    0.110E-01
DAV:   7    -0.122361611856E+04    0.11929E-04   -0.11074E-03   754   0.103E-02    0.629E-02
DAV:   8    -0.122361612799E+04   -0.94313E-05   -0.77787E-04   663   0.832E-03
  83 F= -.12539890E+04 E0= -.12539221E+04  d E =-.130514E-02
       N       E                     dE             d eps       ncg     rms          rms(c)
DAV:   1    -0.122361546301E+04    0.65555E-03   -0.49661E-01  1170   0.511E-01    0.203E-01
DAV:   2    -0.122362027978E+04   -0.48168E-02   -0.18504E-02  1729   0.111E-01    0.114E+00
DAV:   3    -0.122361803492E+04    0.22449E-02   -0.92122E-03  1248   0.507E-02    0.423E-01
DAV:   4    -0.122361658650E+04    0.14484E-02   -0.87259E-04   962   0.239E-02    0.227E-01
DAV:   5    -0.122361630318E+04    0.28331E-03   -0.37814E-04   897   0.144E-02    0.159E-01
DAV:   6    -0.122361630277E+04    0.41425E-06   -0.54628E-04   923   0.153E-02
  84 F= -.12539901E+04 E0= -.12539229E+04  d E =-.108435E-02
       N       E                     dE             d eps       ncg     rms          rms(c)
DAV:   1    -0.122361330896E+04    0.29942E-02   -0.12457E+00  1170   0.809E-01    0.331E-01
DAV:   2    -0.122361816968E+04   -0.48607E-02   -0.40364E-02  1742   0.168E-01    0.870E-01
DAV:   3    -0.122362139800E+04   -0.32283E-02   -0.27871E-02  1560   0.747E-02    0.779E-01
DAV:   4    -0.122361594583E+04    0.54522E-02   -0.10257E-02  1430   0.609E-02    0.316E-01
DAV:   5    -0.122361571488E+04    0.23095E-03   -0.12412E-03  1053   0.218E-02    0.316E-01
DAV:   6    -0.122361531445E+04    0.40043E-03   -0.16830E-03  1118   0.245E-02    0.170E-01
DAV:   7    -0.122361604000E+04   -0.72555E-03   -0.27948E-03   975   0.222E-02    0.416E-01
DAV:   8    -0.122361521397E+04    0.82603E-03   -0.25663E-03   923   0.220E-02    0.125E-01
DAV:   9    -0.122361535406E+04   -0.14009E-03   -0.23130E-03   728   0.108E-02    0.202E-01
DAV:  10    -0.122361514302E+04    0.21105E-03   -0.16114E-03   689   0.808E-03    0.736E-02
DAV:  11    -0.122361521923E+04   -0.76217E-04   -0.10255E-03   702   0.644E-03    0.134E-01
DAV:  12    -0.122361513656E+04    0.82677E-04   -0.56279E-04   663   0.479E-03
  85 F= -.12539903E+04 E0= -.12539238E+04  d E =-.137109E-02
       N       E                     dE             d eps       ncg     rms          rms(c)
DAV:   1    -0.122361507936E+04    0.13988E-03   -0.18321E-01  1170   0.304E-01    0.143E-01
DAV:   2    -0.122361689776E+04   -0.18184E-02   -0.78277E-03  1677   0.676E-02    0.651E-01
DAV:   3    -0.122361668395E+04    0.21381E-03   -0.62169E-03  1053   0.385E-02    0.412E-01
DAV:   4    -0.122361555944E+04    0.11245E-02   -0.92864E-04   845   0.218E-02    0.143E-01
DAV:   5    -0.122361543030E+04    0.12913E-03   -0.19414E-04   754   0.921E-03    0.119E-01
DAV:   6    -0.122361537814E+04    0.52165E-04   -0.13254E-04   767   0.106E-02
  86 F= -.12539912E+04 E0= -.12539245E+04  d E =-.843048E-03
       N       E                     dE             d eps       ncg     rms          rms(c)
DAV:   1    -0.122361276681E+04    0.26635E-02   -0.16411E+00  1170   0.909E-01    0.349E-01
DAV:   2    -0.122361644043E+04   -0.36736E-02   -0.38447E-02  1638   0.177E-01    0.519E-01
DAV:   3    -0.122362251837E+04   -0.60779E-02   -0.20687E-02  1599   0.803E-02    0.844E-01
DAV:   4    -0.122361572078E+04    0.67976E-02   -0.12155E-02  1482   0.663E-02    0.245E-01
DAV:   5    -0.122361582107E+04   -0.10029E-03   -0.14383E-03  1066   0.236E-02    0.339E-01
DAV:   6    -0.122361541750E+04    0.40357E-03   -0.99826E-04  1404   0.260E-02    0.235E-01
DAV:   7    -0.122361552833E+04   -0.11083E-03   -0.92876E-04   988   0.222E-02    0.270E-01
DAV:   8    -0.122361517284E+04    0.35548E-03   -0.38479E-04   715   0.102E-02    0.729E-02
DAV:   9    -0.122361529024E+04   -0.11740E-03   -0.41071E-04   715   0.884E-03    0.159E-01
DAV:  10    -0.122361517482E+04    0.11542E-03   -0.27303E-04   650   0.581E-03    0.745E-02
DAV:  11    -0.122361521285E+04   -0.38029E-04   -0.16353E-04   624   0.461E-03
  87 F= -.12539928E+04 E0= -.12539266E+04  d E =-.249083E-02
       N       E                     dE             d eps       ncg     rms          rms(c)
DAV:   1    -0.122360156372E+04    0.13611E-01   -0.65860E+00  1170   0.182E+00    0.704E-01
DAV:   2    -0.122362895461E+04   -0.27391E-01   -0.16837E-01  1638   0.350E-01    0.257E+00
DAV:   3    -0.122362734069E+04    0.16139E-02   -0.60777E-02  1833   0.145E-01    0.988E-01
DAV:   4    -0.122361689683E+04    0.10444E-01   -0.87492E-03  1625   0.717E-02    0.837E-01
DAV:   5    -0.122361430973E+04    0.25871E-02   -0.38768E-03  1638   0.422E-02    0.662E-01
DAV:   6    -0.122361522247E+04   -0.91275E-03   -0.99244E-03  1573   0.600E-02    0.951E-01
DAV:   7    -0.122361330599E+04    0.19165E-02   -0.50769E-03  1313   0.431E-02    0.417E-01
DAV:   8    -0.122361228240E+04    0.10236E-02   -0.12541E-03   988   0.264E-02    0.287E-01
DAV:   9    -0.122361195227E+04    0.33013E-03   -0.62392E-04   845   0.180E-02    0.219E-01
DAV:  10    -0.122361176669E+04    0.18558E-03   -0.39656E-04   767   0.136E-02    0.149E-01
DAV:  11    -0.122361167685E+04    0.89835E-04   -0.29008E-04   728   0.977E-03
  88 F= -.12539930E+04 E0= -.12539266E+04  d E =-.262020E-02
       N       E                     dE             d eps       ncg     rms          rms(c)
DAV:   1    -0.122361112640E+04    0.64029E-03   -0.18941E+00  1170   0.973E-01    0.396E-01
DAV:   2    -0.122362038554E+04   -0.92591E-02   -0.60605E-02  1638   0.215E-01    0.835E-01
DAV:   3    -0.122362253241E+04   -0.21469E-02   -0.38358E-02  1690   0.104E-01    0.171E+00
DAV:   4    -0.122361915298E+04    0.33794E-02   -0.12576E-02  1534   0.742E-02    0.609E-01
DAV:   5    -0.122361576364E+04    0.33893E-02   -0.28456E-03  1287   0.300E-02    0.483E-01
DAV:   6    -0.122361440086E+04    0.13628E-02   -0.16459E-03   923   0.241E-02    0.234E-01
DAV:   7    -0.122361493933E+04   -0.53847E-03   -0.11357E-03   975   0.243E-02    0.435E-01
DAV:   8    -0.122361428508E+04    0.65425E-03   -0.52186E-04   832   0.185E-02    0.122E-01
DAV:   9    -0.122361430141E+04   -0.16328E-04   -0.27329E-04   702   0.127E-02
  89 F= -.12539936E+04 E0= -.12539250E+04  d E =-.327175E-02
       N       E                     dE             d eps       ncg     rms          rms(c)
DAV:   1    -0.122361419105E+04    0.94031E-04   -0.24019E-01  1170   0.351E-01    0.170E-01
DAV:   2    -0.122361481317E+04   -0.62212E-03   -0.72652E-03  1742   0.791E-02    0.167E-01
DAV:   3    -0.122361520196E+04   -0.38878E-03   -0.25782E-03  1053   0.236E-02    0.356E-01
DAV:   4    -0.122361530546E+04   -0.10350E-03   -0.32959E-03   910   0.280E-02    0.318E-01
DAV:   5    -0.122361474520E+04    0.56025E-03   -0.99093E-04   793   0.183E-02    0.118E-01
DAV:   6    -0.122361471425E+04    0.30949E-04   -0.47438E-04   754   0.878E-03
  90 F= -.12539947E+04 E0= -.12539281E+04  d E =-.110500E-02
       N       E                     dE             d eps       ncg     rms          rms(c)
DAV:   1    -0.122361307452E+04    0.16707E-02   -0.68251E-01  1170   0.593E-01    0.297E-01
DAV:   2    -0.122362203323E+04   -0.89587E-02   -0.27792E-02  1755   0.141E-01    0.165E+00
DAV:   3    -0.122361810392E+04    0.39293E-02   -0.17783E-02  1560   0.731E-02    0.592E-01
DAV:   4    -0.122361484497E+04    0.32589E-02   -0.20871E-03  1066   0.305E-02    0.299E-01
DAV:   5    -0.122361451088E+04    0.33409E-03   -0.89423E-04  1001   0.183E-02    0.258E-01
DAV:   6    -0.122361443953E+04    0.71346E-04   -0.16318E-03   923   0.173E-02    0.211E-01
DAV:   7    -0.122361439357E+04    0.45963E-04   -0.24063E-03   858   0.179E-02    0.196E-01
DAV:   8    -0.122361424793E+04    0.14564E-03   -0.20892E-03   767   0.146E-02    0.101E-01
DAV:   9    -0.122361423638E+04    0.11552E-04   -0.15800E-03   650   0.794E-03    0.105E-01
DAV:  10    -0.122361418942E+04    0.46953E-04   -0.95377E-04   637   0.648E-03
  91 F= -.12539954E+04 E0= -.12539283E+04  d E =-.175516E-02
       N       E                     dE             d eps       ncg     rms          rms(c)
DAV:   1    -0.122361391646E+04    0.31992E-03   -0.28518E-01  1170   0.394E-01    0.193E-01
DAV:   2    -0.122361475547E+04   -0.83901E-03   -0.94081E-03  1729   0.876E-02    0.265E-01
DAV:   3    -0.122361717960E+04   -0.24241E-02   -0.94706E-03  1235   0.452E-02    0.594E-01
DAV:   4    -0.122361475350E+04    0.24261E-02   -0.58353E-03  1105   0.414E-02    0.215E-01
DAV:   5    -0.122361458379E+04    0.16971E-03   -0.38123E-04   793   0.115E-02    0.161E-01
DAV:   6    -0.122361452134E+04    0.62455E-04   -0.43384E-04   702   0.105E-02
  92 F= -.12539965E+04 E0= -.12539308E+04  d E =-.109404E-02
       N       E                     dE             d eps       ncg     rms          rms(c)
DAV:   1    -0.122361027208E+04    0.43117E-02   -0.15475E+00  1170   0.919E-01    0.449E-01
DAV:   2    -0.122361495382E+04   -0.46817E-02   -0.42779E-02  1716   0.199E-01    0.531E-01
DAV:   3    -0.122363958139E+04   -0.24628E-01   -0.37776E-02  1651   0.118E-01    0.342E+00
DAV:   4    -0.122362259274E+04    0.16989E-01   -0.19097E-02  1378   0.807E-02    0.633E-01
DAV:   5    -0.122361390552E+04    0.86872E-02   -0.39088E-03  1209   0.385E-02    0.328E-01
DAV:   6    -0.122361353386E+04    0.37166E-03   -0.14343E-03  1131   0.257E-02    0.315E-01
DAV:   7    -0.122361317569E+04    0.35816E-03   -0.31662E-03   936   0.201E-02    0.199E-01
DAV:   8    -0.122361322614E+04   -0.50447E-04   -0.33204E-03   858   0.160E-02    0.203E-01
DAV:   9    -0.122361303837E+04    0.18777E-03   -0.26266E-03   754   0.120E-02    0.123E-01
DAV:  10    -0.122361302722E+04    0.11149E-04   -0.16225E-03   663   0.903E-03    0.102E-01
DAV:  11    -0.122361296526E+04    0.61953E-04   -0.93852E-04   650   0.602E-03
  93 F= -.12539967E+04 E0= -.12539298E+04  d E =-.133055E-02
       N       E                     dE             d eps       ncg     rms          rms(c)
DAV:   1    -0.122361346832E+04   -0.44110E-03   -0.18830E-01  1170   0.320E-01    0.156E-01
DAV:   2    -0.122361400889E+04   -0.54057E-03   -0.59693E-03  1703   0.721E-02    0.194E-01
DAV:   3    -0.122361598558E+04   -0.19767E-02   -0.51824E-03  1066   0.345E-02    0.795E-01
DAV:   4    -0.122361437570E+04    0.16099E-02   -0.33239E-03   975   0.329E-02    0.238E-01
DAV:   5    -0.122361389966E+04    0.47603E-03   -0.37526E-04   780   0.116E-02    0.112E-01
DAV:   6    -0.122361384518E+04    0.54485E-04   -0.37117E-04   689   0.845E-03
  94 F= -.12539970E+04 E0= -.12539307E+04  d E =-.158609E-02
       N       E                     dE             d eps       ncg     rms          rms(c)
DAV:   1    -0.122361405515E+04   -0.15549E-03   -0.47141E-02  1170   0.162E-01    0.972E-02
DAV:   2    -0.122361455971E+04   -0.50457E-03   -0.20678E-03  1534   0.406E-02    0.306E-01
DAV:   3    -0.122361492271E+04   -0.36300E-03   -0.25090E-03   897   0.252E-02    0.454E-01
DAV:   4    -0.122361440168E+04    0.52103E-03   -0.13067E-03   793   0.212E-02    0.192E-01
DAV:   5    -0.122361419995E+04    0.20173E-03   -0.14558E-04   702   0.859E-03    0.119E-01
DAV:   6    -0.122361412412E+04    0.75832E-04   -0.87565E-05   676   0.705E-03
[...]
DAV:   1    -0.122359988910E+04    0.83368E-03   -0.32809E-01  1170   0.402E-01    0.196E-01
DAV:   2    -0.122360117409E+04   -0.12850E-02   -0.11013E-02  1703   0.869E-02    0.362E-01
DAV:   3    -0.122360424953E+04   -0.30754E-02   -0.11368E-02  1287   0.532E-02    0.108E+00
DAV:   4    -0.122360152535E+04    0.27242E-02   -0.51891E-03  1092   0.401E-02    0.279E-01
DAV:   5    -0.122360072408E+04    0.80127E-03   -0.54699E-04   858   0.161E-02    0.206E-01
DAV:   6    -0.122360045161E+04    0.27247E-03   -0.19398E-04   728   0.122E-02    0.865E-02
DAV:   7    -0.122360057984E+04   -0.12824E-03   -0.25975E-04   754   0.115E-02    0.159E-01
DAV:   8    -0.122360043516E+04    0.14469E-03   -0.26146E-04   663   0.979E-03    0.519E-02
DAV:   9    -0.122360049370E+04   -0.58543E-04   -0.16510E-04   663   0.726E-03
 439 F= -.12540505E+04 E0= -.12539840E+04  d E =-.479216E-03
       N       E                     dE             d eps       ncg     rms          rms(c)
DAV:   1    -0.122359893953E+04    0.14956E-02   -0.54451E-01  1170   0.518E-01    0.245E-01
DAV:   2    -0.122360288986E+04   -0.39503E-02   -0.21801E-02  1729   0.124E-01    0.647E-01
DAV:   3    -0.122360329948E+04   -0.40961E-03   -0.19182E-02  1521   0.746E-02    0.101E+00
DAV:   4    -0.122360135548E+04    0.19440E-02   -0.55928E-03  1118   0.429E-02    0.383E-01
DAV:   5    -0.122360023278E+04    0.11227E-02   -0.83148E-04   897   0.191E-02    0.257E-01
DAV:   6    -0.122359983851E+04    0.39427E-03   -0.45027E-04   858   0.162E-02    0.126E-01
DAV:   7    -0.122360004641E+04   -0.20790E-03   -0.39833E-04   806   0.157E-02    0.244E-01
DAV:   8    -0.122359979347E+04    0.25294E-03   -0.34491E-04   728   0.122E-02    0.696E-02
DAV:   9    -0.122359984511E+04   -0.51638E-04   -0.21783E-04   676   0.852E-03
 440 F= -.12540507E+04 E0= -.12539837E+04  d E =-.717479E-03
       N       E                     dE             d eps       ncg     rms          rms(c)
DAV:   1    -0.122359950494E+04    0.28853E-03   -0.16311E-01  1170   0.297E-01    0.138E-01
DAV:   2    -0.122360154409E+04   -0.20392E-02   -0.84713E-03  1768   0.770E-02    0.486E-01
DAV:   3    -0.122360044577E+04    0.10983E-02   -0.68999E-03  1300   0.459E-02    0.389E-01
DAV:   4    -0.122360000890E+04    0.43687E-03   -0.83169E-04   806   0.191E-02    0.175E-01
DAV:   5    -0.122359987724E+04    0.13166E-03   -0.16978E-04   754   0.995E-03    0.130E-01
DAV:   6    -0.122359979713E+04    0.80107E-04   -0.23153E-04   702   0.112E-02
 441 F= -.12540511E+04 E0= -.12539848E+04  d E =-.364216E-03
       N       E                     dE             d eps       ncg     rms          rms(c)
DAV:   1    -0.122359675343E+04    0.31238E-02   -0.14630E+00  1170   0.891E-01    0.404E-01
DAV:   2    -0.122360891455E+04   -0.12161E-01   -0.60404E-02  1768   0.219E-01    0.995E-01
DAV:   3    -0.122360408385E+04    0.48307E-02   -0.46957E-02  1690   0.127E-01    0.121E+00
DAV:   4    -0.122360351764E+04    0.56621E-03   -0.12713E-02  1313   0.651E-02    0.631E-01
DAV:   5    -0.122360020710E+04    0.33105E-02   -0.31328E-03  1365   0.357E-02    0.425E-01
DAV:   6    -0.122359922091E+04    0.98619E-03   -0.19439E-03  1092   0.252E-02    0.201E-01
DAV:   7    -0.122359980666E+04   -0.58574E-03   -0.92971E-04  1040   0.223E-02    0.446E-01
DAV:   8    -0.122359907110E+04    0.73556E-03   -0.10006E-03   910   0.197E-02    0.976E-02
DAV:   9    -0.122359911825E+04   -0.47154E-04   -0.45451E-04   715   0.118E-02
 442 F= -.12540517E+04 E0= -.12539842E+04  d E =-.927860E-03
       N       E                     dE             d eps       ncg     rms          rms(c)
DAV:   1    -0.122359852868E+04    0.54242E-03   -0.21652E-01  1170   0.339E-01    0.149E-01
DAV:   2    -0.122360017832E+04   -0.16496E-02   -0.84232E-03  1755   0.781E-02    0.425E-01
DAV:   3    -0.122359985861E+04    0.31971E-03   -0.65697E-03  1339   0.451E-02    0.490E-01
DAV:   4    -0.122359918703E+04    0.67158E-03   -0.14646E-03   949   0.242E-02    0.188E-01
DAV:   5    -0.122359898765E+04    0.19938E-03   -0.20596E-04   767   0.114E-02    0.128E-01
DAV:   6    -0.122359890794E+04    0.79709E-04   -0.26199E-04   715   0.104E-02
 443 F= -.12540519E+04 E0= -.12539857E+04  d E =-.237359E-03
       N       E                     dE             d eps       ncg     rms          rms(c)
DAV:   1    -0.122359465213E+04    0.43355E-02   -0.19410E+00  1170   0.102E+00    0.442E-01
DAV:   2    -0.122361108195E+04   -0.16430E-01   -0.85327E-02  1794   0.256E-01    0.102E+00
DAV:   3    -0.122360105837E+04    0.10024E-01   -0.60364E-02  1729   0.162E-01    0.966E-01
DAV:   4    -0.122360124420E+04   -0.18583E-03   -0.86172E-03  1443   0.594E-02    0.623E-01
DAV:   5    -0.122359929849E+04    0.19457E-02   -0.13814E-03  1287   0.289E-02    0.478E-01
DAV:   6    -0.122359807807E+04    0.12204E-02   -0.29535E-03  1495   0.413E-02    0.290E-01
DAV:   7    -0.122359806545E+04    0.12621E-04   -0.17636E-03  1092   0.251E-02    0.318E-01
DAV:   8    -0.122359770536E+04    0.36009E-03   -0.20680E-03   819   0.157E-02    0.146E-01
DAV:   9    -0.122359773480E+04   -0.29441E-04   -0.16509E-03   715   0.143E-02    0.184E-01
DAV:  10    -0.122359760530E+04    0.12950E-03   -0.13307E-03   676   0.965E-03    0.976E-02
DAV:  11    -0.122359760232E+04    0.29869E-05   -0.85629E-04   676   0.801E-03
 444 F= -.12540519E+04 E0= -.12539857E+04  d E =-.283106E-03
       N       E                     dE             d eps       ncg     rms          rms(c)
DAV:   1    -0.122359782839E+04   -0.22309E-03   -0.31732E-01  1170   0.411E-01    0.171E-01
DAV:   2    -0.122359884268E+04   -0.10143E-02   -0.91405E-03  1768   0.843E-02    0.330E-01
DAV:   3    -0.122360014427E+04   -0.13016E-02   -0.67731E-03  1300   0.447E-02    0.482E-01
DAV:   4    -0.122359848605E+04    0.16582E-02   -0.30171E-03  1040   0.332E-02    0.147E-01
DAV:   5    -0.122359840562E+04    0.80427E-04   -0.18666E-04   780   0.103E-02
 445 F= -.12540522E+04 E0= -.12539874E+04  d E =-.539927E-03
       N       E                     dE             d eps       ncg     rms          rms(c)
DAV:   1    -0.122359853119E+04   -0.45135E-04   -0.23110E-01  1170   0.352E-01    0.187E-01
DAV:   2    -0.122360207333E+04   -0.35421E-02   -0.10065E-02  1781   0.832E-02    0.943E-01
DAV:   3    -0.122360034036E+04    0.17330E-02   -0.91631E-03  1378   0.564E-02    0.435E-01
DAV:   4    -0.122359887082E+04    0.14695E-02   -0.16059E-03   988   0.245E-02    0.128E-01
DAV:   5    -0.122359885027E+04    0.20551E-04   -0.83920E-04   754   0.119E-02
 446 F= -.12540522E+04 E0= -.12539877E+04  d E =-.517957E-03
       N       E                     dE             d eps       ncg     rms          rms(c)
DAV:   1    -0.122359894754E+04   -0.76713E-04   -0.21287E-02  1170   0.106E-01    0.893E-02
DAV:   2    -0.122359936184E+04   -0.41431E-03   -0.47410E-03  1261   0.281E-02    0.283E-01
DAV:   3    -0.122359938715E+04   -0.25306E-04   -0.57980E-03   871   0.188E-02    0.265E-01
DAV:   4    -0.122359919378E+04    0.19337E-03   -0.27491E-03   767   0.171E-02    0.174E-01
DAV:   5    -0.122359906344E+04    0.13034E-03   -0.10894E-03   689   0.865E-03    0.985E-02
DAV:   6    -0.122359901261E+04    0.50835E-04   -0.51918E-04   676   0.692E-03
 447 F= -.12540525E+04 E0= -.12539870E+04  d E =-.283623E-03
       N       E                     dE             d eps       ncg     rms          rms(c)
DAV:   1    -0.122359886825E+04    0.19520E-03   -0.53630E-02  1170   0.173E-01    0.706E-02
DAV:   2    -0.122359919741E+04   -0.32916E-03   -0.20502E-03  1612   0.380E-02    0.206E-01
DAV:   3    -0.122359912702E+04    0.70383E-04   -0.12493E-03   936   0.203E-02    0.196E-01
DAV:   4    -0.122359900739E+04    0.11963E-03   -0.29513E-04   754   0.124E-02    0.941E-02
DAV:   5    -0.122359896920E+04    0.38196E-04   -0.44897E-05   676   0.597E-03
 448 F= -.12540526E+04 E0= -.12539869E+04  d E =-.441206E-03
       N       E                     dE             d eps       ncg     rms          rms(c)
DAV:   1    -0.122359900597E+04    0.14282E-05   -0.32890E-02  1170   0.141E-01    0.965E-02
DAV:   2    -0.122359953970E+04   -0.53373E-03   -0.12147E-03  1456   0.338E-02    0.286E-01
DAV:   3    -0.122359965971E+04   -0.12001E-03   -0.24506E-03  1092   0.322E-02    0.399E-01
DAV:   4    -0.122359911449E+04    0.54522E-03   -0.87723E-04   910   0.204E-02    0.924E-02
DAV:   5    -0.122359902570E+04    0.88792E-04   -0.73641E-05   676   0.815E-03
 449 F= -.12540529E+04 E0= -.12539866E+04  d E =-.243827E-03
       N       E                     dE             d eps       ncg     rms          rms(c)
DAV:   1    -0.122359891955E+04    0.19495E-03   -0.12215E-02  1157   0.867E-02    0.596E-02
DAV:   2    -0.122359900753E+04   -0.87987E-04   -0.93842E-04   975   0.187E-02
 450 F= -.12540530E+04 E0= -.12539873E+04  d E =-.340767E-03
       N       E                     dE             d eps       ncg     rms          rms(c)
DAV:   1    -0.122359897982E+04   -0.60279E-04   -0.33085E-03  1118   0.388E-02    0.753E-02
DAV:   2    -0.122359932816E+04   -0.34834E-03   -0.37577E-03   832   0.106E-02    0.262E-01
DAV:   3    -0.122359906527E+04    0.26289E-03   -0.48158E-03   702   0.104E-02    0.109E-01
DAV:   4    -0.122359910485E+04   -0.39581E-04   -0.24247E-03   715   0.990E-03    0.139E-01
DAV:   5    -0.122359898141E+04    0.12344E-03   -0.11889E-03   676   0.707E-03    0.373E-02
DAV:   6    -0.122359900197E+04   -0.20555E-04   -0.35770E-04   650   0.473E-03
 451 F= -.12540529E+04 E0= -.12539874E+04  d E =-.286138E-03
       N       E                     dE             d eps       ncg     rms          rms(c)
DAV:   1    -0.122359906431E+04   -0.82897E-04   -0.61801E-03  1105   0.507E-02    0.282E-02
DAV:   2    -0.122359925060E+04   -0.18629E-03   -0.63549E-04   871   0.156E-02    0.192E-01
DAV:   3    -0.122359910131E+04    0.14928E-03   -0.40640E-04   715   0.109E-02    0.549E-02
DAV:   4    -0.122359909652E+04    0.47958E-05   -0.42527E-05   637   0.486E-03
 452 F= -.12540530E+04 E0= -.12539868E+04  d E =-.117458E-03
       N       E                     dE             d eps       ncg     rms          rms(c)
DAV:   1    -0.122359908171E+04    0.19599E-04   -0.15755E-03   884   0.261E-02    0.245E-02
DAV:   2    -0.122359921882E+04   -0.13711E-03   -0.29016E-04   780   0.125E-02    0.150E-01
DAV:   3    -0.122359909417E+04    0.12466E-03   -0.25664E-04   702   0.108E-02    0.529E-02
DAV:   4    -0.122359908431E+04    0.98520E-05   -0.16542E-05   611   0.347E-03
 453 F= -.12540530E+04 E0= -.12539877E+04  d E =-.117116E-03
       N       E                     dE             d eps       ncg     rms          rms(c)
DAV:   1    -0.122359909570E+04   -0.15367E-05   -0.19291E-03  1105   0.323E-02    0.219E-02
DAV:   2    -0.122359911440E+04   -0.18701E-04   -0.17803E-04   780   0.843E-03
 454 F= -.12540531E+04 E0= -.12539881E+04  d E =-.574268E-04
       N       E                     dE             d eps       ncg     rms          rms(c)
DAV:   1    -0.122359911453E+04   -0.18829E-04   -0.68221E-04   884   0.178E-02    0.777E-02
DAV:   2    -0.122360231654E+04   -0.32020E-02   -0.70446E-03  1235   0.457E-02    0.616E-01
DAV:   3    -0.122359923898E+04    0.30776E-02   -0.58014E-03  1144   0.425E-02    0.101E-01
DAV:   4    -0.122359914778E+04    0.91203E-04   -0.33357E-04   728   0.897E-03
 455 F= -.12540531E+04 E0= -.12539887E+04  d E =-.104220E-03
       N       E                     dE             d eps       ncg     rms          rms(c)
DAV:   1    -0.122359909196E+04    0.14703E-03   -0.16029E-03  1092   0.281E-02    0.418E-02
DAV:   2    -0.122359966945E+04   -0.57750E-03   -0.10475E-03   871   0.182E-02    0.360E-01
DAV:   3    -0.122359918586E+04    0.48359E-03   -0.11285E-03   832   0.202E-02    0.128E-01
DAV:   4    -0.122359908501E+04    0.10085E-03   -0.10708E-04   637   0.606E-03    0.330E-02
DAV:   5    -0.122359908837E+04   -0.33559E-05   -0.64119E-05   624   0.296E-03
 456 F= -.12540531E+04 E0= -.12539877E+04  d E =0.269952E-04
       N       E                     dE             d eps       ncg     rms          rms(c)
DAV:   1    -0.122359905586E+04    0.29149E-04   -0.21546E-03  1105   0.331E-02    0.258E-02
DAV:   2    -0.122359927131E+04   -0.21545E-03   -0.45757E-04   845   0.144E-02    0.216E-01
DAV:   3    -0.122359908704E+04    0.18427E-03   -0.40798E-04   702   0.116E-02    0.604E-02
DAV:   4    -0.122359906772E+04    0.19316E-04   -0.45343E-05   637   0.398E-03
 457 F= -.12540531E+04 E0= -.12539874E+04  d E =0.784543E-05
       N       E                     dE             d eps       ncg     rms          rms(c)
DAV:   1    -0.122359906474E+04    0.22302E-04   -0.58121E-04   910   0.165E-02    0.276E-02
DAV:   2    -0.122359909484E+04   -0.30104E-04   -0.12701E-04   611   0.543E-03
 458 F= -.12540532E+04 E0= -.12539873E+04  d E =-.548154E-04
       N       E                     dE             d eps       ncg     rms          rms(c)
DAV:   1    -0.122359902328E+04    0.41462E-04   -0.50601E-03  1105   0.489E-02    0.528E-02
DAV:   2    -0.122360025893E+04   -0.12356E-02   -0.18177E-03   988   0.257E-02    0.572E-01
DAV:   3    -0.122359927742E+04    0.98151E-03   -0.19057E-03   936   0.250E-02    0.146E-01
DAV:   4    -0.122359913038E+04    0.14704E-03   -0.15585E-04   689   0.911E-03    0.122E-01
DAV:   5    -0.122359900946E+04    0.12092E-03   -0.50066E-05   663   0.597E-03    0.341E-02
DAV:   6    -0.122359905211E+04   -0.42652E-04   -0.33929E-05   650   0.486E-03
 459 F= -.12540532E+04 E0= -.12539873E+04  d E =-.952415E-04
       N       E                     dE             d eps       ncg     rms          rms(c)
DAV:   1    -0.122359876448E+04    0.24498E-03   -0.19401E-02  1157   0.963E-02    0.464E-02
DAV:   2    -0.122359892429E+04   -0.15981E-03   -0.10251E-03   923   0.227E-02    0.161E-01
DAV:   3    -0.122359889566E+04    0.28634E-04   -0.77363E-04   741   0.149E-02
 460 F= -.12540532E+04 E0= -.12539900E+04  d E =-.105485E-03
       N       E                     dE             d eps       ncg     rms          rms(c)
DAV:   1    -0.122359898310E+04   -0.58815E-04   -0.88769E-03  1144   0.654E-02    0.849E-02
DAV:   2    -0.122360227089E+04   -0.32878E-02   -0.61326E-03  1209   0.452E-02    0.623E-01
DAV:   3    -0.122359913957E+04    0.31313E-02   -0.59810E-03  1170   0.447E-02    0.116E-01
DAV:   4    -0.122359906279E+04    0.76781E-04   -0.29157E-04   754   0.106E-02
 461 F= -.12540533E+04 E0= -.12539887E+04  d E =-.161977E-03
       N       E                     dE             d eps       ncg     rms          rms(c)
DAV:   1    -0.122359896924E+04    0.17033E-03   -0.90470E-04  1027   0.214E-02    0.518E-02
DAV:   2    -0.122359984364E+04   -0.87440E-03   -0.14868E-03   858   0.211E-02    0.449E-01
DAV:   3    -0.122359913761E+04    0.70603E-03   -0.17916E-03   871   0.245E-02    0.166E-01
DAV:   4    -0.122359896330E+04    0.17431E-03   -0.20509E-04   663   0.746E-03    0.393E-02
DAV:   5    -0.122359896240E+04    0.90236E-06   -0.12731E-04   650   0.325E-03
 462 F= -.12540532E+04 E0= -.12539880E+04  d E =0.700109E-04
       N       E                     dE             d eps       ncg     rms          rms(c)
DAV:   1    -0.122359892496E+04    0.38346E-04   -0.16390E-03  1105   0.284E-02    0.256E-02
DAV:   2    -0.122359908209E+04   -0.15714E-03   -0.47927E-04   806   0.124E-02    0.179E-01
DAV:   3    -0.122359896582E+04    0.11627E-03   -0.48179E-04   702   0.113E-02    0.790E-02
DAV:   4    -0.122359893654E+04    0.29278E-04   -0.60306E-05   637   0.443E-03
 463 F= -.12540532E+04 E0= -.12539875E+04  d E =0.508770E-04
       N       E                     dE             d eps       ncg     rms          rms(c)
DAV:   1    -0.122359885707E+04    0.10875E-03   -0.64251E-03  1118   0.564E-02    0.491E-02
DAV:   2    -0.122359909021E+04   -0.23314E-03   -0.89899E-04   858   0.172E-02    0.230E-01
DAV:   3    -0.122359905639E+04    0.33824E-04   -0.12549E-03   806   0.173E-02    0.188E-01
DAV:   4    -0.122359889570E+04    0.16069E-03   -0.28360E-04   702   0.106E-02    0.674E-02
DAV:   5    -0.122359886329E+04    0.32409E-04   -0.37024E-05   637   0.402E-03
 464 F= -.12540533E+04 E0= -.12539879E+04  d E =0.340716E-04
       N       E                     dE             d eps       ncg     rms          rms(c)
DAV:   1    -0.122359888215E+04    0.13548E-04   -0.13097E-03  1066   0.254E-02    0.207E-02
DAV:   2    -0.122359891226E+04   -0.30117E-04   -0.60071E-05   728   0.674E-03
 465 F= -.12540533E+04 E0= -.12539878E+04  d E =-.770122E-04
       N       E                     dE             d eps       ncg     rms          rms(c)
DAV:   1    -0.122359886242E+04    0.19727E-04   -0.57214E-03  1105   0.520E-02    0.287E-02
DAV:   2    -0.122359891355E+04   -0.51133E-04   -0.27434E-04   806   0.134E-02
 466 F= -.12540534E+04 E0= -.12539874E+04  d E =-.136105E-03
       N       E                     dE             d eps       ncg     rms          rms(c)
DAV:   1    -0.122359887447E+04   -0.12052E-04   -0.41021E-04   832   0.135E-02    0.531E-02
DAV:   2    -0.122360113336E+04   -0.22589E-02   -0.32277E-03  1027   0.315E-02    0.803E-01
DAV:   3    -0.122359922682E+04    0.19065E-02   -0.25673E-03   988   0.291E-02    0.141E-01
DAV:   4    -0.122359889755E+04    0.32927E-03   -0.27713E-04   715   0.943E-03    0.592E-02
DAV:   5    -0.122359888720E+04    0.10352E-04   -0.16703E-04   637   0.537E-03
 467 F= -.12540534E+04 E0= -.12539880E+04  d E =-.121184E-03
       N       E                     dE             d eps       ncg     rms          rms(c)
DAV:   1    -0.122359887311E+04    0.24445E-04   -0.10284E-03  1014   0.226E-02    0.336E-02
DAV:   2    -0.122359895220E+04   -0.79093E-04   -0.19228E-04   702   0.753E-03
 468 F= -.12540535E+04 E0= -.12539872E+04  d E =-.100819E-03
       N       E                     dE             d eps       ncg     rms          rms(c)
DAV:   1    -0.122359886464E+04    0.84694E-05   -0.41330E-03  1157   0.455E-02    0.878E-02
DAV:   2    -0.122360587251E+04   -0.70079E-02   -0.82847E-03  1261   0.501E-02    0.155E+00
DAV:   3    -0.122360036008E+04    0.55124E-02   -0.64911E-03  1235   0.484E-02    0.264E-01
DAV:   4    -0.122359892154E+04    0.14385E-02   -0.73004E-04   910   0.170E-02    0.808E-02
DAV:   5    -0.122359888581E+04    0.35731E-04   -0.15397E-04   676   0.846E-03
 469 F= -.12540535E+04 E0= -.12539886E+04  d E =-.104690E-03
       N       E                     dE             d eps       ncg     rms          rms(c)
DAV:   1    -0.122359882359E+04    0.97949E-04   -0.12654E-03  1040   0.249E-02    0.366E-02
DAV:   2    -0.122359893354E+04   -0.10995E-03   -0.18297E-04   689   0.754E-03    0.134E-01
DAV:   3    -0.122359882061E+04    0.11294E-03   -0.19310E-04   624   0.578E-03    0.468E-02
DAV:   4    -0.122359887563E+04   -0.55019E-04   -0.13769E-04   624   0.522E-03
 470 F= -.12540535E+04 E0= -.12539889E+04  d E =-.287107E-04
       N       E                     dE             d eps       ncg     rms          rms(c)
DAV:   1    -0.122359875733E+04    0.63278E-04   -0.79423E-03  1118   0.619E-02    0.405E-02
DAV:   2    -0.122359927883E+04   -0.52150E-03   -0.88685E-04   897   0.229E-02    0.295E-01
DAV:   3    -0.122359881053E+04    0.46829E-03   -0.81447E-04   858   0.182E-02    0.684E-02
DAV:   4    -0.122359882987E+04   -0.19342E-04   -0.70394E-05   637   0.655E-03
 471 F= -.12540536E+04 E0= -.12539888E+04  d E =-.829628E-04
       N       E                     dE             d eps       ncg     rms          rms(c)
DAV:   1    -0.122359876222E+04    0.48308E-04   -0.26395E-03  1118   0.340E-02    0.303E-02
DAV:   2    -0.122359921615E+04   -0.45393E-03   -0.68774E-04   871   0.181E-02    0.318E-01
DAV:   3    -0.122359881851E+04    0.39764E-03   -0.57998E-04   741   0.157E-02    0.737E-02
DAV:   4    -0.122359877132E+04    0.47183E-04   -0.37432E-05   650   0.466E-03
 472 F= -.12540535E+04 E0= -.12539880E+04  d E =0.189699E-04
