basalPlane                              
           1
    15.900000    0.000000    0.000000
    -7.950000   13.769804    0.000000
     0.000000    0.000000   32.380000
   C    Cr   H    Mo   S 
  10   1  10  50 100
Direct configuration=     1
   0.09737221  0.08546407  0.94977437
   0.09359656  0.99427661  0.95184496
   0.12922344  0.13264443  0.98880103
   0.14589977  0.07007785  0.01558703
   0.12336322  0.98370053  0.99238662
   0.85044056  0.90114274  0.98655372
   0.91147792  0.92750097  0.05349517
   0.88361852  0.86214581  0.01891319
   0.89533961  0.00521284  0.04267710
   0.85821787  0.98965940  0.00167164
   0.99848448  0.99678465  0.99972515
   0.12933546  0.92230075  0.00341514
   0.88473052  0.79436961  0.01782220
   0.82245732  0.86842607  0.95652422
   0.94113221  0.91992652  0.08260889
   0.91345968  0.06847142  0.06170800
   0.06891652  0.94035984  0.92732271
   0.07506632  0.11238748  0.92351201
   0.13848577  0.20320036  0.99685515
   0.17343645  0.08638403  0.04703399
   0.84129301  0.03812413  0.98446358
   0.60000000  0.60000000  0.65735022
   0.20000000  0.80000000  0.21911674
   0.20000000  0.60000000  0.65735022
   0.60000000  0.80000000  0.21911674
   0.20000000  0.60000000  0.21911674
   0.60000000  0.80000000  0.65735022
   0.20000000  0.40000000  0.21911674
   0.80000000  0.00000000  0.21911674
   0.20000000  0.20000000  0.65735022
   0.80000000  0.00000000  0.65735022
   0.20000000  0.20000000  0.21911674
   0.20000000  0.80000000  0.65735022
   0.20000000  0.40000000  0.65735022
   0.60000000  0.60000000  0.21911674
   0.40000000  0.60000000  0.21911674
   0.40000000  0.00000000  0.65735022
   0.60000000  0.40000000  0.65735022
   0.40000000  0.20000000  0.21911674
   0.60000000  0.40000000  0.21911674
   0.40000000  0.20000000  0.65735022
   0.40000000  0.40000000  0.21911674
   0.60000000  0.20000000  0.65735022
   0.40000000  0.40000000  0.65735022
   0.60000000  0.20000000  0.21911674
   0.40000000  0.80000000  0.65735022
   0.40000000  0.60000000  0.65735022
   0.60000000  0.00000000  0.65735022
   0.40000000  0.80000000  0.21911674
   0.60000000  0.00000000  0.21911674
   0.40000000  0.00000000  0.21911674
   0.80000000  0.20000000  0.21911674
   0.20000000  0.00000000  0.65735022
   0.20000000  0.00000000  0.21911674
   0.00000000  0.00000000  0.21911674
   0.80000000  0.80000000  0.65735022
   0.00000000  0.00000000  0.65735022
   0.80000000  0.80000000  0.21911674
   0.00000000  0.20000000  0.21911674
   0.00000000  0.20000000  0.65735022
   0.80000000  0.60000000  0.65735022
   0.00000000  0.40000000  0.21911674
   0.00000000  0.40000000  0.65735022
   0.00000000  0.60000000  0.21911674
   0.80000000  0.40000000  0.65735022
   0.00000000  0.60000000  0.65735022
   0.80000000  0.60000000  0.21911674
   0.80000000  0.40000000  0.21911674
   0.00000000  0.80000000  0.65735022
   0.00000000  0.80000000  0.21911674
   0.80000000  0.20000000  0.65735022
   0.93333333  0.06666667  0.16985794
   0.73333333  0.26666667  0.60809141
   0.73333333  0.26666667  0.70660902
   0.93333333  0.66666667  0.70660902
   0.93333333  0.66666667  0.60809141
   0.73333333  0.26666667  0.16985794
   0.73333333  0.26666667  0.26837554
   0.93333333  0.46666667  0.26837554
   0.73333333  0.06666667  0.60809141
   0.73333333  0.06666667  0.70660902
   0.93333333  0.06666667  0.70660902
   0.93333333  0.86666667  0.16985794
   0.73333333  0.06666667  0.16985794
   0.93333333  0.06666667  0.60809141
   0.73333333  0.06666667  0.26837554
   0.93333333  0.26666667  0.16985794
   0.93333333  0.26666667  0.70660902
   0.93333333  0.86666667  0.26837554
   0.73333333  0.46666667  0.26837554
   0.73333333  0.46666667  0.16985794
   0.73333333  0.86666667  0.16985794
   0.73333333  0.86666667  0.70660902
   0.73333333  0.86666667  0.26837554
   0.93333333  0.46666667  0.16985794
   0.73333333  0.86666667  0.60809141
   0.73333333  0.66666667  0.60809141
   0.73333333  0.66666667  0.70660902
   0.93333333  0.46666667  0.70660902
   0.73333333  0.66666667  0.16985794
   0.93333333  0.46666667  0.60809141
   0.73333333  0.66666667  0.26837554
   0.93333333  0.26666667  0.60809141
   0.93333333  0.26666667  0.26837554
   0.73333333  0.46666667  0.60809141
   0.73333333  0.46666667  0.70660902
   0.93333333  0.66666667  0.26837554
   0.93333333  0.06666667  0.26837554
   0.93333333  0.66666667  0.16985794
   0.53333333  0.86666667  0.60809141
   0.53333333  0.06666667  0.70660902
   0.53333333  0.86666667  0.16985794
   0.33333333  0.26666667  0.16985794
   0.33333333  0.26666667  0.26837554
   0.33333333  0.06666667  0.60809141
   0.33333333  0.06666667  0.70660902
   0.33333333  0.06666667  0.16985794
   0.33333333  0.06666667  0.26837554
   0.13333333  0.86666667  0.60809141
   0.13333333  0.86666667  0.70660902
   0.13333333  0.86666667  0.16985794
   0.13333333  0.86666667  0.26837554
   0.13333333  0.66666667  0.60809141
   0.13333333  0.66666667  0.70660902
   0.33333333  0.26666667  0.70660902
   0.13333333  0.66666667  0.16985794
   0.13333333  0.46666667  0.60809141
   0.13333333  0.46666667  0.70660902
   0.13333333  0.46666667  0.16985794
   0.13333333  0.46666667  0.26837554
   0.13333333  0.26666667  0.60809141
   0.13333333  0.26666667  0.70660902
   0.13333333  0.26666667  0.16985794
   0.13333333  0.26666667  0.26837554
   0.13333333  0.06666667  0.60809141
   0.13333333  0.06666667  0.70660902
   0.13333333  0.06666667  0.16985794
   0.13333333  0.06666667  0.26837554
   0.13333333  0.66666667  0.26837554
   0.33333333  0.26666667  0.60809141
   0.33333333  0.46666667  0.26837554
   0.33333333  0.46666667  0.16985794
   0.53333333  0.86666667  0.26837554
   0.53333333  0.66666667  0.60809141
   0.53333333  0.66666667  0.70660902
   0.53333333  0.66666667  0.16985794
   0.53333333  0.66666667  0.26837554
   0.53333333  0.46666667  0.60809141
   0.53333333  0.46666667  0.70660902
   0.53333333  0.46666667  0.16985794
   0.53333333  0.46666667  0.26837554
   0.53333333  0.26666667  0.60809141
   0.53333333  0.26666667  0.70660902
   0.53333333  0.26666667  0.16985794
   0.53333333  0.26666667  0.26837554
   0.53333333  0.06666667  0.60809141
   0.93333333  0.86666667  0.70660902
   0.53333333  0.06666667  0.16985794
   0.53333333  0.06666667  0.26837554
   0.33333333  0.86666667  0.60809141
   0.33333333  0.86666667  0.70660902
   0.33333333  0.86666667  0.16985794
   0.33333333  0.86666667  0.26837554
   0.33333333  0.66666667  0.60809141
   0.33333333  0.66666667  0.70660902
   0.33333333  0.66666667  0.16985794
   0.33333333  0.66666667  0.26837554
   0.33333333  0.46666667  0.60809141
   0.33333333  0.46666667  0.70660902
   0.53333333  0.86666667  0.70660902
   0.93333333  0.86666667  0.60809141
Direct configuration=     2
   0.09754875  0.08557423  0.94974106
   0.09367042  0.99428446  0.95180557
   0.12936499  0.13274925  0.98878975
   0.14608578  0.07015166  0.01559558
   0.12350526  0.98371812  0.99238104
   0.85028193  0.90105771  0.98653964
   0.91138988  0.92752309  0.05353219
   0.88350912  0.86207087  0.01895080
   0.89521473  0.00519799  0.04270695
   0.85805166  0.98958737  0.00170998
   0.99840309  0.99675105  0.99976080
   0.12929887  0.92228062  0.00341878
   0.88477439  0.79437184  0.01782451
   0.82249237  0.86843088  0.95652403
   0.94117145  0.91993927  0.08265711
   0.91345412  0.06846518  0.06173824
   0.06889563  0.94034457  0.92730951
   0.07504868  0.11239730  0.92350915
   0.13847431  0.20319318  0.99687213
   0.17339656  0.08635068  0.04706365
   0.84130317  0.03810571  0.98445790
   0.60001760  0.60001911  0.65735185
   0.20000306  0.80000200  0.21911390
   0.20000989  0.60000521  0.65735196
   0.60001242  0.80000601  0.21911710
   0.20000611  0.60000303  0.21911388
   0.60000155  0.80000106  0.65735186
   0.20000063  0.39999865  0.21911381
   0.79998948 -0.00002197  0.21910576
   0.20000366  0.20000112  0.65735389
   0.79999952  0.00000276  0.65735374
   0.19999752  0.20001006  0.21911142
   0.19999934  0.80000117  0.65735209
   0.19999925  0.39999866  0.65735199
   0.59999297  0.60000197  0.21911015
   0.39999714  0.60000073  0.21911524
   0.39998025 -0.00000094  0.65735197
   0.60000253  0.39999693  0.65735169
   0.39998892  0.19999426  0.21911507
   0.59999808  0.39999565  0.21911349
   0.39998948  0.19999505  0.65735134
   0.39999983  0.40000408  0.21910998
   0.60000256  0.20000610  0.65735166
   0.39998041  0.39998189  0.65735191
   0.59999864  0.20000221  0.21911345
   0.39999454  0.79998997  0.65735177
   0.39999450  0.60000501  0.65735168
   0.60001771 -0.00000088  0.65735185
   0.39999724  0.79999741  0.21911529
   0.59999271 -0.00000691  0.21910958
   0.39999826 -0.00000489  0.21910950
   0.80000129  0.19999024  0.21911756
   0.20000380  0.00000319  0.65735400
   0.19999885 -0.00000924  0.21911180
  -0.00000065 -0.00000030  0.21908766
   0.79999948  0.79999719  0.65735366
   0.00000057  0.00000053  0.65734477
   0.79998826  0.80001053  0.21910091
   0.00001426  0.20000563  0.21911805
  -0.00000226  0.20000094  0.65735375
   0.80000512  0.60001041  0.65735104
   0.00000748  0.40001097  0.21911095
   0.00000123  0.39998231  0.65735200
   0.00000826  0.59999818  0.21911137
   0.79999401  0.39999726  0.65735160
   0.00000140  0.60001954  0.65735202
   0.80000536  0.60001701  0.21911756
   0.79999613  0.39999798  0.21911441
  -0.00000217  0.79999722  0.65735376
   0.00001254  0.80000361  0.21911876
   0.80000516  0.19999531  0.65735103
   0.93331677  0.06665928  0.17069490
   0.73333329  0.26666690  0.60896583
   0.73333256  0.26666686  0.70573225
   0.93333353  0.66666644  0.70573290
   0.93333355  0.66666708  0.60896555
   0.73333067  0.26666537  0.17072723
   0.73333399  0.26666580  0.26750746
   0.93333074  0.46666571  0.26750721
   0.73333322  0.06666670  0.60896557
   0.73333211  0.06666663  0.70573287
   0.93333328  0.06666729  0.70573229
   0.93333290  0.86664636  0.17074728
   0.73333458  0.06666092  0.17072005
   0.93333343  0.06666678  0.60896609
   0.73333372  0.06666663  0.26750807
   0.93333014  0.26666319  0.17072280
   0.93333342  0.26666758  0.70573284
   0.93333411  0.86666904  0.26750974
   0.73333378  0.46666843  0.26750750
   0.73333156  0.46666798  0.17072691
   0.73334144  0.86667458  0.17070672
   0.73333244  0.86666646  0.70573264
   0.73333936  0.86666788  0.26750969
   0.93333053  0.46666686  0.17072723
   0.73333417  0.86666730  0.60896605
   0.73333328  0.66666712  0.60896552
   0.73333226  0.66666614  0.70573296
   0.93333288  0.46666673  0.70573264
   0.73332927  0.66666699  0.17071938
   0.93333246  0.46666646  0.60896588
   0.73333396  0.66666870  0.26750876
   0.93333348  0.26666698  0.60896557
   0.93333519  0.26666686  0.26750724
   0.73333324  0.46666681  0.60896582
   0.73333253  0.46666615  0.70573226
   0.93333602  0.66666978  0.26750729
   0.93333401  0.06666480  0.26750836
   0.93332867  0.66666080  0.17072217
   0.53333461  0.86666806  0.60896617
   0.53333292  0.06666718  0.70573294
   0.53333763  0.86666689  0.17072409
   0.33333414  0.26666674  0.17072464
   0.33333179  0.26666645  0.26750725
   0.33333309  0.06666665  0.60896542
   0.33333403  0.06666704  0.70573326
   0.33333377  0.06666771  0.17072446
   0.33333269  0.06666648  0.26750720
   0.13333279  0.86666729  0.60896594
   0.13333416  0.86666723  0.70573294
   0.13333570  0.86667001  0.17072031
   0.13332822  0.86666662  0.26750676
   0.13333211  0.66666699  0.60896619
   0.13333256  0.66666700  0.70573257
   0.33333409  0.26666740  0.70573327
   0.13333410  0.66666715  0.17072760
   0.13333211  0.46666562  0.60896615
   0.13333255  0.46666618  0.70573256
   0.13333510  0.46666810  0.17072761
   0.13333273  0.46666503  0.26750745
   0.13333281  0.26666596  0.60896593
   0.13333409  0.26666738  0.70573290
   0.13333293  0.26666530  0.17072198
   0.13333115  0.26666319  0.26750638
   0.13333303  0.06666677  0.60896605
   0.13333469  0.06666753  0.70573252
   0.13333958  0.06666719  0.17070413
   0.13333105  0.06666542  0.26750719
   0.13333283  0.66666844  0.26750710
   0.33333307  0.26666693  0.60896537
   0.33333255  0.46666556  0.26750793
   0.33333673  0.46666984  0.17072641
   0.53333435  0.86666777  0.26750790
   0.53333461  0.66666708  0.60896618
   0.53333393  0.66666646  0.70573261
   0.53333777  0.66667143  0.17072450
   0.53333444  0.66666719  0.26750744
   0.53333375  0.46666652  0.60896575
   0.53333300  0.46666624  0.70573293
   0.53333668  0.46666958  0.17072668
   0.53333485  0.46666607  0.26750771
   0.53333339  0.26666695  0.60896576
   0.53333297  0.26666674  0.70573248
   0.53333451  0.26666755  0.17072709
   0.53333136  0.26666594  0.26750763
   0.53333380  0.06666771  0.60896576
   0.93333326  0.86666639  0.70573227
   0.53333473  0.06666685  0.17072705
   0.53333442  0.06666880  0.26750763
   0.33333316  0.86666802  0.60896614
   0.33333372  0.86666848  0.70573275
   0.33333713  0.86666817  0.17072605
   0.33333253  0.86666770  0.26750801
   0.33333323  0.66666688  0.60896461
   0.33333346  0.66666703  0.70573433
   0.33333730  0.66666841  0.17072792
   0.33333309  0.66666655  0.26750855
   0.33333318  0.46666563  0.60896611
   0.33333378  0.46666584  0.70573275
   0.53333390  0.86666803  0.70573261
   0.93333339  0.86666711  0.60896612
Direct configuration=     3
   0.09757485  0.08559052  0.94973614
   0.09368133  0.99428562  0.95179975
   0.12938591  0.13276474  0.98878809
   0.14611328  0.07016257  0.01559685
   0.12352626  0.98372072  0.99238021
   0.85025848  0.90104514  0.98653756
   0.91137687  0.92752636  0.05353766
   0.88349294  0.86205979  0.01895636
   0.89519627  0.00519580  0.04271136
   0.85802709  0.98957672  0.00171565
   0.99839106  0.99674608  0.99976608
   0.12929346  0.92227764  0.00341931
   0.88478087  0.79437217  0.01782485
   0.82249755  0.86843159  0.95652400
   0.94117726  0.91994116  0.08266424
   0.91345330  0.06846426  0.06174271
   0.06889254  0.94034231  0.92730756
   0.07504607  0.11239875  0.92350872
   0.13847261  0.20319211  0.99687464
   0.17339066  0.08634575  0.04706803
   0.84130468  0.03810299  0.98445706
   0.60002020  0.60002193  0.65735209
   0.20000351  0.80000229  0.21911348
   0.20001136  0.60000598  0.65735222
   0.60001426  0.80000690  0.21911715
   0.20000702  0.60000347  0.21911346
   0.60000178  0.80000122  0.65735210
   0.20000073  0.39999845  0.21911338
   0.79998792 -0.00002522  0.21910414
   0.20000421  0.20000128  0.65735444
   0.79999944  0.00000316  0.65735427
   0.19999716  0.20001154  0.21911064
   0.19999924  0.80000134  0.65735237
   0.19999914  0.39999847  0.65735226
   0.59999193  0.60000226  0.21910917
   0.39999672  0.60000084  0.21911502
   0.39997733 -0.00000108  0.65735223
   0.60000290  0.39999648  0.65735191
   0.39998728  0.19999342  0.21911482
   0.59999780  0.39999500  0.21911301
   0.39998792  0.19999431  0.65735150
   0.39999980  0.40000469  0.21910898
   0.60000294  0.20000700  0.65735187
   0.39997751  0.39997921  0.65735216
   0.59999844  0.20000254  0.21911296
   0.39999373  0.79998848  0.65735200
   0.39999369  0.60000575  0.65735190
   0.60002033 -0.00000102  0.65735210
   0.39999683  0.79999702  0.21911508
   0.59999164 -0.00000793  0.21910853
   0.39999800 -0.00000561  0.21910843
   0.80000148  0.19998880  0.21911768
   0.20000437  0.00000366  0.65735456
   0.19999868 -0.00001060  0.21911107
  -0.00000074 -0.00000035  0.21908336
   0.79999940  0.79999677  0.65735416
   0.00000066  0.00000061  0.65734397
   0.79998653  0.80001208  0.21909857
   0.00001637  0.20000646  0.21911824
  -0.00000260  0.20000108  0.65735427
   0.80000588  0.60001195  0.65735116
   0.00000858  0.40001259  0.21911010
   0.00000142  0.39997970  0.65735227
   0.00000949  0.59999791  0.21911057
   0.79999313  0.39999685  0.65735180
   0.00000161  0.60002243  0.65735229
   0.80000615  0.60001953  0.21911768
   0.79999555  0.39999768  0.21911407
  -0.00000249  0.79999681  0.65735429
   0.00001440  0.80000415  0.21911906
   0.80000592  0.19999462  0.65735115
   0.93331432  0.06665819  0.17081863
   0.73333328  0.26666693  0.60909510
   0.73333245  0.26666689  0.70560264
   0.93333356  0.66666641  0.70560338
   0.93333358  0.66666714  0.60909478
   0.73333028  0.26666518  0.17085574
   0.73333408  0.26666567  0.26737913
   0.93333036  0.46666556  0.26737884
   0.73333320  0.06666670  0.60909480
   0.73333193  0.06666662  0.70560335
   0.93333327  0.06666739  0.70560268
   0.93333284  0.86664336  0.17087876
   0.73333477  0.06666007  0.17084750
   0.93333344  0.06666680  0.60909539
   0.73333378  0.06666662  0.26737982
   0.93332967  0.26666268  0.17085066
   0.93333343  0.26666772  0.70560331
   0.93333423  0.86666939  0.26738174
   0.73333384  0.46666869  0.26737917
   0.73333130  0.46666818  0.17085537
   0.73334264  0.86667575  0.17083220
   0.73333231  0.86666643  0.70560308
   0.73334025  0.86666806  0.26738169
   0.93333011  0.46666689  0.17085574
   0.73333430  0.86666739  0.60909535
   0.73333327  0.66666719  0.60909474
   0.73333211  0.66666606  0.70560345
   0.93333281  0.46666674  0.70560309
   0.73332866  0.66666703  0.17084674
   0.93333233  0.46666643  0.60909515
   0.73333405  0.66666900  0.26738062
   0.93333350  0.26666703  0.60909480
   0.93333547  0.26666688  0.26737887
   0.73333322  0.46666683  0.60909509
   0.73333241  0.46666607  0.70560264
   0.93333642  0.66667024  0.26737893
   0.93333411  0.06666452  0.26738016
   0.93332798  0.66665993  0.17084994
   0.53333480  0.86666827  0.60909549
   0.53333286  0.06666726  0.70560342
   0.53333827  0.86666692  0.17085214
   0.33333426  0.26666675  0.17085277
   0.33333157  0.26666642  0.26737888
   0.33333305  0.06666664  0.60909463
   0.33333414  0.06666710  0.70560379
   0.33333384  0.06666786  0.17085257
   0.33333260  0.06666645  0.26737883
   0.13333271  0.86666738  0.60909522
   0.13333428  0.86666731  0.70560343
   0.13333605  0.86667050  0.17084780
   0.13332747  0.86666661  0.26737833
   0.13333193  0.66666704  0.60909551
   0.13333245  0.66666705  0.70560300
   0.33333420  0.26666751  0.70560381
   0.13333421  0.66666722  0.17085617
   0.13333193  0.46666547  0.60909547
   0.13333243  0.46666611  0.70560299
   0.13333536  0.46666831  0.17085617
   0.13333265  0.46666479  0.26737912
   0.13333273  0.26666586  0.60909522
   0.13333420  0.26666749  0.70560338
   0.13333287  0.26666510  0.17084972
   0.13333083  0.26666267  0.26737789
   0.13333299  0.06666678  0.60909535
   0.13333489  0.06666766  0.70560294
   0.13334050  0.06666727  0.17082922
   0.13333071  0.06666524  0.26737882
   0.13333275  0.66666870  0.26737871
   0.33333304  0.26666697  0.60909457
   0.33333244  0.46666540  0.26737967
   0.33333724  0.46667031  0.17085481
   0.53333450  0.86666794  0.26737963
   0.53333480  0.66666714  0.60909550
   0.53333402  0.66666643  0.70560305
   0.53333842  0.66667213  0.17085261
   0.53333460  0.66666727  0.26737910
   0.53333381  0.46666650  0.60909501
   0.53333295  0.46666617  0.70560342
   0.53333718  0.46667001  0.17085511
   0.53333508  0.46666598  0.26737942
   0.53333339  0.26666699  0.60909502
   0.53333292  0.26666675  0.70560290
   0.53333469  0.26666768  0.17085558
   0.53333107  0.26666584  0.26737932
   0.53333387  0.06666787  0.60909502
   0.93333325  0.86666634  0.70560266
   0.53333494  0.06666688  0.17085554
   0.53333458  0.06666912  0.26737933
   0.33333314  0.86666822  0.60909546
   0.33333378  0.86666874  0.70560321
   0.33333769  0.86666840  0.17085439
   0.33333241  0.86666785  0.26737976
   0.33333322  0.66666691  0.60909370
   0.33333347  0.66666708  0.70560502
   0.33333789  0.66666866  0.17085653
   0.33333305  0.66666653  0.26738038
   0.33333315  0.46666547  0.60909542
   0.33333385  0.46666572  0.70560320
   0.53333399  0.86666823  0.70560305
   0.93333339  0.86666717  0.60909543
Direct configuration=     4
   0.09757516  0.08559072  0.94973608
   0.09368147  0.99428564  0.95179968
   0.12938617  0.13276493  0.98878807
   0.14611361  0.07016271  0.01559686
   0.12352651  0.98372075  0.99238020
   0.85025820  0.90104498  0.98653754
   0.91137671  0.92752640  0.05353773
   0.88349275  0.86205966  0.01895643
   0.89519605  0.00519577  0.04271142
   0.85802679  0.98957659  0.00171571
   0.99839092  0.99674602  0.99976614
   0.12929339  0.92227761  0.00341932
   0.88478095  0.79437217  0.01782486
   0.82249762  0.86843160  0.95652400
   0.94117733  0.91994118  0.08266433
   0.91345329  0.06846425  0.06174276
   0.06889251  0.94034228  0.92730754
   0.07504603  0.11239876  0.92350872
   0.13847259  0.20319210  0.99687467
   0.17339059  0.08634569  0.04706808
   0.84130470  0.03810296  0.98445705
   0.60002023  0.60002197  0.65735210
   0.20000352  0.80000230  0.21911347
   0.20001137  0.60000598  0.65735222
   0.60001428  0.80000691  0.21911715
   0.20000703  0.60000348  0.21911345
   0.60000178  0.80000122  0.65735210
   0.20000073  0.39999844  0.21911338
   0.79998790 -0.00002526  0.21910412
   0.20000421  0.20000128  0.65735444
   0.79999944  0.00000317  0.65735427
   0.19999715  0.20001156  0.21911063
   0.19999924  0.80000134  0.65735237
   0.19999914  0.39999846  0.65735226
   0.59999191  0.60000226  0.21910916
   0.39999672  0.60000084  0.21911501
   0.39997729 -0.00000108  0.65735224
   0.60000290  0.39999647  0.65735191
   0.39998726  0.19999341  0.21911482
   0.59999780  0.39999500  0.21911301
   0.39998791  0.19999430  0.65735150
   0.39999980  0.40000470  0.21910897
   0.60000295  0.20000701  0.65735187
   0.39997748  0.39997918  0.65735216
   0.59999844  0.20000254  0.21911295
   0.39999372  0.79998847  0.65735201
   0.39999368  0.60000576  0.65735190
   0.60002036 -0.00000102  0.65735210
   0.39999683  0.79999702  0.21911508
   0.59999162 -0.00000794  0.21910851
   0.39999800 -0.00000562  0.21910842
   0.80000148  0.19998878  0.21911768
   0.20000437  0.00000367  0.65735457
   0.19999868 -0.00001062  0.21911107
  -0.00000075 -0.00000035  0.21908331
   0.79999940  0.79999677  0.65735417
   0.00000066  0.00000061  0.65734396
   0.79998650  0.80001210  0.21909854
   0.00001640  0.20000647  0.21911824
  -0.00000260  0.20000108  0.65735428
   0.80000589  0.60001197  0.65735116
   0.00000860  0.40001261  0.21911009
   0.00000142  0.39997967  0.65735227
   0.00000950  0.59999791  0.21911056
   0.79999312  0.39999685  0.65735180
   0.00000161  0.60002247  0.65735229
   0.80000616  0.60001956  0.21911768
   0.79999555  0.39999767  0.21911407
  -0.00000250  0.79999680  0.65735429
   0.00001442  0.80000415  0.21911906
   0.80000593  0.19999461  0.65735115
   0.93331429  0.06665817  0.17082013
   0.73333328  0.26666693  0.60909667
   0.73333245  0.26666689  0.70560106
   0.93333356  0.66666641  0.70560181
   0.93333358  0.66666714  0.60909634
   0.73333027  0.26666517  0.17085730
   0.73333409  0.26666567  0.26737757
   0.93333035  0.46666556  0.26737729
   0.73333320  0.06666670  0.60909637
   0.73333193  0.06666662  0.70560177
   0.93333327  0.06666739  0.70560111
   0.93333284  0.86664332  0.17088035
   0.73333477  0.06666006  0.17084905
   0.93333344  0.06666680  0.60909696
   0.73333378  0.06666662  0.26737827
   0.93332966  0.26666267  0.17085221
   0.93333343  0.26666772  0.70560174
   0.93333423  0.86666939  0.26738019
   0.73333384  0.46666869  0.26737761
   0.73333130  0.46666818  0.17085693
   0.73334265  0.86667576  0.17083372
   0.73333231  0.86666643  0.70560151
   0.73334026  0.86666806  0.26738014
   0.93333011  0.46666689  0.17085730
   0.73333430  0.86666740  0.60909692
   0.73333327  0.66666719  0.60909631
   0.73333210  0.66666606  0.70560187
   0.93333281  0.46666674  0.70560151
   0.73332866  0.66666704  0.17084828
   0.93333233  0.46666643  0.60909672
   0.73333405  0.66666900  0.26737906
   0.93333350  0.26666703  0.60909636
   0.93333547  0.26666689  0.26737732
   0.73333322  0.46666683  0.60909666
   0.73333241  0.46666607  0.70560107
   0.93333643  0.66667024  0.26737737
   0.93333411  0.06666452  0.26737861
   0.93332797  0.66665992  0.17085148
   0.53333481  0.86666827  0.60909706
   0.53333286  0.06666726  0.70560185
   0.53333828  0.86666692  0.17085370
   0.33333426  0.26666675  0.17085433
   0.33333156  0.26666642  0.26737733
   0.33333305  0.06666664  0.60909620
   0.33333414  0.06666710  0.70560222
   0.33333384  0.06666786  0.17085412
   0.33333260  0.06666645  0.26737728
   0.13333271  0.86666738  0.60909679
   0.13333428  0.86666731  0.70560186
   0.13333606  0.86667051  0.17084934
   0.13332746  0.86666661  0.26737677
   0.13333193  0.66666704  0.60909708
   0.13333245  0.66666706  0.70560143
   0.33333420  0.26666751  0.70560224
   0.13333421  0.66666722  0.17085773
   0.13333193  0.46666547  0.60909704
   0.13333243  0.46666611  0.70560141
   0.13333537  0.46666832  0.17085773
   0.13333264  0.46666479  0.26737756
   0.13333273  0.26666586  0.60909679
   0.13333420  0.26666749  0.70560181
   0.13333287  0.26666510  0.17085127
   0.13333083  0.26666267  0.26737633
   0.13333299  0.06666678  0.60909692
   0.13333489  0.06666766  0.70560137
   0.13334051  0.06666727  0.17083074
   0.13333070  0.06666524  0.26737726
   0.13333275  0.66666870  0.26737715
   0.33333304  0.26666697  0.60909614
   0.33333243  0.46666540  0.26737811
   0.33333724  0.46667032  0.17085636
   0.53333450  0.86666794  0.26737808
   0.53333480  0.66666714  0.60909707
   0.53333402  0.66666643  0.70560148
   0.53333843  0.66667214  0.17085416
   0.53333460  0.66666727  0.26737755
   0.53333381  0.46666650  0.60909658
   0.53333295  0.46666617  0.70560185
   0.53333718  0.46667001  0.17085666
   0.53333508  0.46666598  0.26737786
   0.53333339  0.26666699  0.60909659
   0.53333292  0.26666675  0.70560133
   0.53333469  0.26666768  0.17085714
   0.53333106  0.26666584  0.26737776
   0.53333387  0.06666787  0.60909659
   0.93333325  0.86666634  0.70560109
   0.53333494  0.06666688  0.17085709
   0.53333458  0.06666912  0.26737777
   0.33333314  0.86666823  0.60909703
   0.33333378  0.86666875  0.70560164
   0.33333770  0.86666840  0.17085594
   0.33333241  0.86666785  0.26737821
   0.33333322  0.66666691  0.60909526
   0.33333347  0.66666708  0.70560345
   0.33333790  0.66666867  0.17085809
   0.33333305  0.66666653  0.26737883
   0.33333315  0.46666547  0.60909699
   0.33333385  0.46666571  0.70560163
   0.53333399  0.86666823  0.70560148
   0.93333339  0.86666717  0.60909700
Direct configuration=     5
   0.09757545  0.08559090  0.94973603
   0.09368159  0.99428565  0.95179961
   0.12938640  0.13276511  0.98878805
   0.14611392  0.07016283  0.01559688
   0.12352675  0.98372078  0.99238019
   0.85025793  0.90104484  0.98653751
   0.91137656  0.92752644  0.05353779
   0.88349257  0.86205953  0.01895649
   0.89519584  0.00519574  0.04271147
   0.85802652  0.98957647  0.00171578
   0.99839078  0.99674597  0.99976620
   0.12929333  0.92227757  0.00341933
   0.88478102  0.79437218  0.01782486
   0.82249767  0.86843161  0.95652400
   0.94117739  0.91994120  0.08266440
   0.91345328  0.06846424  0.06174281
   0.06889247  0.94034226  0.92730752
   0.07504601  0.11239878  0.92350871
   0.13847257  0.20319209  0.99687470
   0.17339052  0.08634563  0.04706813
   0.84130471  0.03810293  0.98445704
   0.60002026  0.60002200  0.65735210
   0.20000352  0.80000230  0.21911347
   0.20001139  0.60000599  0.65735223
   0.60001430  0.80000692  0.21911715
   0.20000704  0.60000348  0.21911345
   0.60000179  0.80000122  0.65735211
   0.20000073  0.39999844  0.21911337
   0.79998788 -0.00002530  0.21910410
   0.20000422  0.20000128  0.65735445
   0.79999944  0.00000317  0.65735428
   0.19999715  0.20001158  0.21911062
   0.19999924  0.80000134  0.65735238
   0.19999914  0.39999846  0.65735226
   0.59999190  0.60000226  0.21910915
   0.39999671  0.60000084  0.21911501
   0.39997726 -0.00000108  0.65735224
   0.60000291  0.39999647  0.65735191
   0.39998725  0.19999340  0.21911482
   0.59999779  0.39999499  0.21911300
   0.39998789  0.19999430  0.65735150
   0.39999980  0.40000470  0.21910896
   0.60000295  0.20000702  0.65735188
   0.39997744  0.39997915  0.65735217
   0.59999844  0.20000254  0.21911295
   0.39999371  0.79998845  0.65735201
   0.39999367  0.60000576  0.65735190
   0.60002039 -0.00000102  0.65735210
   0.39999683  0.79999701  0.21911507
   0.59999161 -0.00000795  0.21910850
   0.39999800 -0.00000563  0.21910841
   0.80000149  0.19998877  0.21911768
   0.20000438  0.00000367  0.65735457
   0.19999868 -0.00001064  0.21911106
  -0.00000075 -0.00000035  0.21908326
   0.79999940  0.79999676  0.65735418
   0.00000066  0.00000061  0.65734395
   0.79998649  0.80001212  0.21909852
   0.00001642  0.20000648  0.21911825
  -0.00000260  0.20000108  0.65735428
   0.80000589  0.60001199  0.65735116
   0.00000861  0.40001263  0.21911008
   0.00000142  0.39997964  0.65735227
   0.00000951  0.59999791  0.21911056
   0.79999311  0.39999684  0.65735181
   0.00000162  0.60002250  0.65735230
   0.80000617  0.60001959  0.21911768
   0.79999554  0.39999767  0.21911406
  -0.00000250  0.79999680  0.65735430
   0.00001444  0.80000416  0.21911907
   0.80000594  0.19999460  0.65735115
   0.93331427  0.06665816  0.17082151
   0.73333328  0.26666693  0.60909811
   0.73333245  0.26666689  0.70559962
   0.93333356  0.66666641  0.70560037
   0.93333358  0.66666714  0.60909778
   0.73333027  0.26666517  0.17085873
   0.73333409  0.26666567  0.26737614
   0.93333035  0.46666556  0.26737586
   0.73333320  0.06666670  0.60909781
   0.73333193  0.06666662  0.70560033
   0.93333327  0.06666739  0.70559966
   0.93333284  0.86664329  0.17088181
   0.73333477  0.06666005  0.17085046
   0.93333344  0.06666680  0.60909840
   0.73333378  0.06666662  0.26737684
   0.93332966  0.26666267  0.17085363
   0.93333343  0.26666772  0.70560029
   0.93333423  0.86666940  0.26737877
   0.73333384  0.46666869  0.26737618
   0.73333130  0.46666818  0.17085836
   0.73334266  0.86667577  0.17083512
   0.73333231  0.86666643  0.70560006
   0.73334027  0.86666806  0.26737871
   0.93333010  0.46666689  0.17085873
   0.73333430  0.86666740  0.60909835