 171 171   0   0
  0.4145774E+02  0.1590000E-08  0.1590000E-08  0.3238000E-08  0.5000000E-15
  1.000000000000000E-004
  CAR 
 basalPlane                              
      2.30815859    -19.03649028  301      0.25902511      1.00000000
    -19.036  0.0000E+00  0.0000E+00
    -18.965  0.0000E+00  0.0000E+00
    -18.894  0.0000E+00  0.0000E+00
    -18.823  0.0000E+00  0.0000E+00
    -18.752  0.0000E+00  0.0000E+00
    -18.681  0.0000E+00  0.0000E+00
    -18.610  0.7802E-18  0.5551E-19
    -18.538  0.1768E-14  0.1259E-15
    -18.467  0.1560E-11  0.1111E-12
    -18.396  0.5114E-09  0.3650E-10
    -18.325  0.6274E-07  0.4500E-08
    -18.254  0.2906E-05  0.2112E-06
    -18.183  0.5137E-04  0.3866E-05
    -18.112  0.3510E-03  0.2884E-04
    -18.040  0.9380E-03  0.9558E-04
    -17.969  0.9874E-03  0.1658E-03
    -17.898  0.4116E-03  0.1951E-03
    -17.827  0.1073E-03  0.2028E-03
    -17.756  0.3091E-03  0.2247E-03
    -17.685  0.8900E-03  0.2881E-03
    -17.614  0.1022E-02  0.3608E-03
    -17.542  0.4630E-03  0.3937E-03
    -17.471  0.8214E-04  0.3996E-03
    -17.400  0.5647E-05  0.4000E-03
    -17.329  0.1486E-06  0.4000E-03
    -17.258  0.1479E-08  0.4000E-03
    -17.187  0.5517E-11  0.4000E-03
    -17.115  0.7660E-14  0.4000E-03
    -17.044  0.3745E-17  0.4000E-03
    -16.973  0.0000E+00  0.4000E-03
    -16.902  0.0000E+00  0.4000E-03
    -16.831  0.0000E+00  0.4000E-03
    -16.760  0.0000E+00  0.4000E-03
    -16.689  0.0000E+00  0.4000E-03
    -16.617  0.0000E+00  0.4000E-03
    -16.546  0.0000E+00  0.4000E-03
    -16.475  0.0000E+00  0.4000E-03
    -16.404  0.0000E+00  0.4000E-03
    -16.333  0.0000E+00  0.4000E-03
    -16.262  0.0000E+00  0.4000E-03
    -16.191  0.1342E-16  0.4000E-03
    -16.119  0.2389E-13  0.4000E-03
    -16.048  0.1592E-10  0.4000E-03
    -15.977  0.3966E-08  0.4000E-03
    -15.906  0.3724E-06  0.4000E-03
    -15.835  0.1330E-04  0.4010E-03
    -15.764  0.1829E-03  0.4140E-03
    -15.692  0.9798E-03  0.4837E-03
    -15.621  0.2068E-02  0.6308E-03
    -15.550  0.1728E-02  0.7538E-03
    -15.479  0.5716E-03  0.7945E-03
    -15.408  0.7445E-04  0.7997E-03
    -15.337  0.1994E-04  0.8012E-03
    -15.266  0.3513E-03  0.8262E-03
    -15.194  0.2951E-02  0.1036E-02
    -15.123  0.9727E-02  0.1728E-02
    -15.052  0.1268E-01  0.2631E-02
    -14.981  0.6556E-02  0.3097E-02
    -14.910  0.1336E-02  0.3192E-02
    -14.839  0.1063E-03  0.3200E-02
    -14.768  0.3260E-05  0.3200E-02
    -14.696  0.2256E-06  0.3200E-02
    -14.625  0.7865E-05  0.3201E-02
    -14.554  0.1281E-03  0.3210E-02
    -14.483  0.8614E-03  0.3271E-02
    -14.412  0.2968E-02  0.3482E-02
    -14.341  0.7711E-02  0.4031E-02
    -14.270  0.1497E-01  0.5096E-02
    -14.198  0.1911E-01  0.6456E-02
    -14.127  0.1987E-01  0.7869E-02
    -14.056  0.1901E-01  0.9222E-02
    -13.985  0.1468E-01  0.1027E-01
    -13.914  0.7010E-02  0.1077E-01
    -13.843  0.6219E-02  0.1121E-01
    -13.771  0.1630E-01  0.1237E-01
    -13.700  0.2903E-01  0.1443E-01
    -13.629  0.3114E-01  0.1665E-01
    -13.558  0.2109E-01  0.1815E-01
    -13.487  0.1767E-01  0.1941E-01
    -13.416  0.1623E-01  0.2056E-01
    -13.345  0.7448E-02  0.2109E-01
    -13.273  0.1422E-02  0.2119E-01
    -13.202  0.1098E-03  0.2120E-01
    -13.131  0.3381E-05  0.2120E-01
    -13.060  0.4103E-07  0.2120E-01
    -12.989  0.1941E-09  0.2120E-01
    -12.918  0.3545E-12  0.2120E-01
    -12.847  0.2481E-15  0.2120E-01
    -12.775  0.0000E+00  0.2120E-01
    -12.704  0.0000E+00  0.2120E-01
    -12.633  0.0000E+00  0.2120E-01
    -12.562  0.0000E+00  0.2120E-01
    -12.491  0.0000E+00  0.2120E-01
    -12.420  0.0000E+00  0.2120E-01
    -12.349  0.0000E+00  0.2120E-01
    -12.277  0.0000E+00  0.2120E-01
    -12.206  0.0000E+00  0.2120E-01
    -12.135  0.0000E+00  0.2120E-01
    -12.064  0.0000E+00  0.2120E-01
    -11.993  0.0000E+00  0.2120E-01
    -11.922  0.0000E+00  0.2120E-01
    -11.850  0.0000E+00  0.2120E-01
    -11.779  0.0000E+00  0.2120E-01
    -11.708  0.0000E+00  0.2120E-01
    -11.637  0.0000E+00  0.2120E-01
    -11.566  0.0000E+00  0.2120E-01
    -11.495  0.0000E+00  0.2120E-01
    -11.424  0.0000E+00  0.2120E-01
    -11.352  0.0000E+00  0.2120E-01
    -11.281  0.0000E+00  0.2120E-01
    -11.210  0.0000E+00  0.2120E-01
    -11.139  0.0000E+00  0.2120E-01
    -11.068  0.0000E+00  0.2120E-01
    -10.997  0.0000E+00  0.2120E-01
    -10.926  0.0000E+00  0.2120E-01
    -10.854  0.0000E+00  0.2120E-01
    -10.783  0.0000E+00  0.2120E-01
    -10.712  0.0000E+00  0.2120E-01
    -10.641  0.0000E+00  0.2120E-01
    -10.570  0.0000E+00  0.2120E-01
    -10.499  0.0000E+00  0.2120E-01
    -10.427  0.0000E+00  0.2120E-01
    -10.356  0.0000E+00  0.2120E-01
    -10.285  0.0000E+00  0.2120E-01
    -10.214  0.0000E+00  0.2120E-01
    -10.143  0.0000E+00  0.2120E-01
    -10.072  0.0000E+00  0.2120E-01
    -10.001  0.0000E+00  0.2120E-01
     -9.929  0.1560E-18  0.2120E-01
     -9.858  0.3069E-15  0.2120E-01
     -9.787  0.3449E-12  0.2120E-01
     -9.716  0.1446E-09  0.2120E-01
     -9.645  0.2286E-07  0.2120E-01
     -9.574  0.1383E-05  0.2120E-01
     -9.503  0.3275E-04  0.2120E-01
     -9.431  0.3124E-03  0.2122E-01
     -9.360  0.1254E-02  0.2131E-01
     -9.289  0.2336E-02  0.2148E-01
     -9.218  0.2707E-02  0.2167E-01
     -9.147  0.2758E-02  0.2187E-01
     -9.076  0.2282E-02  0.2203E-01
     -9.005  0.1520E-02  0.2214E-01
     -8.933  0.7499E-03  0.2219E-01
     -8.862  0.5353E-03  0.2223E-01
     -8.791  0.9809E-03  0.2230E-01
     -8.720  0.9605E-03  0.2237E-01
     -8.649  0.3753E-03  0.2240E-01
     -8.578  0.5741E-04  0.2240E-01
     -8.506  0.3396E-05  0.2240E-01
     -8.435  0.7673E-07  0.2240E-01
     -8.364  0.6548E-09  0.2240E-01
     -8.293  0.2092E-11  0.2240E-01
     -8.222  0.2484E-14  0.2240E-01
     -8.151  0.1248E-17  0.2240E-01
     -8.080  0.0000E+00  0.2240E-01
     -8.008  0.0000E+00  0.2240E-01
     -7.937  0.0000E+00  0.2240E-01
     -7.866  0.0000E+00  0.2240E-01
     -7.795  0.0000E+00  0.2240E-01
     -7.724  0.2965E-17  0.2240E-01
     -7.653  0.6465E-14  0.2240E-01
     -7.582  0.5202E-11  0.2240E-01
     -7.510  0.1583E-08  0.2240E-01
     -7.439  0.1862E-06  0.2240E-01
     -7.368  0.8814E-05  0.2240E-01
     -7.297  0.1785E-03  0.2241E-01
     -7.226  0.1647E-02  0.2253E-01
     -7.155  0.7106E-02  0.2304E-01
     -7.083  0.1392E-01  0.2403E-01
     -7.012  0.1178E-01  0.2486E-01
     -6.941  0.4357E-02  0.2517E-01
     -6.870  0.3278E-02  0.2541E-01
     -6.799  0.1279E-01  0.2632E-01
     -6.728  0.2765E-01  0.2828E-01
     -6.657  0.3446E-01  0.3074E-01
     -6.585  0.3188E-01  0.3300E-01
     -6.514  0.1901E-01  0.3436E-01
     -6.443  0.5512E-02  0.3475E-01
     -6.372  0.6865E-03  0.3480E-01
     -6.301  0.1485E-03  0.3481E-01
     -6.230  0.1416E-02  0.3491E-01
     -6.159  0.6909E-02  0.3540E-01
     -6.087  0.1348E-01  0.3636E-01
     -6.016  0.1067E-01  0.3712E-01
     -5.945  0.3619E-02  0.3738E-01
     -5.874  0.2142E-02  0.3753E-01
     -5.803  0.7662E-02  0.3807E-01
     -5.732  0.1468E-01  0.3912E-01
     -5.661  0.1324E-01  0.4006E-01
     -5.589  0.1287E-01  0.4098E-01
     -5.518  0.2240E-01  0.4257E-01
     -5.447  0.2460E-01  0.4432E-01
     -5.376  0.1422E-01  0.4533E-01
     -5.305  0.1075E-01  0.4610E-01
     -5.234  0.1542E-01  0.4719E-01
     -5.162  0.1796E-01  0.4847E-01
     -5.091  0.1863E-01  0.4980E-01
     -5.020  0.1298E-01  0.5072E-01
     -4.949  0.8386E-02  0.5132E-01
     -4.878  0.1262E-01  0.5221E-01
     -4.807  0.1605E-01  0.5336E-01
     -4.736  0.1905E-01  0.5471E-01
     -4.664  0.2862E-01  0.5675E-01
     -4.593  0.3120E-01  0.5897E-01
     -4.522  0.1914E-01  0.6033E-01
     -4.451  0.6005E-02  0.6076E-01
     -4.380  0.2857E-02  0.6096E-01
     -4.309  0.8481E-02  0.6156E-01
     -4.238  0.1439E-01  0.6259E-01
     -4.166  0.1186E-01  0.6343E-01
     -4.095  0.5918E-02  0.6385E-01
     -4.024  0.1829E-02  0.6398E-01
     -3.953  0.7489E-03  0.6403E-01
     -3.882  0.4554E-02  0.6436E-01
     -3.811  0.1707E-01  0.6557E-01
     -3.739  0.2627E-01  0.6744E-01
     -3.668  0.1985E-01  0.6885E-01
     -3.597  0.1686E-01  0.7005E-01
     -3.526  0.2040E-01  0.7151E-01
     -3.455  0.1964E-01  0.7290E-01
     -3.384  0.1692E-01  0.7411E-01
     -3.313  0.1688E-01  0.7531E-01
     -3.241  0.1147E-01  0.7612E-01
     -3.170  0.3854E-02  0.7640E-01
     -3.099  0.2474E-02  0.7657E-01
     -3.028  0.4213E-02  0.7687E-01
     -2.957  0.3697E-02  0.7714E-01
     -2.886  0.3982E-02  0.7742E-01
     -2.815  0.1133E-01  0.7823E-01
     -2.743  0.2233E-01  0.7982E-01
     -2.672  0.2965E-01  0.8193E-01
     -2.601  0.2594E-01  0.8377E-01
     -2.530  0.1355E-01  0.8473E-01
     -2.459  0.1086E-01  0.8551E-01
     -2.388  0.1892E-01  0.8685E-01
     -2.317  0.2142E-01  0.8838E-01
     -2.245  0.1302E-01  0.8930E-01
     -2.174  0.4715E-02  0.8964E-01
     -2.103  0.5811E-02  0.9005E-01
     -2.032  0.1299E-01  0.9098E-01
     -1.961  0.1381E-01  0.9196E-01
     -1.890  0.9271E-02  0.9262E-01
     -1.818  0.1156E-01  0.9344E-01
     -1.747  0.1241E-01  0.9432E-01
     -1.676  0.6137E-02  0.9476E-01
     -1.605  0.2643E-02  0.9495E-01
     -1.534  0.2186E-02  0.9511E-01
     -1.463  0.1093E-02  0.9518E-01
     -1.392  0.2222E-03  0.9520E-01
     -1.320  0.1765E-04  0.9520E-01
     -1.249  0.5404E-06  0.9520E-01
     -1.178  0.6303E-08  0.9520E-01
     -1.107  0.2773E-10  0.9520E-01
     -1.036  0.4566E-13  0.9520E-01
     -0.965  0.2809E-16  0.9520E-01
     -0.894  0.0000E+00  0.9520E-01
     -0.822  0.0000E+00  0.9520E-01
     -0.751  0.0000E+00  0.9520E-01
     -0.680  0.0000E+00  0.9520E-01
     -0.609  0.0000E+00  0.9520E-01
     -0.538  0.1560E-18  0.9520E-01
     -0.467  0.6312E-15  0.9520E-01
     -0.395  0.6399E-12  0.9520E-01
     -0.324  0.2409E-09  0.9520E-01
     -0.253  0.3391E-07  0.9520E-01
     -0.182  0.1799E-05  0.9520E-01
     -0.111  0.3638E-04  0.9520E-01
     -0.040  0.2839E-03  0.9522E-01
      0.031  0.8682E-03  0.9528E-01
      0.103  0.1105E-02  0.9536E-01
      0.174  0.1012E-02  0.9544E-01
      0.245  0.1797E-02  0.9556E-01
      0.316  0.3588E-02  0.9582E-01
      0.387  0.1060E-01  0.9657E-01
      0.458  0.2406E-01  0.9828E-01
      0.529  0.2722E-01  0.1002E+00
      0.601  0.2557E-01  0.1020E+00
      0.672  0.2696E-01  0.1040E+00
      0.743  0.1600E-01  0.1051E+00
      0.814  0.5572E-02  0.1055E+00
      0.885  0.1197E-01  0.1063E+00
      0.956  0.3292E-01  0.1087E+00
      1.027  0.3978E-01  0.1115E+00
      1.099  0.2693E-01  0.1134E+00
      1.170  0.1737E-01  0.1147E+00
      1.241  0.1253E-01  0.1156E+00
      1.312  0.1071E-01  0.1163E+00
      1.383  0.6957E-02  0.1168E+00
      1.454  0.2227E-02  0.1170E+00
      1.526  0.3024E-03  0.1170E+00
      1.597  0.1640E-04  0.1170E+00
      1.668  0.3439E-06  0.1170E+00
      1.739  0.2737E-08  0.1170E+00
      1.810  0.8165E-11  0.1170E+00
      1.881  0.9062E-14  0.1170E+00
      1.952  0.3745E-17  0.1170E+00
      2.024  0.0000E+00  0.1170E+00
      2.095  0.0000E+00  0.1170E+00
      2.166  0.0000E+00  0.1170E+00
      2.237  0.0000E+00  0.1170E+00
      2.308  0.0000E+00  0.1170E+00
