       N       E                     dE             d eps       ncg     rms          rms(c)
DAV:   1     0.776805376739E+04    0.77681E+04   -0.36224E+05  1170   0.112E+03
DAV:   2    -0.226357016073E+03   -0.79944E+04   -0.77428E+04  1612   0.269E+02
DAV:   3    -0.126083652201E+04   -0.10345E+04   -0.10196E+04  1378   0.104E+02
DAV:   4    -0.132122396144E+04   -0.60387E+02   -0.60073E+02  1781   0.303E+01
DAV:   5    -0.132317755305E+04   -0.19536E+01   -0.19431E+01  1807   0.490E+00    0.169E+02
DAV:   6    -0.127670063406E+04    0.46477E+02   -0.93137E+02  1560   0.270E+01    0.919E+01
DAV:   7    -0.129735304116E+04   -0.20652E+02   -0.12488E+03  1742   0.446E+01    0.549E+01
DAV:   8    -0.123312306980E+04    0.64230E+02   -0.70907E+01  1469   0.756E+00    0.315E+01
DAV:   9    -0.123846277384E+04   -0.53397E+01   -0.18461E+02  1716   0.884E+00    0.477E+01
DAV:  10    -0.121910522719E+04    0.19358E+02   -0.20020E+02  1911   0.176E+01    0.222E+01
DAV:  11    -0.122479687645E+04   -0.56916E+01   -0.59632E+01  1794   0.334E+00    0.162E+01
DAV:  12    -0.122451152724E+04    0.28535E+00   -0.25950E+00  1651   0.887E-01    0.167E+01
DAV:  13    -0.122369550692E+04    0.81602E+00   -0.25785E+00  1625   0.845E-01    0.179E+01
DAV:  14    -0.122346778755E+04    0.22772E+00   -0.11886E+01  1729   0.138E+00    0.152E+01
DAV:  15    -0.122343785110E+04    0.29936E-01   -0.44294E-01  1586   0.290E-01    0.148E+01
DAV:  16    -0.122360461681E+04   -0.16677E+00   -0.35839E-01  1703   0.249E-01    0.139E+01
DAV:  17    -0.122493194451E+04   -0.13273E+01   -0.36989E+00  1651   0.109E+00    0.119E+01
DAV:  18    -0.122437090349E+04    0.56104E+00   -0.46744E-01  1677   0.532E-01    0.105E+01
DAV:  19    -0.122380497512E+04    0.56593E+00   -0.57721E-01  1690   0.448E-01    0.879E+00
DAV:  20    -0.122352870838E+04    0.27627E+00   -0.18953E-01  1794   0.264E-01    0.768E+00
DAV:  21    -0.122344751142E+04    0.81197E-01   -0.22632E-02  1690   0.101E-01    0.741E+00
DAV:  22    -0.122331005936E+04    0.13745E+00   -0.47749E-02  1638   0.111E-01    0.681E+00
DAV:  23    -0.122318677915E+04    0.12328E+00   -0.53631E-02  1586   0.111E-01    0.607E+00
DAV:  24    -0.122302100517E+04    0.16577E+00   -0.16886E-01  1703   0.173E-01    0.467E+00
DAV:  25    -0.122302381171E+04   -0.28065E-02   -0.45221E-02  1482   0.518E-02    0.483E+00
DAV:  26    -0.122296620073E+04    0.57611E-01   -0.77916E-02  1586   0.898E-02    0.426E+00
DAV:  27    -0.122288639099E+04    0.79810E-01   -0.14647E-01  1742   0.154E-01    0.307E+00
DAV:  28    -0.122285400842E+04    0.32383E-01   -0.97775E-02  1482   0.116E-01    0.286E+00
DAV:  29    -0.122282564865E+04    0.28360E-01   -0.35602E-01  1755   0.263E-01    0.393E+00
DAV:  30    -0.122296367876E+04   -0.13803E+00   -0.33322E-01  1651   0.141E-01    0.878E+00
DAV:  31    -0.122296721369E+04   -0.35349E-02   -0.89264E-03  1391   0.526E-02    0.867E+00
DAV:  32    -0.122298524935E+04   -0.18036E-01   -0.58543E-03  1170   0.239E-02    0.919E+00
DAV:  33    -0.122297586955E+04    0.93798E-02   -0.13449E-03  1066   0.194E-02    0.894E+00
DAV:  34    -0.122299096241E+04   -0.15093E-01   -0.69683E-03  1131   0.304E-02    0.909E+00
DAV:  35    -0.122300964024E+04   -0.18678E-01   -0.38594E-03  1144   0.320E-02    0.977E+00
DAV:  36    -0.122298101341E+04    0.28627E-01   -0.43466E-03  1131   0.303E-02    0.889E+00
DAV:  37    -0.122290499233E+04    0.76021E-01   -0.19943E-02  1313   0.517E-02    0.684E+00
DAV:  38    -0.122283033270E+04    0.74660E-01   -0.54765E-02  1508   0.676E-02    0.436E+00
DAV:  39    -0.122279468658E+04    0.35646E-01   -0.71041E-02  1417   0.551E-02    0.207E+00
DAV:  40    -0.122279950121E+04   -0.48146E-02   -0.50992E-02  1339   0.518E-02    0.317E+00
DAV:  41    -0.122278092853E+04    0.18573E-01   -0.57234E-02  1313   0.466E-02    0.105E+00
DAV:  42    -0.122277692620E+04    0.40023E-02   -0.43957E-02  1404   0.491E-02    0.112E+00
DAV:  43    -0.122277745885E+04   -0.53265E-03   -0.30583E-02  1183   0.377E-02    0.138E+00
DAV:  44    -0.122279121107E+04   -0.13752E-01   -0.31451E-02  1235   0.556E-02    0.285E+00
DAV:  45    -0.122277881594E+04    0.12395E-01   -0.16749E-02  1118   0.322E-02    0.126E+00
DAV:  46    -0.122277730126E+04    0.15147E-02   -0.14367E-02  1105   0.309E-02    0.154E+00
DAV:  47    -0.122277850620E+04   -0.12049E-02   -0.81170E-03  1001   0.263E-02    0.174E+00
DAV:  48    -0.122277729790E+04    0.12083E-02   -0.44642E-03  1001   0.158E-02    0.153E+00
DAV:  49    -0.122277484817E+04    0.24497E-02   -0.29701E-03   845   0.126E-02    0.134E+00
DAV:  50    -0.122277532735E+04   -0.47918E-03   -0.10639E-03   741   0.932E-03    0.141E+00
DAV:  51    -0.122277119485E+04    0.41325E-02   -0.23451E-03   949   0.173E-02    0.810E-01
DAV:  52    -0.122277132413E+04   -0.12928E-03   -0.54799E-04   819   0.110E-02    0.966E-01
DAV:  53    -0.122277099691E+04    0.32722E-03   -0.44413E-04   728   0.747E-03    0.934E-01
DAV:  54    -0.122277054220E+04    0.45471E-03   -0.10381E-04   689   0.532E-03    0.918E-01
DAV:  55    -0.122276950026E+04    0.10419E-02   -0.26447E-04   845   0.521E-03    0.850E-01
DAV:  56    -0.122276821355E+04    0.12867E-02   -0.40372E-04   910   0.112E-02    0.755E-01
DAV:  57    -0.122276787503E+04    0.33852E-03   -0.10341E-04   845   0.601E-03    0.820E-01
DAV:  58    -0.122276754469E+04    0.33034E-03   -0.29988E-05   676   0.384E-03    0.808E-01
DAV:  59    -0.122276743445E+04    0.11024E-03   -0.39443E-05   676   0.419E-03    0.865E-01
DAV:  60    -0.122276699927E+04    0.43518E-03   -0.19283E-05   663   0.348E-03    0.862E-01
DAV:  61    -0.122276655015E+04    0.44912E-03   -0.17543E-05   637   0.301E-03    0.864E-01
DAV:  62    -0.122276683751E+04   -0.28736E-03   -0.17003E-05   624   0.218E-03    0.872E-01
DAV:  63    -0.122276678740E+04    0.50111E-04   -0.75359E-06   624   0.139E-03
   1 F= -.12529758E+04 E0= -.12528998E+04  d E =-.125298E+04
       N       E                     dE             d eps       ncg     rms          rms(c)
DAV:   1    -0.122317611049E+04   -0.40927E+00   -0.89937E+01  1248   0.921E+00    0.900E+00
DAV:   2    -0.122364722986E+04   -0.47112E+00   -0.55555E+00  1339   0.273E+00    0.710E+00
DAV:   3    -0.122443671070E+04   -0.78948E+00   -0.56254E+00  1664   0.137E+00    0.794E+00
DAV:   4    -0.122370778726E+04    0.72892E+00   -0.67767E+00  1690   0.127E+00    0.474E+00
DAV:   5    -0.122408964285E+04   -0.38186E+00   -0.45659E+00  1807   0.563E-01    0.126E+01
DAV:   6    -0.122400015918E+04    0.89484E-01   -0.31242E+00  1586   0.107E+00    0.388E+00
DAV:   7    -0.122379597674E+04    0.20418E+00   -0.87874E-01  1560   0.501E-01    0.192E+00
DAV:   8    -0.122382961807E+04   -0.33641E-01   -0.52242E-01  1625   0.150E-01    0.275E+00
DAV:   9    -0.122376704892E+04    0.62569E-01   -0.43117E-02  1534   0.118E-01    0.136E+00
DAV:  10    -0.122375826469E+04    0.87842E-02   -0.22956E-02  1612   0.663E-02    0.206E+00
DAV:  11    -0.122372914794E+04    0.29117E-01   -0.22461E-02  1521   0.682E-02    0.143E+00
DAV:  12    -0.122370675986E+04    0.22388E-01   -0.18833E-02  1586   0.674E-02    0.163E+00
DAV:  13    -0.122368456452E+04    0.22195E-01   -0.14888E-02  1547   0.622E-02    0.137E+00
DAV:  14    -0.122367392696E+04    0.10638E-01   -0.60700E-03  1547   0.407E-02    0.139E+00
DAV:  15    -0.122365694178E+04    0.16985E-01   -0.68401E-03  1391   0.575E-02    0.124E+00
DAV:  16    -0.122364371922E+04    0.13223E-01   -0.44300E-03  1469   0.461E-02    0.113E+00
DAV:  17    -0.122361984214E+04    0.23877E-01   -0.10075E-02  1586   0.776E-02    0.908E-01
DAV:  18    -0.122362069545E+04   -0.85331E-03   -0.10312E-02  1664   0.940E-02    0.211E+00
DAV:  19    -0.122361689373E+04    0.38017E-02   -0.45920E-03  1378   0.618E-02    0.959E-01
DAV:  20    -0.122361546203E+04    0.14317E-02   -0.31885E-03  1287   0.490E-02    0.138E+00
DAV:  21    -0.122361126236E+04    0.41997E-02   -0.15045E-03  1157   0.291E-02    0.585E-01
DAV:  22    -0.122361065452E+04    0.60784E-03   -0.10519E-03  1001   0.191E-02    0.473E-01
DAV:  23    -0.122362175582E+04   -0.11101E-01   -0.15147E-03  1222   0.293E-02    0.207E+00
DAV:  24    -0.122361221515E+04    0.95407E-02   -0.83411E-04  1157   0.313E-02    0.333E-01
DAV:  25    -0.122361062637E+04    0.15888E-02   -0.19380E-03  1014   0.270E-02    0.193E-01
DAV:  26    -0.122361242688E+04   -0.18005E-02   -0.34115E-04   884   0.154E-02    0.687E-01
DAV:  27    -0.122361134897E+04    0.10779E-02   -0.15052E-04   767   0.911E-03    0.300E-01
DAV:  28    -0.122361115015E+04    0.19882E-03   -0.12322E-04   780   0.785E-03    0.274E-01
DAV:  29    -0.122361143829E+04   -0.28813E-03   -0.74518E-05   663   0.538E-03    0.377E-01
DAV:  30    -0.122361113317E+04    0.30511E-03   -0.11347E-04   793   0.852E-03    0.201E-01
DAV:  31    -0.122361103953E+04    0.93648E-04   -0.56967E-05   728   0.656E-03
   2 F= -.12539344E+04 E0= -.12538674E+04  d E =-.958663E+00
       N       E                     dE             d eps       ncg     rms          rms(c)
DAV:   1    -0.122360244137E+04    0.86918E-02   -0.17572E+00  1235   0.129E+00    0.112E+00
DAV:   2    -0.122361484712E+04   -0.12406E-01   -0.11361E-01  1365   0.390E-01    0.138E+00
DAV:   3    -0.122364661700E+04   -0.31770E-01   -0.15628E-01  1703   0.225E-01    0.154E+00
DAV:   4    -0.122361463256E+04    0.31984E-01   -0.99683E-02  1547   0.177E-01    0.857E-01
DAV:   5    -0.122361394744E+04    0.68513E-03   -0.86680E-03  1391   0.535E-02    0.778E-01
DAV:   6    -0.122365537401E+04   -0.41427E-01   -0.22409E-02  1703   0.967E-02    0.459E+00
DAV:   7    -0.122363270692E+04    0.22667E-01   -0.31632E-02  1677   0.140E-01    0.897E-01
DAV:   8    -0.122361903578E+04    0.13671E-01   -0.11179E-02  1482   0.741E-02    0.761E-01
DAV:   9    -0.122361572503E+04    0.33108E-02   -0.21268E-03  1105   0.346E-02    0.669E-01
DAV:  10    -0.122361407008E+04    0.16549E-02   -0.16707E-03   884   0.195E-02    0.500E-01
DAV:  11    -0.122361250122E+04    0.15689E-02   -0.10071E-03   884   0.204E-02    0.435E-01
DAV:  12    -0.122361212680E+04    0.37442E-03   -0.48895E-04   741   0.127E-02    0.341E-01
DAV:  13    -0.122361161157E+04    0.51524E-03   -0.37249E-04   715   0.104E-02    0.298E-01
DAV:  14    -0.122361163810E+04   -0.26527E-04   -0.14796E-04   676   0.735E-03
   3 F= -.12539519E+04 E0= -.12538902E+04  d E =-.976084E+00
       N       E                     dE             d eps       ncg     rms          rms(c)
DAV:   1    -0.122361045203E+04    0.11595E-02   -0.62650E-03  1196   0.770E-02    0.248E-01
DAV:   2    -0.122369792685E+04   -0.87475E-01   -0.73909E-02  1690   0.136E-01    0.657E+00
DAV:   3    -0.122364048401E+04    0.57443E-01   -0.38758E-02  1521   0.121E-01    0.875E-01
DAV:   4    -0.122361297813E+04    0.27506E-01   -0.14142E-02  1287   0.676E-02    0.486E-01
DAV:   5    -0.122361131925E+04    0.16589E-02   -0.21636E-03   975   0.253E-02    0.329E-01
DAV:   6    -0.122361074181E+04    0.57744E-03   -0.14091E-03   819   0.162E-02    0.251E-01
DAV:   7    -0.122361040162E+04    0.34019E-03   -0.13572E-03   741   0.142E-02    0.157E-01
DAV:   8    -0.122361027436E+04    0.12726E-03   -0.73228E-04   741   0.995E-03    0.157E-01
DAV:   9    -0.122361020298E+04    0.71382E-04   -0.36191E-04   676   0.760E-03
   4 F= -.12539514E+04 E0= -.12538835E+04  d E =-.975635E+00
       N       E                     dE             d eps       ncg     rms          rms(c)
DAV:   1    -0.122360968248E+04    0.59188E-03   -0.15101E-03  1131   0.369E-02    0.932E-02
DAV:   2    -0.122361336064E+04   -0.36782E-02   -0.67065E-03  1040   0.446E-02    0.691E-01
DAV:   3    -0.122361005563E+04    0.33050E-02   -0.64660E-03  1001   0.408E-02    0.174E-01
DAV:   4    -0.122360984980E+04    0.20583E-03   -0.36649E-04   767   0.109E-02    0.142E-01
DAV:   5    -0.122360974020E+04    0.10960E-03   -0.30327E-04   702   0.808E-03    0.716E-02
DAV:   6    -0.122360973793E+04    0.22710E-05   -0.27701E-04   702   0.655E-03
   5 F= -.12539514E+04 E0= -.12538838E+04  d E =-.975626E+00
       N       E                     dE             d eps       ncg     rms          rms(c)
DAV:   1    -0.122358272370E+04    0.27016E-01   -0.22175E+00  1183   0.758E-01    0.443E-01
DAV:   2    -0.122365213945E+04   -0.69416E-01   -0.13723E-01  1716   0.226E-01    0.559E+00
DAV:   3    -0.122361045810E+04    0.41681E-01   -0.40507E-02  1534   0.115E-01    0.931E-01
DAV:   4    -0.122359164034E+04    0.18818E-01   -0.13314E-02  1339   0.628E-02    0.594E-01
DAV:   5    -0.122358927279E+04    0.23675E-02   -0.50256E-03  1118   0.335E-02    0.449E-01
DAV:   6    -0.122358834298E+04    0.92981E-03   -0.88104E-03  1001   0.276E-02    0.341E-01
DAV:   7    -0.122358835834E+04   -0.15357E-04   -0.12044E-02   936   0.234E-02    0.377E-01
DAV:   8    -0.122358790594E+04    0.45240E-03   -0.10438E-02   923   0.186E-02    0.221E-01
DAV:   9    -0.122358785773E+04    0.48213E-04   -0.83237E-03   897   0.162E-02    0.242E-01
DAV:  10    -0.122358761939E+04    0.23834E-03   -0.54462E-03   767   0.110E-02    0.121E-01
DAV:  11    -0.122358765083E+04   -0.31443E-04   -0.32628E-03   728   0.963E-03    0.147E-01
DAV:  12    -0.122358753001E+04    0.12082E-03   -0.17406E-03   715   0.701E-03    0.591E-02
DAV:  13    -0.122358757749E+04   -0.47473E-04   -0.90959E-04   689   0.504E-03
   6 F= -.12539307E+04 E0= -.12538636E+04  d E =0.207042E-01
       N       E                     dE             d eps       ncg     rms          rms(c)
DAV:   1    -0.122360853247E+04   -0.21002E-01   -0.13343E+00  1196   0.594E-01    0.372E-01
DAV:   2    -0.122363060912E+04   -0.22077E-01   -0.10398E-01  1716   0.192E-01    0.113E+00
DAV:   3    -0.122361274372E+04    0.17865E-01   -0.50498E-02  1430   0.114E-01    0.383E-01
DAV:   4    -0.122361245741E+04    0.28631E-03   -0.44064E-03  1053   0.275E-02    0.377E-01
DAV:   5    -0.122361184613E+04    0.61128E-03   -0.50387E-03   988   0.252E-02    0.259E-01
DAV:   6    -0.122361179011E+04    0.56018E-04   -0.75524E-03   936   0.226E-02    0.298E-01
DAV:   7    -0.122361152781E+04    0.26230E-03   -0.96545E-03   910   0.183E-02    0.190E-01
DAV:   8    -0.122361163577E+04   -0.10795E-03   -0.69743E-03   897   0.194E-02    0.235E-01
DAV:   9    -0.122361145919E+04    0.17658E-03   -0.41081E-03   793   0.148E-02    0.142E-01
DAV:  10    -0.122361140556E+04    0.53632E-04   -0.17860E-03   728   0.901E-03    0.980E-02
DAV:  11    -0.122361135805E+04    0.47508E-04   -0.12512E-03   676   0.575E-03    0.779E-02
DAV:  12    -0.122361135012E+04    0.79325E-05   -0.65007E-04   676   0.483E-03
   7 F= -.12539533E+04 E0= -.12538862E+04  d E =-.193319E-02
       N       E                     dE             d eps       ncg     rms          rms(c)
DAV:   1    -0.122361133709E+04    0.20963E-04   -0.42577E-04   754   0.507E-03    0.513E-02
DAV:   2    -0.122361176022E+04   -0.42313E-03   -0.18862E-03   767   0.101E-02    0.324E-01
DAV:   3    -0.122361168961E+04    0.70605E-04   -0.23851E-03   806   0.177E-02    0.232E-01
DAV:   4    -0.122361139003E+04    0.29959E-03   -0.41863E-04   741   0.911E-03    0.812E-02
DAV:   5    -0.122361134451E+04    0.45513E-04   -0.12505E-04   676   0.335E-03
   8 F= -.12539533E+04 E0= -.12538864E+04  d E =-.193385E-02
       N       E                     dE             d eps       ncg     rms          rms(c)
DAV:   1    -0.122361155752E+04   -0.16749E-03   -0.79642E-02  1196   0.159E-01    0.114E-01
DAV:   2    -0.122361368669E+04   -0.21292E-02   -0.51284E-03  1118   0.454E-02    0.756E-01
DAV:   3    -0.122361206665E+04    0.16200E-02   -0.28917E-03  1001   0.304E-02    0.244E-01
DAV:   4    -0.122361177340E+04    0.29325E-03   -0.34122E-04   884   0.123E-02    0.103E-01
DAV:   5    -0.122361172976E+04    0.43645E-04   -0.26588E-04   832   0.860E-03
   9 F= -.12539538E+04 E0= -.12538870E+04  d E =-.454862E-03
       N       E                     dE             d eps       ncg     rms          rms(c)
DAV:   1    -0.122361180494E+04   -0.31534E-04   -0.67486E-03  1105   0.465E-02    0.726E-02
DAV:   2    -0.122361230887E+04   -0.50393E-03   -0.12713E-03   910   0.164E-02    0.326E-01
DAV:   3    -0.122361244880E+04   -0.13993E-03   -0.22929E-03   845   0.198E-02    0.396E-01
DAV:   4    -0.122361198688E+04    0.46193E-03   -0.92411E-04   780   0.139E-02    0.158E-01
DAV:   5    -0.122361182431E+04    0.16257E-03   -0.20025E-04   715   0.585E-03    0.592E-02
DAV:   6    -0.122361180874E+04    0.15578E-04   -0.81807E-05   715   0.512E-03
  10 F= -.12539538E+04 E0= -.12538867E+04  d E =-.513282E-03
       N       E                     dE             d eps       ncg     rms          rms(c)
DAV:   1    -0.122361200054E+04   -0.17623E-03   -0.20726E-02  1170   0.822E-02    0.569E-02
DAV:   2    -0.122361235168E+04   -0.35114E-03   -0.11658E-03   923   0.216E-02    0.275E-01
DAV:   3    -0.122361214740E+04    0.20428E-03   -0.10131E-03   819   0.169E-02    0.165E-01
DAV:   4    -0.122361203862E+04    0.10878E-03   -0.16189E-04   741   0.866E-03    0.484E-02
DAV:   5    -0.122361203760E+04    0.10163E-05   -0.12965E-04   676   0.420E-03
  11 F= -.12539540E+04 E0= -.12538868E+04  d E =-.167747E-03
       N       E                     dE             d eps       ncg     rms          rms(c)
DAV:   1    -0.122361206225E+04   -0.23632E-04   -0.65028E-03  1144   0.459E-02    0.406E-02
DAV:   2    -0.122361238335E+04   -0.32110E-03   -0.69959E-04   923   0.158E-02    0.278E-01
DAV:   3    -0.122361208603E+04    0.29732E-03   -0.65539E-04   780   0.128E-02    0.974E-02
DAV:   4    -0.122361208056E+04    0.54735E-05   -0.70123E-05   676   0.529E-03
  12 F= -.12539540E+04 E0= -.12538863E+04  d E =-.176486E-03
       N       E                     dE             d eps       ncg     rms          rms(c)
DAV:   1    -0.122361215817E+04   -0.72134E-04   -0.43602E-03  1131   0.395E-02    0.514E-02
DAV:   2    -0.122361224410E+04   -0.85933E-04   -0.76593E-04   845   0.105E-02
  13 F= -.12539542E+04 E0= -.12538862E+04  d E =-.158313E-03
       N       E                     dE             d eps       ncg     rms          rms(c)
DAV:   1    -0.122361227742E+04   -0.11926E-03   -0.88868E-03  1157   0.539E-02    0.132E-01
DAV:   2    -0.122362554224E+04   -0.13265E-01   -0.15895E-02  1170   0.558E-02    0.231E+00
DAV:   3    -0.122361588772E+04    0.96545E-02   -0.14584E-02  1144   0.571E-02    0.431E-01
DAV:   4    -0.122361306693E+04    0.28208E-02   -0.28269E-03  1014   0.261E-02    0.320E-01
DAV:   5    -0.122361240254E+04    0.66439E-03   -0.16806E-03   793   0.141E-02    0.136E-01
DAV:   6    -0.122361242727E+04   -0.24734E-04   -0.69780E-04   754   0.927E-03
  14 F= -.12539544E+04 E0= -.12538867E+04  d E =-.334559E-03
       N       E                     dE             d eps       ncg     rms          rms(c)
DAV:   1    -0.122361225902E+04    0.14352E-03   -0.21242E-03  1079   0.259E-02    0.734E-02
DAV:   2    -0.122361276162E+04   -0.50260E-03   -0.18129E-03   819   0.126E-02    0.307E-01
DAV:   3    -0.122361247543E+04    0.28619E-03   -0.25686E-03   832   0.181E-02    0.240E-01
DAV:   4    -0.122361229298E+04    0.18245E-03   -0.87586E-04   780   0.113E-02    0.108E-01
DAV:   5    -0.122361220700E+04    0.85980E-04   -0.47237E-04   676   0.495E-03
  15 F= -.12539541E+04 E0= -.12538867E+04  d E =-.111081E-03
       N       E                     dE             d eps       ncg     rms          rms(c)
DAV:   1    -0.122361226533E+04    0.27645E-04   -0.27691E-03  1131   0.352E-02    0.432E-02
DAV:   2    -0.122361294725E+04   -0.68192E-03   -0.13369E-03   871   0.185E-02    0.349E-01
DAV:   3    -0.122361233663E+04    0.61062E-03   -0.14328E-03   819   0.190E-02    0.129E-01
DAV:   4    -0.122361231107E+04    0.25556E-04   -0.11790E-04   702   0.572E-03
  16 F= -.12539543E+04 E0= -.12538876E+04  d E =-.132807E-03
       N       E                     dE             d eps       ncg     rms          rms(c)
DAV:   1    -0.122361224219E+04    0.94444E-04   -0.23806E-02  1196   0.105E-01    0.646E-02
DAV:   2    -0.122361255259E+04   -0.31040E-03   -0.91230E-04  1066   0.252E-02    0.246E-01
DAV:   3    -0.122361248434E+04    0.68243E-04   -0.10515E-03   832   0.184E-02    0.211E-01
DAV:   4    -0.122361228670E+04    0.19764E-03   -0.29371E-04   767   0.114E-02    0.542E-02
DAV:   5    -0.122361228121E+04    0.54896E-05   -0.76863E-05   676   0.453E-03
  17 F= -.12539543E+04 E0= -.12538876E+04  d E =-.189552E-03
       N       E                     dE             d eps       ncg     rms          rms(c)
DAV:   1    -0.122361229621E+04   -0.95094E-05   -0.17490E-03  1131   0.278E-02    0.404E-02
DAV:   2    -0.122361241982E+04   -0.12361E-03   -0.83089E-04   767   0.960E-03    0.160E-01
DAV:   3    -0.122361242644E+04   -0.66149E-05   -0.11742E-03   754   0.127E-02    0.166E-01
DAV:   4    -0.122361230989E+04    0.11654E-03   -0.37844E-04   728   0.838E-03    0.424E-02
DAV:   5    -0.122361229734E+04    0.12555E-04   -0.18593E-04   676   0.314E-03
  18 F= -.12539544E+04 E0= -.12538872E+04  d E =-.624485E-04
       N       E                     dE             d eps       ncg     rms          rms(c)
DAV:   1    -0.122361230160E+04    0.82891E-05   -0.14816E-02  1183   0.829E-02    0.368E-02
DAV:   2    -0.122361235271E+04   -0.51104E-04   -0.38522E-04   936   0.182E-02
  19 F= -.12539546E+04 E0= -.12538861E+04  d E =-.257026E-03
       N       E                     dE             d eps       ncg     rms          rms(c)
DAV:   1    -0.122361208242E+04    0.21918E-03   -0.59938E-02  1196   0.167E-01    0.125E-01
DAV:   2    -0.122362330458E+04   -0.11222E-01   -0.11482E-02  1586   0.641E-02    0.210E+00
DAV:   3    -0.122361473378E+04    0.85708E-02   -0.88637E-03  1222   0.530E-02    0.370E-01
DAV:   4    -0.122361254215E+04    0.21916E-02   -0.16017E-03  1014   0.260E-02    0.202E-01
DAV:   5    -0.122361223206E+04    0.31009E-03   -0.25611E-04   767   0.126E-02    0.992E-02
DAV:   6    -0.122361220382E+04    0.28239E-04   -0.18555E-04   689   0.785E-03
  20 F= -.12539547E+04 E0= -.12538870E+04  d E =-.387584E-03
       N       E                     dE             d eps       ncg     rms          rms(c)
DAV:   1    -0.122361213282E+04    0.99237E-04   -0.42847E-03  1144   0.443E-02    0.731E-02
DAV:   2    -0.122361283315E+04   -0.70033E-03   -0.30026E-03   884   0.198E-02    0.351E-01
DAV:   3    -0.122361252689E+04    0.30625E-03   -0.41900E-03   897   0.259E-02    0.336E-01
DAV:   4    -0.122361217072E+04    0.35618E-03   -0.10096E-03   754   0.129E-02    0.822E-02
DAV:   5    -0.122361212277E+04    0.47942E-04   -0.57270E-04   702   0.568E-03
  21 F= -.12539547E+04 E0= -.12538871E+04  d E =0.412158E-05
       N       E                     dE             d eps       ncg     rms          rms(c)
DAV:   1    -0.122361202521E+04    0.14550E-03   -0.13260E-02  1183   0.771E-02    0.572E-02
DAV:   2    -0.122361282747E+04   -0.80226E-03   -0.22527E-03  1001   0.271E-02    0.366E-01
DAV:   3    -0.122361219460E+04    0.63287E-03   -0.22236E-03   884   0.237E-02    0.167E-01
DAV:   4    -0.122361208286E+04    0.11174E-03   -0.21519E-04   702   0.859E-03    0.769E-02
DAV:   5    -0.122361206648E+04    0.16386E-04   -0.18116E-04   702   0.543E-03
  22 F= -.12539548E+04 E0= -.12538877E+04  d E =-.742041E-04
       N       E                     dE             d eps       ncg     rms          rms(c)
DAV:   1    -0.122361172121E+04    0.36165E-03   -0.51850E-02  1196   0.153E-01    0.766E-02
DAV:   2    -0.122361251590E+04   -0.79469E-03   -0.22117E-03  1547   0.383E-02    0.344E-01
DAV:   3    -0.122361188470E+04    0.63120E-03   -0.17477E-03   936   0.229E-02    0.180E-01
DAV:   4    -0.122361182486E+04    0.59839E-04   -0.14242E-04   754   0.911E-03
  23 F= -.12539548E+04 E0= -.12538888E+04  d E =-.102519E-03
       N       E                     dE             d eps       ncg     rms          rms(c)
DAV:   1    -0.122361180798E+04    0.76716E-04   -0.18938E-02  1196   0.919E-02    0.657E-02
DAV:   2    -0.122361192729E+04   -0.11931E-03   -0.43521E-04   936   0.206E-02    0.146E-01
DAV:   3    -0.122361190637E+04    0.20923E-04   -0.13351E-04   702   0.972E-03
  24 F= -.12539550E+04 E0= -.12538856E+04  d E =-.180307E-03
       N       E                     dE             d eps       ncg     rms          rms(c)
DAV:   1    -0.122361191260E+04    0.14693E-04   -0.61599E-03  1157   0.534E-02    0.156E-01
DAV:   2    -0.122363416933E+04   -0.22257E-01   -0.19298E-02  1222   0.673E-02    0.314E+00
DAV:   3    -0.122361885243E+04    0.15317E-01   -0.16473E-02  1196   0.704E-02    0.507E-01
DAV:   4    -0.122361263140E+04    0.62210E-02   -0.33956E-03  1118   0.349E-02    0.264E-01
DAV:   5    -0.122361197115E+04    0.66025E-03   -0.57189E-04   793   0.148E-02    0.121E-01
DAV:   6    -0.122361198331E+04   -0.12164E-04   -0.43504E-04   702   0.803E-03
  25 F= -.12539551E+04 E0= -.12538877E+04  d E =-.311969E-03
       N       E                     dE             d eps       ncg     rms          rms(c)
DAV:   1    -0.122361192231E+04    0.48845E-04   -0.44496E-03  1144   0.432E-02    0.387E-02
DAV:   2    -0.122361204015E+04   -0.11784E-03   -0.11457E-03   858   0.120E-02    0.157E-01
DAV:   3    -0.122361191610E+04    0.12405E-03   -0.10786E-03   715   0.847E-03    0.664E-02
DAV:   4    -0.122361195297E+04   -0.36872E-04   -0.46230E-04   689   0.648E-03
  26 F= -.12539551E+04 E0= -.12538883E+04  d E =0.291698E-04
       N       E                     dE             d eps       ncg     rms          rms(c)
DAV:   1    -0.122361206197E+04   -0.14587E-03   -0.37871E-02  1196   0.127E-01    0.634E-02
DAV:   2    -0.122361231815E+04   -0.25618E-03   -0.14633E-03  1209   0.291E-02    0.192E-01
DAV:   3    -0.122361234006E+04   -0.21915E-04   -0.10259E-03   806   0.166E-02    0.218E-01
DAV:   4    -0.122361218252E+04    0.15754E-03   -0.26293E-04   754   0.110E-02    0.923E-02
DAV:   5    -0.122361215656E+04    0.25956E-04   -0.62080E-05   676   0.515E-03
  27 F= -.12539553E+04 E0= -.12538878E+04  d E =-.178482E-03
       N       E                     dE             d eps       ncg     rms          rms(c)
DAV:   1    -0.122361163163E+04    0.55089E-03   -0.15006E-01  1170   0.254E-01    0.134E-01
DAV:   2    -0.122361237788E+04   -0.74626E-03   -0.62228E-03  1651   0.540E-02    0.302E-01
DAV:   3    -0.122361317945E+04   -0.80157E-03   -0.57301E-03  1001   0.313E-02    0.611E-01
DAV:   4    -0.122361211461E+04    0.10648E-02   -0.24381E-03   936   0.242E-02    0.198E-01
DAV:   5    -0.122361193249E+04    0.18213E-03   -0.61171E-04   845   0.104E-02    0.111E-01
DAV:   6    -0.122361187321E+04    0.59273E-04   -0.66027E-04   741   0.745E-03
  28 F= -.12539550E+04 E0= -.12538878E+04  d E =0.944271E-04
       N       E                     dE             d eps       ncg     rms          rms(c)
DAV:   1    -0.122361199939E+04   -0.66902E-04   -0.79984E-02  1196   0.183E-01    0.912E-02
DAV:   2    -0.122361231711E+04   -0.31772E-03   -0.25269E-03  1560   0.431E-02    0.167E-01
DAV:   3    -0.122361235646E+04   -0.39358E-04   -0.66021E-04   845   0.116E-02
  29 F= -.12539555E+04 E0= -.12538849E+04  d E =-.380994E-03
       N       E                     dE             d eps       ncg     rms          rms(c)
DAV:   1    -0.122361250150E+04   -0.18440E-03   -0.31506E-03  1235   0.365E-02    0.228E-01
DAV:   2    -0.122368418283E+04   -0.71681E-01   -0.57158E-02  1443   0.110E-01    0.596E+00
DAV:   3    -0.122363759431E+04    0.46589E-01   -0.36871E-02  1404   0.110E-01    0.747E-01
DAV:   4    -0.122361429849E+04    0.23296E-01   -0.11230E-02  1248   0.602E-02    0.418E-01
DAV:   5    -0.122361291204E+04    0.13865E-02   -0.16465E-03   936   0.219E-02    0.251E-01
DAV:   6    -0.122361269012E+04    0.22192E-03   -0.12458E-03   780   0.124E-02    0.252E-01
DAV:   7    -0.122361232324E+04    0.36688E-03   -0.84878E-04   741   0.103E-02    0.900E-02
DAV:   8    -0.122361234855E+04   -0.25305E-04   -0.43856E-04   702   0.702E-03
  30 F= -.12539555E+04 E0= -.12538878E+04  d E =0.115706E-04
       N       E                     dE             d eps       ncg     rms          rms(c)
DAV:   1    -0.122361232817E+04   -0.49255E-05   -0.20293E-02  1183   0.929E-02    0.618E-02
DAV:   2    -0.122361289240E+04   -0.56423E-03   -0.15022E-03  1066   0.280E-02    0.308E-01
DAV:   3    -0.122361249297E+04    0.39943E-03   -0.13408E-03   832   0.205E-02    0.169E-01
DAV:   4    -0.122361239546E+04    0.97511E-04   -0.85629E-05   676   0.786E-03
  31 F= -.12539555E+04 E0= -.12538888E+04  d E =-.246562E-04
       N       E                     dE             d eps       ncg     rms          rms(c)
DAV:   1    -0.122361234527E+04    0.14770E-03   -0.80004E-02  1196   0.185E-01    0.131E-01
DAV:   2    -0.122361446399E+04   -0.21187E-02   -0.54163E-03  1625   0.564E-02    0.594E-01
DAV:   3    -0.122361379193E+04    0.67206E-03   -0.63152E-03  1027   0.381E-02    0.561E-01
DAV:   4    -0.122361297511E+04    0.81683E-03   -0.16023E-03   884   0.209E-02    0.267E-01
DAV:   5    -0.122361266520E+04    0.30990E-03   -0.28329E-04   806   0.112E-02    0.196E-01
DAV:   6    -0.122361250134E+04    0.16387E-03   -0.16586E-04   741   0.934E-03    0.825E-02
DAV:   7    -0.122361264648E+04   -0.14515E-03   -0.77259E-05   663   0.802E-03    0.226E-01
DAV:   8    -0.122361245760E+04    0.18888E-03   -0.87949E-05   676   0.719E-03    0.459E-02
DAV:   9    -0.122361247643E+04   -0.18833E-04   -0.60517E-05   676   0.525E-03
  32 F= -.12539556E+04 E0= -.12538870E+04  d E =-.854979E-04
       N       E                     dE             d eps       ncg     rms          rms(c)
DAV:   1    -0.122361260708E+04   -0.14949E-03   -0.14321E-02  1170   0.777E-02    0.570E-02
DAV:   2    -0.122361378695E+04   -0.11799E-02   -0.24443E-03  1001   0.309E-02    0.425E-01
DAV:   3    -0.122361268374E+04    0.11032E-02   -0.20525E-03   923   0.259E-02    0.121E-01
DAV:   4    -0.122361264362E+04    0.40118E-04   -0.12815E-04   728   0.742E-03
  33 F= -.12539557E+04 E0= -.12538884E+04  d E =-.151513E-03
       N       E                     dE             d eps       ncg     rms          rms(c)
DAV:   1    -0.122361275966E+04   -0.75925E-04   -0.99352E-02  1196   0.204E-01    0.114E-01
DAV:   2    -0.122361446103E+04   -0.17014E-02   -0.58870E-03  1651   0.600E-02    0.513E-01
DAV:   3    -0.122361350936E+04    0.95167E-03   -0.46465E-03   975   0.328E-02    0.369E-01
DAV:   4    -0.122361317471E+04    0.33465E-03   -0.73847E-04   832   0.157E-02    0.204E-01
DAV:   5    -0.122361301048E+04    0.16422E-03   -0.13763E-04   728   0.761E-03    0.131E-01
DAV:   6    -0.122361292649E+04    0.83990E-04   -0.19911E-04   780   0.102E-02
  34 F= -.12539560E+04 E0= -.12538877E+04  d E =-.394417E-03
       N       E                     dE             d eps       ncg     rms          rms(c)
DAV:   1    -0.122361315969E+04   -0.14921E-03   -0.22991E-02  1183   0.992E-02    0.145E-01
DAV:   2    -0.122362061634E+04   -0.74566E-02   -0.16298E-02  1417   0.708E-02    0.897E-01
DAV:   3    -0.122361376945E+04    0.68469E-02   -0.15478E-02  1144   0.629E-02    0.242E-01
DAV:   4    -0.122361340786E+04    0.36159E-03   -0.10245E-03   871   0.159E-02    0.178E-01
DAV:   5    -0.122361323400E+04    0.17387E-03   -0.71791E-04   728   0.119E-02    0.128E-01
DAV:   6    -0.122361314718E+04    0.86816E-04   -0.51373E-04   728   0.109E-02
  35 F= -.12539562E+04 E0= -.12538883E+04  d E =-.257292E-03
       N       E                     dE             d eps       ncg     rms          rms(c)
DAV:   1    -0.122361314985E+04    0.84149E-04   -0.58650E-02  1196   0.158E-01    0.152E-01
DAV:   2    -0.122362164407E+04   -0.84942E-02   -0.21903E-02  1625   0.848E-02    0.908E-01
DAV:   3    -0.122361353578E+04    0.81083E-02   -0.17831E-02  1209   0.707E-02    0.186E-01
DAV:   4    -0.122361344178E+04    0.94002E-04   -0.18729E-03   858   0.157E-02    0.211E-01
DAV:   5    -0.122361324772E+04    0.19406E-03   -0.16472E-03   741   0.128E-02    0.119E-01
DAV:   6    -0.122361322097E+04    0.26749E-04   -0.12562E-03   780   0.119E-02    0.111E-01
DAV:   7    -0.122361319587E+04    0.25106E-04   -0.13014E-03   754   0.116E-02    0.991E-02
DAV:   8    -0.122361317078E+04    0.25089E-04   -0.88572E-04   676   0.718E-03
  36 F= -.12539563E+04 E0= -.12538895E+04  d E =-.340097E-03
       N       E                     dE             d eps       ncg     rms          rms(c)
DAV:   1    -0.122361323495E+04   -0.39089E-04   -0.22488E-02  1183   0.968E-02    0.851E-02
DAV:   2    -0.122361648934E+04   -0.32544E-02   -0.69351E-03  1287   0.485E-02    0.645E-01
DAV:   3    -0.122361336249E+04    0.31269E-02   -0.60571E-03  1001   0.385E-02    0.126E-01
DAV:   4    -0.122361336574E+04   -0.32503E-05   -0.65820E-04   780   0.106E-02
  37 F= -.12539566E+04 E0= -.12538905E+04  d E =-.300439E-03
       N       E                     dE             d eps       ncg     rms          rms(c)
DAV:   1    -0.122361290688E+04    0.45561E-03   -0.15399E-01  1183   0.255E-01    0.126E-01
DAV:   2    -0.122361420300E+04   -0.12961E-02   -0.54631E-03  1716   0.660E-02    0.437E-01
DAV:   3    -0.122361359156E+04    0.61144E-03   -0.29457E-03   897   0.281E-02    0.325E-01
DAV:   4    -0.122361338635E+04    0.20520E-03   -0.69232E-04   832   0.161E-02    0.206E-01
DAV:   5    -0.122361327536E+04    0.11099E-03   -0.21196E-04   845   0.102E-02    0.158E-01
DAV:   6    -0.122361323489E+04    0.40471E-04   -0.27838E-04   806   0.114E-02
  38 F= -.12539568E+04 E0= -.12538875E+04  d E =-.450304E-03
       N       E                     dE             d eps       ncg     rms          rms(c)
DAV:   1    -0.122361330437E+04   -0.29015E-04   -0.21758E-02  1183   0.983E-02    0.130E-01
DAV:   2    -0.122361710346E+04   -0.37991E-02   -0.72323E-03  1313   0.520E-02    0.741E-01
DAV:   3    -0.122361456149E+04    0.25420E-02   -0.94389E-03  1118   0.496E-02    0.485E-01
DAV:   4    -0.122361387465E+04    0.68684E-03   -0.10846E-03   871   0.186E-02    0.271E-01
DAV:   5    -0.122361347841E+04    0.39624E-03   -0.22253E-04   715   0.101E-02    0.137E-01
DAV:   6    -0.122361335889E+04    0.11952E-03   -0.16686E-04   728   0.993E-03    0.891E-02
DAV:   7    -0.122361337785E+04   -0.18954E-04   -0.88456E-05   663   0.726E-03
  39 F= -.12539570E+04 E0= -.12538882E+04  d E =-.224278E-03
       N       E                     dE             d eps       ncg     rms          rms(c)
DAV:   1    -0.122361329857E+04    0.60323E-04   -0.12111E-02  1170   0.729E-02    0.718E-02
DAV:   2    -0.122361503026E+04   -0.17317E-02   -0.40896E-03  1079   0.337E-02    0.499E-01
DAV:   3    -0.122361342194E+04    0.16083E-02   -0.38998E-03  1001   0.324E-02    0.172E-01
DAV:   4    -0.122361332683E+04    0.95112E-04   -0.34088E-04   741   0.922E-03
  40 F= -.12539570E+04 E0= -.12538907E+04  d E =-.233906E-03
       N       E                     dE             d eps       ncg     rms          rms(c)
DAV:   1    -0.122361340411E+04    0.17827E-04   -0.14245E-02  1170   0.797E-02    0.753E-02
DAV:   2    -0.122361390720E+04   -0.50309E-03   -0.15635E-03   923   0.240E-02    0.331E-01
DAV:   3    -0.122361383180E+04    0.75400E-04   -0.24040E-03   923   0.240E-02    0.282E-01
DAV:   4    -0.122361344110E+04    0.39070E-03   -0.64460E-04   780   0.147E-02    0.650E-02
DAV:   5    -0.122361341993E+04    0.21176E-04   -0.25310E-04   676   0.517E-03
  41 F= -.12539572E+04 E0= -.12538903E+04  d E =-.178622E-03
       N       E                     dE             d eps       ncg     rms          rms(c)
DAV:   1    -0.122361335726E+04    0.83846E-04   -0.22608E-02  1183   0.101E-01    0.700E-02
DAV:   2    -0.122361419918E+04   -0.84192E-03   -0.27720E-03   975   0.297E-02    0.460E-01
DAV:   3    -0.122361367828E+04    0.52090E-03   -0.24642E-03   949   0.242E-02    0.211E-01
DAV:   4    -0.122361343518E+04    0.24310E-03   -0.27602E-04   754   0.117E-02    0.809E-02
DAV:   5    -0.122361340888E+04    0.26298E-04   -0.19688E-04   689   0.580E-03
  42 F= -.12539573E+04 E0= -.12538902E+04  d E =-.277100E-03
       N       E                     dE             d eps       ncg     rms          rms(c)
DAV:   1    -0.122361342802E+04    0.71542E-05   -0.19775E-02  1170   0.900E-02    0.696E-02
DAV:   2    -0.122361381619E+04   -0.38817E-03   -0.79733E-04   936   0.235E-02    0.278E-01
DAV:   3    -0.122361380004E+04    0.16153E-04   -0.14026E-03   897   0.222E-02    0.260E-01
DAV:   4    -0.122361345176E+04    0.34827E-03   -0.46490E-04   793   0.149E-02    0.550E-02
DAV:   5    -0.122361344488E+04    0.68810E-05   -0.72265E-05   676   0.519E-03
  43 F= -.12539575E+04 E0= -.12538910E+04  d E =-.203268E-03
       N       E                     dE             d eps       ncg     rms          rms(c)
DAV:   1    -0.122361330245E+04    0.14931E-03   -0.20127E-02  1170   0.903E-02    0.657E-02
DAV:   2    -0.122361388884E+04   -0.58639E-03   -0.22194E-03   975   0.281E-02    0.372E-01
DAV:   3    -0.122361359669E+04    0.29215E-03   -0.21929E-03   910   0.227E-02    0.221E-01
DAV:   4    -0.122361335552E+04    0.24118E-03   -0.33902E-04   767   0.123E-02    0.674E-02
DAV:   5    -0.122361333446E+04    0.21060E-04   -0.19180E-04   676   0.511E-03
  44 F= -.12539575E+04 E0= -.12538905E+04  d E =-.261289E-03
       N       E                     dE             d eps       ncg     rms          rms(c)
DAV:   1    -0.122361336254E+04   -0.70238E-05   -0.67844E-03  1131   0.525E-02    0.452E-02
DAV:   2    -0.122361381312E+04   -0.45058E-03   -0.86353E-04   910   0.193E-02    0.328E-01
DAV:   3    -0.122361342470E+04    0.38841E-03   -0.96858E-04   819   0.166E-02    0.137E-01
DAV:   4    -0.122361337961E+04    0.45093E-04   -0.12780E-04   689   0.756E-03
  45 F= -.12539577E+04 E0= -.12538898E+04  d E =-.128502E-03
       N       E                     dE             d eps       ncg     rms          rms(c)
DAV:   1    -0.122361328686E+04    0.13784E-03   -0.61266E-02  1196   0.158E-01    0.959E-02
DAV:   2    -0.122361889475E+04   -0.56079E-02   -0.75522E-03  1391   0.591E-02    0.140E+00
DAV:   3    -0.122361438352E+04    0.45112E-02   -0.47458E-03  1027   0.388E-02    0.249E-01
DAV:   4    -0.122361360678E+04    0.77673E-03   -0.75887E-04   949   0.188E-02    0.173E-01
DAV:   5    -0.122361343879E+04    0.16800E-03   -0.14205E-04   702   0.934E-03    0.985E-02
DAV:   6    -0.122361340914E+04    0.29650E-04   -0.10829E-04   702   0.746E-03
  46 F= -.12539580E+04 E0= -.12538905E+04  d E =-.408984E-03
       N       E                     dE             d eps       ncg     rms          rms(c)
DAV:   1    -0.122361253043E+04    0.90836E-03   -0.24316E-01  1170   0.314E-01    0.194E-01
DAV:   2    -0.122364249871E+04   -0.29968E-01   -0.32217E-02  1703   0.121E-01    0.370E+00
DAV:   3    -0.122362194046E+04    0.20558E-01   -0.18695E-02  1417   0.782E-02    0.554E-01
DAV:   4    -0.122361419104E+04    0.77494E-02   -0.48237E-03  1222   0.419E-02    0.394E-01
DAV:   5    -0.122361329753E+04    0.89351E-03   -0.66887E-04   858   0.187E-02    0.207E-01
DAV:   6    -0.122361310471E+04    0.19281E-03   -0.47934E-04   858   0.139E-02    0.188E-01
DAV:   7    -0.122361306299E+04    0.41726E-04   -0.32438E-04   832   0.129E-02
  47 F= -.12539581E+04 E0= -.12538907E+04  d E =-.568876E-03
       N       E                     dE             d eps       ncg     rms          rms(c)
DAV:   1    -0.122361317985E+04   -0.75138E-04   -0.70530E-02  1196   0.170E-01    0.147E-01
DAV:   2    -0.122362264186E+04   -0.94620E-02   -0.23713E-02  1586   0.951E-02    0.939E-01
DAV:   3    -0.122361374537E+04    0.88965E-02   -0.15718E-02  1157   0.642E-02    0.205E-01
DAV:   4    -0.122361355561E+04    0.18975E-03   -0.95952E-04   884   0.164E-02    0.252E-01
DAV:   5    -0.122361332102E+04    0.23459E-03   -0.41458E-04   754   0.123E-02    0.909E-02
DAV:   6    -0.122361339191E+04   -0.70894E-04   -0.37852E-04   715   0.996E-03
  48 F= -.12539582E+04 E0= -.12538936E+04  d E =-.626150E-03
       N       E                     dE             d eps       ncg     rms          rms(c)
DAV:   1    -0.122361330661E+04    0.14411E-04   -0.13324E-02  1131   0.698E-02    0.986E-02
DAV:   2    -0.122362285353E+04   -0.95469E-02   -0.11060E-02  1209   0.552E-02    0.191E+00
DAV:   3    -0.122361531431E+04    0.75392E-02   -0.78790E-03  1170   0.502E-02    0.356E-01
DAV:   4    -0.122361349150E+04    0.18228E-02   -0.13613E-03  1001   0.227E-02    0.102E-01
DAV:   5    -0.122361339780E+04    0.93695E-04   -0.52662E-04   702   0.907E-03
  49 F= -.12539583E+04 E0= -.12538923E+04  d E =-.834298E-04
       N       E                     dE             d eps       ncg     rms          rms(c)
DAV:   1    -0.122361327906E+04    0.21244E-03   -0.28617E-03  1118   0.322E-02    0.600E-02
DAV:   2    -0.122361482361E+04   -0.15445E-02   -0.30204E-03   910   0.243E-02    0.660E-01
DAV:   3    -0.122361341947E+04    0.14041E-02   -0.27930E-03   910   0.248E-02    0.196E-01
DAV:   4    -0.122361329707E+04    0.12240E-03   -0.43842E-04   754   0.850E-03    0.703E-02
DAV:   5    -0.122361326754E+04    0.29531E-04   -0.48723E-04   676   0.462E-03
  50 F= -.12539582E+04 E0= -.12538914E+04  d E =0.112863E-04
       N       E                     dE             d eps       ncg     rms          rms(c)
DAV:   1    -0.122361326547E+04    0.31602E-04   -0.11649E-02  1144   0.700E-02    0.432E-02
DAV:   2    -0.122361386450E+04   -0.59903E-03   -0.98342E-04   936   0.214E-02    0.389E-01
DAV:   3    -0.122361332518E+04    0.53932E-03   -0.69669E-04   858   0.164E-02    0.929E-02
DAV:   4    -0.122361328858E+04    0.36599E-04   -0.51387E-05   689   0.650E-03
  51 F= -.12539583E+04 E0= -.12538909E+04  d E =-.153096E-03
       N       E                     dE             d eps       ncg     rms          rms(c)
DAV:   1    -0.122361312211E+04    0.20307E-03   -0.46418E-02  1196   0.140E-01    0.841E-02
DAV:   2    -0.122361350207E+04   -0.37996E-03   -0.15149E-03  1287   0.330E-02    0.288E-01
DAV:   3    -0.122361375520E+04   -0.25313E-03   -0.18721E-03   910   0.219E-02    0.315E-01
DAV:   4    -0.122361326937E+04    0.48583E-03   -0.80715E-04   780   0.166E-02    0.126E-01
DAV:   5    -0.122361324576E+04    0.23607E-04   -0.89418E-05   715   0.640E-03
  52 F= -.12539585E+04 E0= -.12538925E+04  d E =-.375981E-03
       N       E                     dE             d eps       ncg     rms          rms(c)
DAV:   1    -0.122361318082E+04    0.88547E-04   -0.17867E-02  1157   0.800E-02    0.631E-02
DAV:   2    -0.122361405287E+04   -0.87205E-03   -0.20389E-03   923   0.239E-02    0.462E-01
DAV:   3    -0.122361335590E+04    0.69697E-03   -0.20291E-03   949   0.227E-02    0.205E-01
DAV:   4    -0.122361321186E+04    0.14405E-03   -0.27850E-04   754   0.936E-03    0.502E-02
DAV:   5    -0.122361319565E+04    0.16208E-04   -0.28552E-04   676   0.444E-03
  53 F= -.12539586E+04 E0= -.12538919E+04  d E =-.779747E-04
       N       E                     dE             d eps       ncg     rms          rms(c)
DAV:   1    -0.122361316902E+04    0.42842E-04   -0.24824E-04   780   0.749E-03    0.322E-02
DAV:   2    -0.122361335069E+04   -0.18167E-03   -0.57482E-04   728   0.835E-03    0.197E-01
DAV:   3    -0.122361323605E+04    0.11464E-03   -0.72597E-04   728   0.114E-02    0.127E-01
DAV:   4    -0.122361317638E+04    0.59670E-04   -0.14171E-04   702   0.559E-03
  54 F= -.12539586E+04 E0= -.12538912E+04  d E =-.691614E-04
       N       E                     dE             d eps       ncg     rms          rms(c)
DAV:   1    -0.122361319341E+04    0.42641E-04   -0.12311E-02  1157   0.770E-02    0.336E-02
DAV:   2    -0.122361327514E+04   -0.81729E-04   -0.35944E-04   910   0.165E-02
  55 F= -.12539588E+04 E0= -.12538934E+04  d E =-.175592E-03
       N       E                     dE             d eps       ncg     rms          rms(c)
DAV:   1    -0.122361322573E+04   -0.32318E-04   -0.15025E-02  1170   0.854E-02    0.111E-01
DAV:   2    -0.122361893609E+04   -0.57104E-02   -0.10523E-02  1352   0.547E-02    0.770E-01
DAV:   3    -0.122361346136E+04    0.54747E-02   -0.94105E-03  1131   0.503E-02    0.134E-01
DAV:   4    -0.122361331437E+04    0.14698E-03   -0.33383E-04   806   0.115E-02    0.138E-01
DAV:   5    -0.122361325211E+04    0.62265E-04   -0.15286E-04   715   0.110E-02
  56 F= -.12539588E+04 E0= -.12538907E+04  d E =-.236919E-03
       N       E                     dE             d eps       ncg     rms          rms(c)
DAV:   1    -0.122361291259E+04    0.40179E-03   -0.58205E-02  1196   0.168E-01    0.707E-02
DAV:   2    -0.122361315873E+04   -0.24614E-03   -0.15547E-03  1495   0.373E-02    0.179E-01
DAV:   3    -0.122361320053E+04   -0.41800E-04   -0.83902E-04   832   0.178E-02
  57 F= -.12539590E+04 E0= -.12538876E+04  d E =-.354905E-03
       N       E                     dE             d eps       ncg     rms          rms(c)
DAV:   1    -0.122361303202E+04    0.12670E-03   -0.16367E-03  1170   0.288E-02    0.982E-02
DAV:   2    -0.122362313300E+04   -0.10101E-01   -0.94728E-03  1196   0.486E-02    0.199E+00
DAV:   3    -0.122361517263E+04    0.79604E-02   -0.75411E-03  1092   0.484E-02    0.324E-01
DAV:   4    -0.122361330710E+04    0.18655E-02   -0.13890E-03   988   0.225E-02    0.176E-01
DAV:   5    -0.122361306092E+04    0.24618E-03   -0.20976E-04   702   0.972E-03    0.713E-02
DAV:   6    -0.122361305001E+04    0.10910E-04   -0.12906E-04   676   0.604E-03
  58 F= -.12539588E+04 E0= -.12538909E+04  d E =0.132829E-03
       N       E                     dE             d eps       ncg     rms          rms(c)
DAV:   1    -0.122361300667E+04    0.54250E-04   -0.52186E-03  1131   0.483E-02    0.589E-02
DAV:   2    -0.122361453653E+04   -0.15299E-02   -0.30264E-03   936   0.284E-02    0.473E-01
DAV:   3    -0.122361308276E+04    0.14538E-02   -0.28532E-03   949   0.278E-02    0.123E-01
DAV:   4    -0.122361301619E+04    0.66575E-04   -0.21978E-04   728   0.704E-03
  59 F= -.12539588E+04 E0= -.12538921E+04  d E =0.131705E-03
       N       E                     dE             d eps       ncg     rms          rms(c)
DAV:   1    -0.122361296341E+04    0.11935E-03   -0.21123E-02  1170   0.959E-02    0.883E-02
DAV:   2    -0.122361397502E+04   -0.10116E-02   -0.25097E-03   975   0.320E-02    0.435E-01
DAV:   3    -0.122361378502E+04    0.19000E-03   -0.36759E-03   936   0.286E-02    0.419E-01
DAV:   4    -0.122361320323E+04    0.58180E-03   -0.80605E-04   806   0.158E-02    0.164E-01
DAV:   5    -0.122361305831E+04    0.14492E-03   -0.11643E-04   702   0.754E-03    0.105E-01
DAV:   6    -0.122361298802E+04    0.70289E-04   -0.71222E-05   715   0.654E-03
  60 F= -.12539589E+04 E0= -.12538913E+04  d E =0.896831E-04
       N       E                     dE             d eps       ncg     rms          rms(c)
DAV:   1    -0.122361312561E+04   -0.67295E-04   -0.58525E-04   845   0.177E-02    0.975E-02
DAV:   2    -0.122361437190E+04   -0.12463E-02   -0.17492E-03   871   0.197E-02    0.490E-01
DAV:   3    -0.122361432917E+04    0.42738E-04   -0.43518E-03   897   0.314E-02    0.546E-01
DAV:   4    -0.122361343057E+04    0.89860E-03   -0.11077E-03   806   0.166E-02    0.188E-01
DAV:   5    -0.122361319216E+04    0.23841E-03   -0.18102E-04   715   0.757E-03    0.116E-01
DAV:   6    -0.122361312322E+04    0.68939E-04   -0.67498E-05   689   0.532E-03
  61 F= -.12539590E+04 E0= -.12538921E+04  d E =-.129455E-03
       N       E                     dE             d eps       ncg     rms          rms(c)
DAV:   1    -0.122361332287E+04   -0.13071E-03   -0.49297E-03  1131   0.506E-02    0.648E-02
DAV:   2    -0.122361409086E+04   -0.76800E-03   -0.13357E-03   897   0.203E-02    0.387E-01
DAV:   3    -0.122361373930E+04    0.35157E-03   -0.21655E-03   845   0.227E-02    0.300E-01
DAV:   4    -0.122361345339E+04    0.28591E-03   -0.45701E-04   780   0.108E-02    0.138E-01
DAV:   5    -0.122361333933E+04    0.11406E-03   -0.84698E-05   689   0.516E-03    0.528E-02
DAV:   6    -0.122361332865E+04    0.10679E-04   -0.34960E-05   676   0.443E-03
  62 F= -.12539592E+04 E0= -.12538921E+04  d E =-.317805E-03
       N       E                     dE             d eps       ncg     rms          rms(c)
DAV:   1    -0.122361329855E+04    0.40783E-04   -0.19572E-02  1170   0.100E-01    0.686E-02
DAV:   2    -0.122361360384E+04   -0.30529E-03   -0.20617E-03  1001   0.240E-02    0.240E-01
DAV:   3    -0.122361374048E+04   -0.13664E-03   -0.24166E-03   884   0.195E-02    0.329E-01
DAV:   4    -0.122361344297E+04    0.29751E-03   -0.88764E-04   780   0.135E-02    0.129E-01
DAV:   5    -0.122361336468E+04    0.78290E-04   -0.17154E-04   715   0.602E-03
  63 F= -.12539592E+04 E0= -.12538919E+04  d E =-.320356E-03
       N       E                     dE             d eps       ncg     rms          rms(c)
DAV:   1    -0.122361338794E+04    0.55024E-04   -0.50560E-03  1144   0.500E-02    0.575E-02
DAV:   2    -0.122361355037E+04   -0.16243E-03   -0.14126E-03   871   0.137E-02    0.177E-01
DAV:   3    -0.122361348153E+04    0.68844E-04   -0.17256E-03   741   0.913E-03    0.136E-01
DAV:   4    -0.122361346431E+04    0.17218E-04   -0.86230E-04   715   0.860E-03
  64 F= -.12539593E+04 E0= -.12538906E+04  d E =-.436266E-03
       N       E                     dE             d eps       ncg     rms          rms(c)
DAV:   1    -0.122361349571E+04   -0.14179E-04   -0.17660E-03  1118   0.318E-02    0.497E-02
DAV:   2    -0.122361407830E+04   -0.58259E-03   -0.10253E-03   858   0.139E-02    0.385E-01
DAV:   3    -0.122361376060E+04    0.31770E-03   -0.15824E-03   845   0.180E-02    0.204E-01
DAV:   4    -0.122361357318E+04    0.18742E-03   -0.27902E-04   741   0.860E-03    0.106E-01
DAV:   5    -0.122361349559E+04    0.77590E-04   -0.50607E-05   676   0.399E-03
  65 F= -.12539593E+04 E0= -.12538924E+04  d E =-.316700E-04
       N       E                     dE             d eps       ncg     rms          rms(c)
DAV:   1    -0.122361358059E+04   -0.74122E-05   -0.45841E-03  1131   0.553E-02    0.552E-02
DAV:   2    -0.122361380111E+04   -0.22052E-03   -0.36640E-04   897   0.161E-02    0.219E-01
DAV:   3    -0.122361392737E+04   -0.12626E-03   -0.89838E-04   806   0.160E-02    0.290E-01
DAV:   4    -0.122361365965E+04    0.26772E-03   -0.41718E-04   741   0.111E-02    0.109E-01
DAV:   5    -0.122361362077E+04    0.38878E-04   -0.57133E-05   676   0.529E-03
  66 F= -.12539595E+04 E0= -.12538912E+04  d E =-.157768E-03
       N       E                     dE             d eps       ncg     rms          rms(c)
DAV:   1    -0.122361358067E+04    0.78985E-04   -0.79034E-04  1066   0.235E-02    0.352E-02
DAV:   2    -0.122361366054E+04   -0.79877E-04   -0.50807E-05   663   0.695E-03
  67 F= -.12539595E+04 E0= -.12538921E+04  d E =-.197998E-03
       N       E                     dE             d eps       ncg     rms          rms(c)
DAV:   1    -0.122361362275E+04   -0.42081E-04   -0.17453E-03  1001   0.272E-02    0.414E-02
DAV:   2    -0.122361421084E+04   -0.58809E-03   -0.63151E-04   884   0.153E-02    0.390E-01
DAV:   3    -0.122361383173E+04    0.37911E-03   -0.90797E-04   793   0.154E-02    0.155E-01
DAV:   4    -0.122361369283E+04    0.13890E-03   -0.15023E-04   702   0.731E-03    0.110E-01
DAV:   5    -0.122361361671E+04    0.76124E-04   -0.28369E-05   676   0.347E-03
  68 F= -.12539595E+04 E0= -.12538923E+04  d E =0.395832E-04
       N       E                     dE             d eps       ncg     rms          rms(c)
DAV:   1    -0.122361363988E+04    0.52947E-04   -0.11662E-03   897   0.221E-02    0.495E-02
DAV:   2    -0.122361376687E+04   -0.12699E-03   -0.14192E-04   793   0.744E-03    0.169E-01
DAV:   3    -0.122361395794E+04   -0.19106E-03   -0.62225E-04   767   0.124E-02    0.279E-01
DAV:   4    -0.122361369373E+04    0.26421E-03   -0.31881E-04   741   0.921E-03    0.829E-02
DAV:   5    -0.122361365861E+04    0.35123E-04   -0.42662E-05   663   0.396E-03
  69 F= -.12539595E+04 E0= -.12538916E+04  d E =-.591969E-05
       N       E                     dE             d eps       ncg     rms          rms(c)
DAV:   1    -0.122361366372E+04    0.30006E-04   -0.13681E-03  1053   0.274E-02    0.327E-02
DAV:   2    -0.122361376277E+04   -0.99046E-04   -0.88914E-05   819   0.729E-03
  70 F= -.12539596E+04 E0= -.12538906E+04  d E =-.120135E-03
