<?xml version="1.0" encoding="ISO-8859-1"?>
<modeling>
 <generator>
  <i name="program" type="string">vasp </i>
  <i name="version" type="string">5.4.4.18Apr17-6-g9f103f2a35  </i>
  <i name="subversion" type="string">(build Oct 28 2020 13:00:36) gamma-only         parallel </i>
  <i name="platform" type="string">LinuxIFC </i>
  <i name="date" type="string">2020 12 03 </i>
  <i name="time" type="string">06:19:58 </i>
 </generator>
 <incar>
  <i type="string" name="SYSTEM"> basalPlane</i>
  <i type="int" name="ISTART">     0</i>
  <i type="string" name="PREC">accurate  !=accurate, max(enmax) no wra</i>
  <i type="string" name="ALGO"> Normal    !=Normal, blocked Davidson it</i>
  <i type="int" name="NSIM">     4</i>
  <i type="int" name="ISPIN">     1</i>
  <i type="int" name="ICHARG">     2</i>
  <i type="int" name="INIWAV">     1</i>
  <i type="int" name="NELM">   200</i>
  <i type="int" name="NELMDL">    -5</i>
  <i type="int" name="NELMIN">     2</i>
  <i type="int" name="IBRION">     2</i>
  <i name="EDIFF">      0.00010000</i>
  <i name="EDIFFG">     -0.02000000</i>
  <i type="int" name="NSW"> 10000</i>
  <i type="int" name="ISIF">     2</i>
  <i type="int" name="ISYM">     2</i>
  <i name="ENCUT">    400.00000000</i>
  <i name="ENAUG">    645.00000000</i>
  <i type="string" name="LREAL"> Auto     !=Auto projection operators ev</i>
  <i type="logical" name="LPLANE"> T  </i>
  <i type="int" name="ISMEAR">     0</i>
  <i name="SIGMA">      0.10000000</i>
  <i type="int" name="NWRITE">     2</i>
  <i type="logical" name="LWAVE"> F  </i>
  <i type="logical" name="LCHARG"> F  </i>
  <i type="int" name="LORBIT">     0</i>
  <i type="logical" name="LELF"> F  </i>
  <i type="logical" name="LSCALU"> F  </i>
  <v type="int" name="KPOINT_BSE">    -1     0     0     0</v>
  <i type="int" name="NELM">   200</i>
 </incar>
 <structure name="primitive_cell" >
  <crystal>
   <varray name="basis" >
    <v>      15.90000000       0.00000000       0.00000000 </v>
    <v>      -7.95000000      13.76980392       0.00000000 </v>
    <v>       0.00000000       0.00000000      32.38000000 </v>
   </varray>
   <i name="volume">   7089.27338987 </i>
   <varray name="rec_basis" >
    <v>       0.06289308       0.03631134       0.00000000 </v>
    <v>       0.00000000       0.07262268       0.00000000 </v>
    <v>       0.00000000       0.00000000       0.03088326 </v>
   </varray>
  </crystal>
  <varray name="positions" >
   <v>       0.14460529       0.02592979       0.01992350 </v>
   <v>       0.16662177      -0.02866779       0.02186957 </v>
   <v>       0.09912890       0.04999164       0.05197921 </v>
   <v>       0.15060431       0.08079915      -0.01594908 </v>
   <v>      -0.00061765      -0.00523148      -0.00023816 </v>
   <v>       0.08150934       0.01764203       0.08261500 </v>
   <v>       0.18104493       0.07750717      -0.04558213 </v>
   <v>       0.07632984       0.12060297       0.03634572 </v>
   <v>       0.10852852       0.14025875      -0.00607879 </v>
   <v>       0.04231043       0.15435187       0.05358332 </v>
   <v>       0.10466839       0.19260862      -0.02643735 </v>
   <v>      -0.09131293      -0.14606228      -0.02910348 </v>
   <v>      -0.12267724      -0.14253200       0.01212144 </v>
   <v>      -0.06433115      -0.19303043      -0.03988749 </v>
   <v>      -0.12779181      -0.18936061       0.03762840 </v>
   <v>      -0.09819069      -0.07491510      -0.05324654 </v>
   <v>      -0.14896391      -0.06772317       0.01313689 </v>
   <v>      -0.13320039      -0.02621101      -0.02756073 </v>
   <v>      -0.07544417      -0.05699797      -0.08527709 </v>
   <v>      -0.17802168      -0.04819173       0.03949722 </v>
   <v>       0.13333333       0.06666667       0.16985794 </v>
   <v>      -0.14450399       0.03302682      -0.03700754 </v>
   <v>       0.13333333      -0.13333333       0.16985794 </v>
   <v>       0.33333333       0.06666667       0.16985794 </v>
   <v>      -0.06666667      -0.13333333       0.16985794 </v>
   <v>       0.33333333       0.26666667       0.16985794 </v>
   <v>      -0.06666667       0.06666667       0.16985794 </v>
   <v>       0.13333333       0.26666667       0.16985794 </v>
   <v>       0.20000000       0.00000000       0.21911674 </v>
   <v>       0.00000000       0.00000000       0.21911674 </v>
   <v>       0.33333333      -0.13333333       0.16985794 </v>
   <v>       0.20000000       0.20000000       0.21911674 </v>
   <v>      -0.06666667      -0.33333333       0.16985794 </v>
   <v>       0.00000000      -0.20000000       0.21911674 </v>
   <v>      -0.46666667       0.26666667       0.16985794 </v>
   <v>       0.40000000       0.20000000       0.21911674 </v>
   <v>       0.13333333      -0.33333333       0.16985794 </v>
   <v>      -0.26666667      -0.13333333       0.16985794 </v>
   <v>      -0.46666667       0.06666667       0.16985794 </v>
   <v>       0.20000000      -0.20000000       0.21911674 </v>
   <v>       0.40000000       0.00000000       0.21911674 </v>
   <v>       0.33333333       0.46666667       0.16985794 </v>
   <v>       0.00000000       0.20000000       0.21911674 </v>
   <v>      -0.26666667      -0.33333333       0.16985794 </v>
   <v>      -0.06666667       0.26666667       0.16985794 </v>
   <v>      -0.20000000      -0.20000000       0.21911674 </v>
   <v>       0.13333333       0.06666667       0.26837554 </v>
   <v>      -0.46666667       0.46666667       0.16985794 </v>
   <v>       0.40000000       0.40000000       0.21911674 </v>
   <v>      -0.20000000       0.00000000       0.21911674 </v>
   <v>       0.13333333      -0.13333333       0.26837554 </v>
   <v>      -0.26666667       0.06666667       0.16985794 </v>
   <v>       0.33333333       0.06666667       0.26837554 </v>
   <v>       0.20000000       0.40000000       0.21911674 </v>
   <v>      -0.06666667      -0.13333333       0.26837554 </v>
   <v>       0.13333333       0.46666667       0.16985794 </v>
   <v>       0.33333333       0.26666667       0.26837554 </v>
   <v>       0.00000000      -0.40000000       0.21911674 </v>
   <v>      -0.06666667       0.06666667       0.26837554 </v>
   <v>       0.13333333       0.26666667       0.26837554 </v>
   <v>      -0.20000000      -0.40000000       0.21911674 </v>
   <v>      -0.40000000       0.20000000       0.21911674 </v>
   <v>       0.33333333      -0.33333333       0.16985794 </v>
   <v>      -0.46666667      -0.13333333       0.16985794 </v>
   <v>      -0.06666667       0.46666667       0.16985794 </v>
   <v>       0.40000000      -0.20000000       0.21911674 </v>
   <v>      -0.40000000       0.40000000       0.21911674 </v>
   <v>      -0.26666667       0.46666667       0.16985794 </v>
   <v>       0.33333333      -0.13333333       0.26837554 </v>
   <v>      -0.06666667      -0.33333333       0.26837554 </v>
   <v>      -0.26666667       0.26666667       0.16985794 </v>
   <v>      -0.46666667       0.26666667       0.26837554 </v>
   <v>       0.20000000      -0.40000000       0.21911674 </v>
   <v>      -0.20000000       0.20000000       0.21911674 </v>
   <v>      -0.46666667      -0.33333333       0.16985794 </v>
   <v>       0.00000000       0.40000000       0.21911674 </v>
   <v>       0.13333333      -0.33333333       0.26837554 </v>
   <v>      -0.40000000       0.00000000       0.21911674 </v>
   <v>      -0.26666667      -0.13333333       0.26837554 </v>
   <v>      -0.40000000      -0.20000000       0.21911674 </v>
   <v>      -0.46666667       0.06666667       0.26837554 </v>
   <v>       0.33333333       0.46666667       0.26837554 </v>
   <v>      -0.26666667      -0.33333333       0.26837554 </v>
   <v>       0.13333333       0.06666667      -0.29339098 </v>
   <v>      -0.06666667       0.26666667       0.26837554 </v>
   <v>      -0.40000000      -0.40000000       0.21911674 </v>
   <v>       0.40000000      -0.40000000       0.21911674 </v>
   <v>      -0.46666667       0.46666667       0.26837554 </v>
   <v>       0.13333333      -0.13333333      -0.29339098 </v>
   <v>       0.33333333       0.06666667      -0.29339098 </v>
   <v>      -0.06666667      -0.13333333      -0.29339098 </v>
   <v>      -0.26666667       0.06666667       0.26837554 </v>
   <v>       0.33333333       0.26666667      -0.29339098 </v>
   <v>       0.13333333       0.46666667       0.26837554 </v>
   <v>      -0.20000000       0.40000000       0.21911674 </v>
   <v>      -0.06666667       0.06666667      -0.29339098 </v>
   <v>       0.13333333       0.26666667      -0.29339098 </v>
   <v>       0.33333333      -0.33333333       0.26837554 </v>
   <v>      -0.46666667      -0.13333333       0.26837554 </v>
   <v>      -0.06666667       0.46666667       0.26837554 </v>
   <v>       0.33333333      -0.13333333      -0.29339098 </v>
   <v>      -0.06666667      -0.33333333      -0.29339098 </v>
   <v>      -0.26666667       0.46666667       0.26837554 </v>
   <v>      -0.26666667       0.26666667       0.26837554 </v>
   <v>      -0.46666667       0.26666667      -0.29339098 </v>
   <v>       0.13333333      -0.33333333      -0.29339098 </v>
   <v>      -0.26666667      -0.13333333      -0.29339098 </v>
   <v>      -0.46666667      -0.33333333       0.26837554 </v>
   <v>      -0.46666667       0.06666667      -0.29339098 </v>
   <v>       0.20000000       0.00000000      -0.34264978 </v>
   <v>       0.33333333       0.46666667      -0.29339098 </v>
   <v>      -0.26666667      -0.33333333      -0.29339098 </v>
   <v>      -0.06666667       0.26666667      -0.29339098 </v>
   <v>       0.00000000       0.00000000      -0.34264978 </v>
   <v>       0.20000000       0.20000000      -0.34264978 </v>
   <v>      -0.46666667       0.46666667      -0.29339098 </v>
   <v>       0.00000000      -0.20000000      -0.34264978 </v>
   <v>      -0.26666667       0.06666667      -0.29339098 </v>
   <v>       0.40000000       0.20000000      -0.34264978 </v>
   <v>       0.13333333       0.46666667      -0.29339098 </v>
   <v>       0.20000000      -0.20000000      -0.34264978 </v>
   <v>       0.40000000       0.00000000      -0.34264978 </v>
   <v>       0.00000000       0.20000000      -0.34264978 </v>
   <v>      -0.20000000      -0.20000000      -0.34264978 </v>
   <v>       0.33333333      -0.33333333      -0.29339098 </v>
   <v>      -0.46666667      -0.13333333      -0.29339098 </v>
   <v>      -0.06666667       0.46666667      -0.29339098 </v>
   <v>       0.40000000       0.40000000      -0.34264978 </v>
   <v>      -0.20000000       0.00000000      -0.34264978 </v>
   <v>      -0.26666667       0.46666667      -0.29339098 </v>
   <v>       0.20000000       0.40000000      -0.34264978 </v>
   <v>      -0.26666667       0.26666667      -0.29339098 </v>
   <v>       0.00000000      -0.40000000      -0.34264978 </v>
   <v>      -0.46666667      -0.33333333      -0.29339098 </v>
   <v>      -0.20000000      -0.40000000      -0.34264978 </v>
   <v>      -0.40000000       0.20000000      -0.34264978 </v>
   <v>       0.13333333       0.06666667      -0.39190859 </v>
   <v>       0.40000000      -0.20000000      -0.34264978 </v>
   <v>      -0.40000000       0.40000000      -0.34264978 </v>
   <v>       0.13333333      -0.13333333      -0.39190859 </v>
   <v>       0.33333333       0.06666667      -0.39190859 </v>
   <v>      -0.06666667      -0.13333333      -0.39190859 </v>
   <v>       0.33333333       0.26666667      -0.39190859 </v>
   <v>       0.20000000      -0.40000000      -0.34264978 </v>
   <v>      -0.20000000       0.20000000      -0.34264978 </v>
   <v>      -0.06666667       0.06666667      -0.39190859 </v>
   <v>       0.00000000       0.40000000      -0.34264978 </v>
   <v>       0.13333333       0.26666667      -0.39190859 </v>
   <v>      -0.40000000       0.00000000      -0.34264978 </v>
   <v>      -0.40000000      -0.20000000      -0.34264978 </v>
   <v>      -0.40000000      -0.40000000      -0.34264978 </v>
   <v>       0.40000000      -0.40000000      -0.34264978 </v>
   <v>       0.33333333      -0.13333333      -0.39190859 </v>
   <v>      -0.06666667      -0.33333333      -0.39190859 </v>
   <v>      -0.46666667       0.26666667      -0.39190859 </v>
   <v>       0.13333333      -0.33333333      -0.39190859 </v>
   <v>      -0.26666667      -0.13333333      -0.39190859 </v>
   <v>      -0.20000000       0.40000000      -0.34264978 </v>
   <v>      -0.46666667       0.06666667      -0.39190859 </v>
   <v>       0.33333333       0.46666667      -0.39190859 </v>
   <v>      -0.26666667      -0.33333333      -0.39190859 </v>
   <v>      -0.06666667       0.26666667      -0.39190859 </v>
   <v>      -0.46666667       0.46666667      -0.39190859 </v>
   <v>      -0.26666667       0.06666667      -0.39190859 </v>
   <v>       0.13333333       0.46666667      -0.39190859 </v>
   <v>       0.33333333      -0.33333333      -0.39190859 </v>
   <v>      -0.46666667      -0.13333333      -0.39190859 </v>
   <v>      -0.06666667       0.46666667      -0.39190859 </v>
   <v>      -0.26666667       0.46666667      -0.39190859 </v>
   <v>      -0.26666667       0.26666667      -0.39190859 </v>
   <v>      -0.46666667      -0.33333333      -0.39190859 </v>
  </varray>
 </structure>
 <varray name="primitive_index" >
  <v type="int" >        1 </v>
  <v type="int" >       18 </v>
  <v type="int" >        2 </v>
  <v type="int" >        3 </v>
  <v type="int" >       11 </v>
  <v type="int" >       17 </v>
  <v type="int" >       19 </v>
  <v type="int" >        5 </v>
  <v type="int" >        4 </v>
  <v type="int" >       12 </v>
  <v type="int" >       20 </v>
  <v type="int" >       10 </v>
  <v type="int" >        6 </v>
  <v type="int" >       21 </v>
  <v type="int" >       14 </v>
  <v type="int" >        9 </v>
  <v type="int" >        8 </v>
  <v type="int" >        7 </v>
  <v type="int" >       16 </v>
  <v type="int" >       13 </v>
  <v type="int" >      137 </v>
  <v type="int" >       15 </v>
  <v type="int" >      121 </v>
  <v type="int" >      117 </v>
  <v type="int" >       83 </v>
  <v type="int" >      113 </v>
  <v type="int" >       72 </v>
  <v type="int" >      133 </v>
  <v type="int" >       54 </v>
  <v type="int" >       55 </v>
  <v type="int" >      162 </v>
  <v type="int" >       32 </v>
  <v type="int" >      109 </v>
  <v type="int" >       70 </v>
  <v type="int" >      154 </v>
  <v type="int" >       39 </v>
  <v type="int" >      126 </v>
  <v type="int" >       92 </v>
  <v type="int" >      158 </v>
  <v type="int" >       23 </v>
  <v type="int" >       51 </v>
  <v type="int" >      142 </v>
  <v type="int" >       59 </v>
  <v type="int" >      100 </v>
  <v type="int" >       87 </v>
  <v type="int" >       58 </v>
  <v type="int" >      138 </v>
  <v type="int" >      150 </v>
  <v type="int" >       42 </v>
  <v type="int" >       29 </v>
  <v type="int" >      122 </v>
  <v type="int" >       84 </v>
  <v type="int" >      118 </v>
  <v type="int" >       28 </v>
  <v type="int" >       89 </v>
  <v type="int" >      129 </v>
  <v type="int" >      114 </v>
  <v type="int" >       64 </v>
  <v type="int" >      108 </v>
  <v type="int" >      134 </v>
  <v type="int" >       67 </v>
  <v type="int" >       45 </v>
  <v type="int" >      166 </v>
  <v type="int" >      112 </v>
  <v type="int" >       95 </v>
  <v type="int" >       49 </v>
  <v type="int" >       40 </v>
  <v type="int" >       91 </v>
  <v type="int" >      163 </v>
  <v type="int" >      107 </v>
  <v type="int" >       77 </v>
  <v type="int" >      155 </v>
  <v type="int" >       26 </v>
  <v type="int" >       52 </v>
  <v type="int" >      146 </v>
  <v type="int" >       62 </v>
  <v type="int" >      139 </v>
  <v type="int" >       50 </v>
  <v type="int" >       94 </v>
  <v type="int" >       25 </v>
  <v type="int" >      159 </v>
  <v type="int" >      141 </v>
  <v type="int" >      102 </v>
  <v type="int" >      136 </v>
  <v type="int" >      104 </v>
  <v type="int" >       35 </v>
  <v type="int" >       36 </v>
  <v type="int" >      151 </v>
  <v type="int" >      120 </v>
  <v type="int" >      116 </v>
  <v type="int" >      157 </v>
  <v type="int" >       86 </v>
  <v type="int" >      125 </v>
  <v type="int" >      130 </v>
  <v type="int" >       68 </v>
  <v type="int" >       82 </v>
  <v type="int" >      132 </v>
  <v type="int" >      167 </v>
  <v type="int" >      143 </v>
  <v type="int" >       79 </v>
  <v type="int" >      161 </v>
  <v type="int" >       75 </v>
  <v type="int" >       90 </v>
  <v type="int" >       78 </v>
  <v type="int" >      153 </v>
  <v type="int" >      124 </v>
  <v type="int" >       93 </v>
  <v type="int" >      147 </v>
  <v type="int" >      111 </v>
  <v type="int" >       53 </v>
  <v type="int" >      169 </v>
  <v type="int" >       98 </v>
  <v type="int" >       88 </v>
  <v type="int" >       57 </v>
  <v type="int" >       30 </v>
  <v type="int" >      149 </v>
  <v type="int" >       69 </v>
  <v type="int" >       81 </v>
  <v type="int" >       41 </v>
  <v type="int" >      128 </v>
  <v type="int" >       33 </v>
  <v type="int" >       37 </v>
  <v type="int" >       60 </v>
  <v type="int" >       56 </v>
  <v type="int" >      165 </v>
  <v type="int" >      170 </v>
  <v type="int" >       99 </v>
  <v type="int" >       44 </v>
  <v type="int" >       31 </v>
  <v type="int" >      106 </v>
  <v type="int" >       34 </v>
  <v type="int" >       74 </v>
  <v type="int" >       66 </v>
  <v type="int" >      145 </v>
  <v type="int" >       61 </v>
  <v type="int" >       43 </v>
  <v type="int" >      135 </v>
  <v type="int" >       46 </v>
  <v type="int" >       38 </v>
  <v type="int" >      119 </v>
  <v type="int" >      115 </v>
  <v type="int" >      171 </v>
  <v type="int" >      140 </v>
  <v type="int" >       24 </v>
  <v type="int" >       71 </v>
  <v type="int" >       85 </v>
  <v type="int" >       63 </v>
  <v type="int" >      131 </v>
  <v type="int" >       48 </v>
  <v type="int" >       27 </v>
  <v type="int" >       22 </v>
  <v type="int" >       47 </v>
  <v type="int" >      160 </v>
  <v type="int" >       76 </v>
  <v type="int" >      152 </v>
  <v type="int" >      123 </v>
  <v type="int" >       96 </v>
  <v type="int" >       65 </v>
  <v type="int" >      156 </v>
  <v type="int" >      168 </v>
  <v type="int" >       97 </v>
  <v type="int" >      103 </v>
  <v type="int" >      148 </v>
  <v type="int" >       80 </v>
  <v type="int" >      127 </v>
  <v type="int" >      164 </v>
  <v type="int" >      110 </v>
  <v type="int" >      101 </v>
  <v type="int" >      105 </v>
  <v type="int" >       73 </v>
  <v type="int" >      144 </v>
 </varray>
 <kpoints>
  <varray name="kpointlist" >
   <v>       0.00000000       0.00000000       0.00000000 </v>
  </varray>
  <varray name="weights" >
   <v>       1.00000000 </v>
  </varray>
 </kpoints>
 <parameters>
  <separator name="general" >
   <i type="string" name="SYSTEM">basalPlane</i>
   <i type="logical" name="LCOMPAT"> F  </i>
  </separator>
  <separator name="electronic" >
   <i type="string" name="PREC">accura</i>
   <i name="ENMAX">    400.00000000</i>
   <i name="ENAUG">    645.00000000</i>
   <i name="EDIFF">      0.00010000</i>
   <i type="int" name="IALGO">    38</i>
   <i type="int" name="IWAVPR">    11</i>
   <i type="int" name="NBANDS">   585</i>
   <i name="NELECT">    956.00000000</i>
   <i type="int" name="TURBO">     0</i>
   <i type="int" name="IRESTART">     0</i>
   <i type="int" name="NREBOOT">     0</i>
   <i type="int" name="NMIN">     0</i>
   <i name="EREF">      0.00000000</i>
   <separator name="electronic smearing" >
    <i type="int" name="ISMEAR">     0</i>
    <i name="SIGMA">      0.10000000</i>
    <i name="KSPACING">      0.50000000</i>
    <i type="logical" name="KGAMMA"> T  </i>
   </separator>
   <separator name="electronic projectors" >
    <i type="logical" name="LREAL"> T  </i>
    <v name="ROPT">     -0.00025000     -0.00025000     -0.00025000     -0.00025000     -0.00025000</v>
    <i type="int" name="LMAXPAW">  -100</i>
    <i type="int" name="LMAXMIX">     2</i>
    <i type="logical" name="NLSPLINE"> F  </i>
   </separator>
   <separator name="electronic startup" >
    <i type="int" name="ISTART">     0</i>
    <i type="int" name="ICHARG">     2</i>
    <i type="int" name="INIWAV">     1</i>
   </separator>
   <separator name="electronic spin" >
    <i type="int" name="ISPIN">     1</i>
    <i type="logical" name="LNONCOLLINEAR"> F  </i>
    <v name="MAGMOM">      1.00000000      1.00000000      1.00000000      1.00000000      1.00000000      1.00000000      1.00000000      1.00000000      1.00000000      1.00000000      1.00000000      1.00000000      1.00000000      1.00000000      1.00000000      1.00000000      1.00000000      1.00000000      1.00000000      1.00000000
      1.00000000      1.00000000      1.00000000      1.00000000      1.00000000      1.00000000      1.00000000      1.00000000      1.00000000      1.00000000      1.00000000      1.00000000      1.00000000      1.00000000      1.00000000      1.00000000      1.00000000      1.00000000      1.00000000      1.00000000
      1.00000000      1.00000000      1.00000000      1.00000000      1.00000000      1.00000000      1.00000000      1.00000000      1.00000000      1.00000000      1.00000000      1.00000000      1.00000000      1.00000000      1.00000000      1.00000000      1.00000000      1.00000000      1.00000000      1.00000000
      1.00000000      1.00000000      1.00000000      1.00000000      1.00000000      1.00000000      1.00000000      1.00000000      1.00000000      1.00000000      1.00000000      1.00000000      1.00000000      1.00000000      1.00000000      1.00000000      1.00000000      1.00000000      1.00000000      1.00000000
      1.00000000      1.00000000      1.00000000      1.00000000      1.00000000      1.00000000      1.00000000      1.00000000      1.00000000      1.00000000      1.00000000      1.00000000      1.00000000      1.00000000      1.00000000      1.00000000      1.00000000      1.00000000      1.00000000      1.00000000
      1.00000000      1.00000000      1.00000000      1.00000000      1.00000000      1.00000000      1.00000000      1.00000000      1.00000000      1.00000000      1.00000000      1.00000000      1.00000000      1.00000000      1.00000000      1.00000000      1.00000000      1.00000000      1.00000000      1.00000000
      1.00000000      1.00000000      1.00000000      1.00000000      1.00000000      1.00000000      1.00000000      1.00000000      1.00000000      1.00000000      1.00000000      1.00000000      1.00000000      1.00000000      1.00000000      1.00000000      1.00000000      1.00000000      1.00000000      1.00000000
      1.00000000      1.00000000      1.00000000      1.00000000      1.00000000      1.00000000      1.00000000      1.00000000      1.00000000      1.00000000      1.00000000      1.00000000      1.00000000      1.00000000      1.00000000      1.00000000      1.00000000      1.00000000      1.00000000      1.00000000
      1.00000000      1.00000000      1.00000000      1.00000000      1.00000000      1.00000000      1.00000000      1.00000000      1.00000000      1.00000000      1.00000000</v>
    <i name="NUPDOWN">     -1.00000000</i>
    <i type="logical" name="LSORBIT"> F  </i>
    <v name="SAXIS">      0.00000000      0.00000000      1.00000000</v>
    <i type="logical" name="LSPIRAL"> F  </i>
    <v name="QSPIRAL">      0.00000000      0.00000000      0.00000000</v>
    <i type="logical" name="LZEROZ"> F  </i>
   </separator>
   <separator name="electronic exchange-correlation" >
    <i type="logical" name="LASPH"> F  </i>
    <i type="logical" name="LMETAGGA"> F  </i>
   </separator>
   <separator name="electronic convergence" >
    <i type="int" name="NELM">   200</i>
    <i type="int" name="NELMDL">    -5</i>
    <i type="int" name="NELMIN">     2</i>
    <i name="ENINI">    400.00000000</i>
    <separator name="electronic convergence detail" >
     <i type="logical" name="LDIAG"> T  </i>
     <i type="logical" name="LSUBROT"> F  </i>
     <i name="WEIMIN">      0.00100000</i>
     <i name="EBREAK">      0.00000004</i>
     <i name="DEPER">      0.30000000</i>
     <i type="int" name="NRMM">     4</i>
     <i name="TIME">      0.40000000</i>
    </separator>
   </separator>
   <separator name="electronic mixer" >
    <i name="AMIX">      0.40000000</i>
    <i name="BMIX">      1.00000000</i>
    <i name="AMIN">      0.10000000</i>
    <i name="AMIX_MAG">      1.60000000</i>
    <i name="BMIX_MAG">      1.00000000</i>
    <separator name="electronic mixer details" >
     <i type="int" name="IMIX">     4</i>
     <i type="logical" name="MIXFIRST"> F  </i>
     <i type="int" name="MAXMIX">   -45</i>
     <i name="WC">    100.00000000</i>
     <i type="int" name="INIMIX">     1</i>
     <i type="int" name="MIXPRE">     1</i>
     <i type="int" name="MREMOVE">     5</i>
    </separator>
   </separator>
   <separator name="electronic dipolcorrection" >
    <i type="logical" name="LDIPOL"> F  </i>
    <i type="logical" name="LMONO"> F  </i>
    <i type="int" name="IDIPOL">     0</i>
    <i name="EPSILON">      1.00000000</i>
    <v name="DIPOL">   -100.00000000   -100.00000000   -100.00000000</v>
    <i name="EFIELD">      0.00000000</i>
   </separator>
  </separator>
  <separator name="grids" >
   <i type="int" name="NGX">   108</i>
   <i type="int" name="NGY">   108</i>
   <i type="int" name="NGZ">   216</i>
   <i type="int" name="NGXF">   216</i>
   <i type="int" name="NGYF">   216</i>
   <i type="int" name="NGZF">   432</i>
   <i type="logical" name="ADDGRID"> F  </i>
  </separator>
  <separator name="ionic" >
   <i type="int" name="NSW"> 10000</i>
   <i type="int" name="IBRION">     2</i>
   <i type="int" name="MDALGO">     0</i>
   <i type="int" name="ISIF">     2</i>
   <i name="PSTRESS">      0.00000000</i>
   <i name="EDIFFG">     -0.02000000</i>
   <i type="int" name="NFREE">     1</i>
   <i name="POTIM">      0.50000000</i>
   <i name="SMASS">     -3.00000000</i>
   <i name="SCALEE">      1.00000000</i>
  </separator>
  <separator name="ionic md" >
   <i name="TEBEG">      0.00010000</i>
   <i name="TEEND">      0.00010000</i>
   <i type="int" name="NBLOCK">     1</i>
   <i type="int" name="KBLOCK"> 10000</i>
   <i type="int" name="NPACO">   256</i>
   <i name="APACO">     16.00000000</i>
  </separator>
  <separator name="symmetry" >
   <i type="int" name="ISYM">     2</i>
   <i name="SYMPREC">      0.00001000</i>
  </separator>
  <separator name="dos" >
   <i type="int" name="LORBIT">     0</i>
   <v name="RWIGS">     -1.00000000     -1.00000000     -1.00000000     -1.00000000     -1.00000000</v>
   <i type="int" name="NEDOS">   301</i>
   <i name="EMIN">     10.00000000</i>
   <i name="EMAX">    -10.00000000</i>
   <i name="EFERMI">      0.00000000</i>
  </separator>
  <separator name="writing" >
   <i type="int" name="NWRITE">     2</i>
   <i type="logical" name="LWAVE"> F  </i>
   <i type="logical" name="LDOWNSAMPLE"> F  </i>
   <i type="logical" name="LCHARG"> F  </i>
   <i type="logical" name="LPARD"> F  </i>
   <i type="logical" name="LVTOT"> F  </i>
   <i type="logical" name="LVHAR"> F  </i>
   <i type="logical" name="LELF"> F  </i>
   <i type="logical" name="LOPTICS"> F  </i>
   <v name="STM">      0.00000000      0.00000000      0.00000000      0.00000000      0.00000000      0.00000000      0.00000000</v>
  </separator>
  <separator name="performance" >
   <i type="int" name="NPAR">    13</i>
   <i type="int" name="NSIM">     4</i>
   <i type="int" name="NBLK">    -1</i>
   <i type="logical" name="LPLANE"> T  </i>
   <i type="logical" name="LSCALAPACK"> T  </i>
   <i type="logical" name="LSCAAWARE"> F  </i>
   <i type="logical" name="LSCALU"> F  </i>
   <i type="logical" name="LASYNC"> F  </i>
   <i type="logical" name="LORBITALREAL"> F  </i>
  </separator>
  <separator name="miscellaneous" >
   <i type="int" name="IDIOT">     3</i>
   <i type="int" name="ISPECIAL">     0</i>
   <i type="logical" name="LMUSIC"> F  </i>
   <v name="POMASS">     12.01100000     51.99600000      1.00000000     95.94000000     32.06600000</v>
   <v name="DARWINR">      0.00000000      0.00000000      0.00000000      0.00000000      0.00000000</v>
   <v name="DARWINV">      1.00000000      1.00000000      1.00000000      1.00000000      1.00000000</v>
   <i type="logical" name="LCORR"> T  </i>
  </separator>
  <i type="logical" name="GGA_COMPAT"> T  </i>
  <i type="logical" name="LBERRY"> F  </i>
  <i type="int" name="ICORELEVEL">     0</i>
  <i type="logical" name="LDAU"> F  </i>
  <i type="int" name="I_CONSTRAINED_M">     0</i>
  <separator name="electronic exchange-correlation" >
   <i type="string" name="GGA">--</i>
   <i type="int" name="VOSKOWN">     0</i>
   <i type="logical" name="LHFCALC"> F  </i>
   <i type="string" name="PRECFOCK"></i>
   <i type="logical" name="LSYMGRAD"> F  </i>
   <i type="logical" name="LHFONE"> F  </i>
   <i type="logical" name="LRHFCALC"> F  </i>
   <i type="logical" name="LTHOMAS"> F  </i>
   <i type="logical" name="LMODELHF"> F  </i>
   <i name="ENCUT4O">     -1.00000000</i>
   <i type="int" name="EXXOEP">     0</i>
   <i type="int" name="FOURORBIT">     0</i>
   <i name="AEXX">      0.00000000</i>
   <i name="HFALPHA">      0.00000000</i>
   <i name="MCALPHA">      0.00000000</i>
   <i name="ALDAX">      1.00000000</i>
   <i name="AGGAX">      1.00000000</i>
   <i name="ALDAC">      1.00000000</i>
   <i name="AGGAC">      1.00000000</i>
   <i type="int" name="NKREDX">     1</i>
   <i type="int" name="NKREDY">     1</i>
   <i type="int" name="NKREDZ">     1</i>
   <i type="logical" name="SHIFTRED"> F  </i>
   <i type="logical" name="ODDONLY"> F  </i>
   <i type="logical" name="EVENONLY"> F  </i>
   <i type="int" name="LMAXFOCK">     0</i>
   <i type="int" name="NMAXFOCKAE">     0</i>
   <i type="logical" name="LFOCKAEDFT"> F  </i>
   <i name="HFSCREEN">      0.00000000</i>
   <i name="HFSCREENC">      0.00000000</i>
   <i type="int" name="NBANDSGWLOW">     0</i>
  </separator>
  <separator name="vdW DFT" >
   <i type="logical" name="LUSE_VDW"> F  </i>
   <i name="Zab_VDW">     -0.84910000</i>
   <i name="PARAM1">      0.12340000</i>
   <i name="PARAM2">      1.00000000</i>
   <i name="PARAM3">      0.00000000</i>
  </separator>
  <separator name="model GW" >
   <i type="int" name="MODEL_GW">     0</i>
   <i name="MODEL_EPS0">     24.87464347</i>
   <i name="MODEL_ALPHA">      1.00000000</i>
  </separator>
  <separator name="linear response parameters" >
   <i type="logical" name="LEPSILON"> F  </i>
   <i type="logical" name="LRPA"> F  </i>
   <i type="logical" name="LNABLA"> F  </i>
   <i type="logical" name="LVEL"> F  </i>
   <i type="int" name="KINTER">     0</i>
   <i name="CSHIFT">      0.10000000</i>
   <i name="OMEGAMAX">     -1.00000000</i>
   <i name="DEG_THRESHOLD">      0.00200000</i>
   <i name="RTIME">     -0.10000000</i>
   <i name="WPLASMAI">      0.00000000</i>
   <v name="DFIELD">      0.00000000      0.00000000      0.00000000</v>
   <v name="WPLASMA">      0.00000000      0.00000000      0.00000000      0.00000000      0.00000000      0.00000000      0.00000000      0.00000000      0.00000000</v>
  </separator>
  <separator name="orbital magnetization" >
   <i type="logical" name="NUCIND"> F  </i>
   <v name="MAGPOS">      0.00000000      0.00000000      0.00000000</v>
   <i type="logical" name="LNICSALL"> T  </i>
   <i type="logical" name="ORBITALMAG"> F  </i>
   <i type="logical" name="LMAGBLOCH"> F  </i>
   <i type="logical" name="LCHIMAG"> F  </i>
   <i type="logical" name="LGAUGE"> T  </i>
   <i type="int" name="MAGATOM">     0</i>
   <v name="MAGDIPOL">      0.00000000      0.00000000      0.00000000</v>
   <v name="AVECCONST">      0.00000000      0.00000000      0.00000000</v>
  </separator>
  <separator name="response functions" >
   <i type="logical" name="LADDER"> F  </i>
   <i type="logical" name="LRPAFORCE"> F  </i>
   <i type="logical" name="LFXC"> F  </i>
   <i type="logical" name="LHARTREE"> T  </i>
   <i type="int" name="IBSE">     0</i>
   <v type="int" name="KPOINT">    -1     0     0     0</v>
   <i type="logical" name="LTCTE"> F  </i>
   <i type="logical" name="LTETE"> F  </i>
   <i type="logical" name="LTRIPLET"> F  </i>
   <i type="logical" name="LFXCEPS"> F  </i>
   <i type="logical" name="LFXHEG"> F  </i>
   <i type="int" name="NATURALO">     2</i>
   <i type="logical" name="L2ORDER"> F  </i>
   <i type="logical" name="LMP2LT"> F  </i>
   <i type="logical" name="LUSEW"> F  </i>
   <i name="ENCUTGW">     -2.00000000</i>
   <i name="ENCUTGWSOFT">     -2.00000000</i>
   <i name="ENCUTLF">     -1.00000000</i>
   <i type="int" name="LMAXMP2">    -1</i>
   <i name="SCISSOR">      0.00000000</i>
   <i type="int" name="NOMEGA">     0</i>
   <i type="int" name="NOMEGAR">     0</i>
   <i type="int" name="NBANDSGW">    -1</i>
   <i type="int" name="NBANDSO">    -1</i>
   <i type="int" name="NBANDSV">    -1</i>
   <i type="int" name="NELM">   200</i>
   <i type="int" name="NELMHF">     1</i>
   <i type="int" name="DIM">     3</i>
   <i type="int" name="ANTIRES">     0</i>
   <i name="OMEGAMAX">    -30.00000000</i>
   <i name="OMEGAMIN">    -30.00000000</i>
   <i name="OMEGATL">   -200.00000000</i>
   <i type="int" name="OMEGAGRID">   140</i>
   <i name="CSHIFT">     -0.10000000</i>
   <i type="logical" name="SELFENERGY"> F  </i>
   <i type="logical" name="LSPECTRAL"> F  </i>
   <i type="logical" name="LSPECTRALGW"> F  </i>
   <i type="logical" name="LSINGLES"> F  </i>
   <i type="logical" name="LFERMIGW"> F  </i>
   <i type="logical" name="ODDONLYGW"> F  </i>
   <i type="logical" name="EVENONLYGW"> F  </i>
   <i type="int" name="NKREDLFX">     1</i>
   <i type="int" name="NKREDLFY">     1</i>
   <i type="int" name="NKREDLFZ">     1</i>
   <i type="int" name="MAXMEM">  2800</i>
   <i type="int" name="TELESCOPE">     0</i>
   <i type="int" name="TAUPAR">     1</i>
   <i type="int" name="OMEGAPAR">    -1</i>
   <i name="LAMBDA">      1.00000000</i>
  </separator>
  <separator name="External order field" >
   <i name="OFIELD_KAPPA">      0.00000000</i>
   <v name="OFIELD_K">      0.00000000      0.00000000      0.00000000</v>
   <i name="OFIELD_Q6_NEAR">      0.00000000</i>
   <i name="OFIELD_Q6_FAR">      0.00000000</i>
   <i name="OFIELD_A">      0.00000000</i>
  </separator>
 </parameters>
 <atominfo>
  <atoms>     171 </atoms>
  <types>       5 </types>
  <array name="atoms" >
   <dimension dim="1">ion</dimension>
   <field type="string">element</field>
   <field type="int">atomtype</field>
   <set>
    <rc><c>C </c><c>   1</c></rc>
    <rc><c>C </c><c>   1</c></rc>
    <rc><c>C </c><c>   1</c></rc>
    <rc><c>C </c><c>   1</c></rc>
    <rc><c>C </c><c>   1</c></rc>
    <rc><c>C </c><c>   1</c></rc>
    <rc><c>C </c><c>   1</c></rc>
    <rc><c>C </c><c>   1</c></rc>
    <rc><c>C </c><c>   1</c></rc>
    <rc><c>C </c><c>   1</c></rc>
    <rc><c>Cr</c><c>   2</c></rc>
    <rc><c>H </c><c>   3</c></rc>
    <rc><c>H </c><c>   3</c></rc>
    <rc><c>H </c><c>   3</c></rc>
    <rc><c>H </c><c>   3</c></rc>
    <rc><c>H </c><c>   3</c></rc>
    <rc><c>H </c><c>   3</c></rc>
    <rc><c>H </c><c>   3</c></rc>
    <rc><c>H </c><c>   3</c></rc>
    <rc><c>H </c><c>   3</c></rc>
    <rc><c>H </c><c>   3</c></rc>
    <rc><c>Mo</c><c>   4</c></rc>
    <rc><c>Mo</c><c>   4</c></rc>
    <rc><c>Mo</c><c>   4</c></rc>
    <rc><c>Mo</c><c>   4</c></rc>
    <rc><c>Mo</c><c>   4</c></rc>
    <rc><c>Mo</c><c>   4</c></rc>
    <rc><c>Mo</c><c>   4</c></rc>
    <rc><c>Mo</c><c>   4</c></rc>
    <rc><c>Mo</c><c>   4</c></rc>
    <rc><c>Mo</c><c>   4</c></rc>
    <rc><c>Mo</c><c>   4</c></rc>
    <rc><c>Mo</c><c>   4</c></rc>
    <rc><c>Mo</c><c>   4</c></rc>
    <rc><c>Mo</c><c>   4</c></rc>
    <rc><c>Mo</c><c>   4</c></rc>
    <rc><c>Mo</c><c>   4</c></rc>
    <rc><c>Mo</c><c>   4</c></rc>
    <rc><c>Mo</c><c>   4</c></rc>
    <rc><c>Mo</c><c>   4</c></rc>
    <rc><c>Mo</c><c>   4</c></rc>
    <rc><c>Mo</c><c>   4</c></rc>
    <rc><c>Mo</c><c>   4</c></rc>
    <rc><c>Mo</c><c>   4</c></rc>
    <rc><c>Mo</c><c>   4</c></rc>
    <rc><c>Mo</c><c>   4</c></rc>
    <rc><c>Mo</c><c>   4</c></rc>
    <rc><c>Mo</c><c>   4</c></rc>
    <rc><c>Mo</c><c>   4</c></rc>
    <rc><c>Mo</c><c>   4</c></rc>
    <rc><c>Mo</c><c>   4</c></rc>
    <rc><c>Mo</c><c>   4</c></rc>
    <rc><c>Mo</c><c>   4</c></rc>
    <rc><c>Mo</c><c>   4</c></rc>
    <rc><c>Mo</c><c>   4</c></rc>
    <rc><c>Mo</c><c>   4</c></rc>
    <rc><c>Mo</c><c>   4</c></rc>
    <rc><c>Mo</c><c>   4</c></rc>
    <rc><c>Mo</c><c>   4</c></rc>
    <rc><c>Mo</c><c>   4</c></rc>
    <rc><c>Mo</c><c>   4</c></rc>
    <rc><c>Mo</c><c>   4</c></rc>
    <rc><c>Mo</c><c>   4</c></rc>
    <rc><c>Mo</c><c>   4</c></rc>
    <rc><c>Mo</c><c>   4</c></rc>
    <rc><c>Mo</c><c>   4</c></rc>
    <rc><c>Mo</c><c>   4</c></rc>
    <rc><c>Mo</c><c>   4</c></rc>
    <rc><c>Mo</c><c>   4</c></rc>
    <rc><c>Mo</c><c>   4</c></rc>
    <rc><c>Mo</c><c>   4</c></rc>
    <rc><c>S </c><c>   5</c></rc>
    <rc><c>S </c><c>   5</c></rc>
    <rc><c>S </c><c>   5</c></rc>
    <rc><c>S </c><c>   5</c></rc>
    <rc><c>S </c><c>   5</c></rc>
    <rc><c>S </c><c>   5</c></rc>
    <rc><c>S </c><c>   5</c></rc>
    <rc><c>S </c><c>   5</c></rc>
    <rc><c>S </c><c>   5</c></rc>
    <rc><c>S </c><c>   5</c></rc>
    <rc><c>S </c><c>   5</c></rc>
    <rc><c>S </c><c>   5</c></rc>
    <rc><c>S </c><c>   5</c></rc>
    <rc><c>S </c><c>   5</c></rc>
    <rc><c>S </c><c>   5</c></rc>
    <rc><c>S </c><c>   5</c></rc>
    <rc><c>S </c><c>   5</c></rc>
    <rc><c>S </c><c>   5</c></rc>
    <rc><c>S </c><c>   5</c></rc>
    <rc><c>S </c><c>   5</c></rc>
    <rc><c>S </c><c>   5</c></rc>
    <rc><c>S </c><c>   5</c></rc>
    <rc><c>S </c><c>   5</c></rc>
    <rc><c>S </c><c>   5</c></rc>
    <rc><c>S </c><c>   5</c></rc>
    <rc><c>S </c><c>   5</c></rc>
    <rc><c>S </c><c>   5</c></rc>
    <rc><c>S </c><c>   5</c></rc>
    <rc><c>S </c><c>   5</c></rc>
    <rc><c>S </c><c>   5</c></rc>
    <rc><c>S </c><c>   5</c></rc>
    <rc><c>S </c><c>   5</c></rc>
    <rc><c>S </c><c>   5</c></rc>
    <rc><c>S </c><c>   5</c></rc>
    <rc><c>S </c><c>   5</c></rc>
    <rc><c>S </c><c>   5</c></rc>
    <rc><c>S </c><c>   5</c></rc>
    <rc><c>S </c><c>   5</c></rc>
    <rc><c>S </c><c>   5</c></rc>
    <rc><c>S </c><c>   5</c></rc>
    <rc><c>S </c><c>   5</c></rc>
    <rc><c>S </c><c>   5</c></rc>
    <rc><c>S </c><c>   5</c></rc>
    <rc><c>S </c><c>   5</c></rc>
    <rc><c>S </c><c>   5</c></rc>
    <rc><c>S </c><c>   5</c></rc>
    <rc><c>S </c><c>   5</c></rc>
    <rc><c>S </c><c>   5</c></rc>
    <rc><c>S </c><c>   5</c></rc>
    <rc><c>S </c><c>   5</c></rc>
    <rc><c>S </c><c>   5</c></rc>
    <rc><c>S </c><c>   5</c></rc>
    <rc><c>S </c><c>   5</c></rc>
    <rc><c>S </c><c>   5</c></rc>
    <rc><c>S </c><c>   5</c></rc>
    <rc><c>S </c><c>   5</c></rc>
    <rc><c>S </c><c>   5</c></rc>
    <rc><c>S </c><c>   5</c></rc>
    <rc><c>S </c><c>   5</c></rc>
    <rc><c>S </c><c>   5</c></rc>
    <rc><c>S </c><c>   5</c></rc>
    <rc><c>S </c><c>   5</c></rc>
    <rc><c>S </c><c>   5</c></rc>
    <rc><c>S </c><c>   5</c></rc>
    <rc><c>S </c><c>   5</c></rc>
    <rc><c>S </c><c>   5</c></rc>
    <rc><c>S </c><c>   5</c></rc>
    <rc><c>S </c><c>   5</c></rc>
    <rc><c>S </c><c>   5</c></rc>
    <rc><c>S </c><c>   5</c></rc>
    <rc><c>S </c><c>   5</c></rc>
    <rc><c>S </c><c>   5</c></rc>
    <rc><c>S </c><c>   5</c></rc>
    <rc><c>S </c><c>   5</c></rc>
    <rc><c>S </c><c>   5</c></rc>
    <rc><c>S </c><c>   5</c></rc>
    <rc><c>S </c><c>   5</c></rc>
    <rc><c>S </c><c>   5</c></rc>
    <rc><c>S </c><c>   5</c></rc>
    <rc><c>S </c><c>   5</c></rc>
    <rc><c>S </c><c>   5</c></rc>
    <rc><c>S </c><c>   5</c></rc>
    <rc><c>S </c><c>   5</c></rc>
    <rc><c>S </c><c>   5</c></rc>
    <rc><c>S </c><c>   5</c></rc>
    <rc><c>S </c><c>   5</c></rc>
    <rc><c>S </c><c>   5</c></rc>
    <rc><c>S </c><c>   5</c></rc>
    <rc><c>S </c><c>   5</c></rc>
    <rc><c>S </c><c>   5</c></rc>
    <rc><c>S </c><c>   5</c></rc>
    <rc><c>S </c><c>   5</c></rc>
    <rc><c>S </c><c>   5</c></rc>
    <rc><c>S </c><c>   5</c></rc>
    <rc><c>S </c><c>   5</c></rc>
    <rc><c>S </c><c>   5</c></rc>
    <rc><c>S </c><c>   5</c></rc>
    <rc><c>S </c><c>   5</c></rc>
    <rc><c>S </c><c>   5</c></rc>
    <rc><c>S </c><c>   5</c></rc>
   </set>
  </array>
  <array name="atomtypes" >
   <dimension dim="1">type</dimension>
   <field type="int">atomspertype</field>
   <field type="string">element</field>
   <field>mass</field>
   <field>valence</field>
   <field type="string">pseudopotential</field>
   <set>
    <rc><c>  10</c><c>C </c><c>     12.01100000</c><c>      4.00000000</c><c>  PAW_PBE C 08Apr2002                   </c></rc>
    <rc><c>   1</c><c>Cr</c><c>     51.99600000</c><c>      6.00000000</c><c>  PAW_PBE Cr 06Sep2000                  </c></rc>
    <rc><c>  10</c><c>H </c><c>      1.00000000</c><c>      1.00000000</c><c>  PAW_PBE H 15Jun2001                   </c></rc>
    <rc><c>  50</c><c>Mo</c><c>     95.94000000</c><c>      6.00000000</c><c>  PAW_PBE Mo 08Apr2002                  </c></rc>
    <rc><c> 100</c><c>S </c><c>     32.06600000</c><c>      6.00000000</c><c>  PAW_PBE S 06Sep2000                   </c></rc>
   </set>
  </array>
 </atominfo>
 <structure name="initialpos" >
  <crystal>
   <varray name="basis" >
    <v>      15.90000000       0.00000000       0.00000000 </v>
    <v>      -7.95000000      13.76980392       0.00000000 </v>
    <v>       0.00000000       0.00000000      32.38000000 </v>
   </varray>
   <i name="volume">   7089.27338987 </i>
   <varray name="rec_basis" >
    <v>       0.06289308       0.03631134       0.00000000 </v>
    <v>       0.00000000       0.07262268       0.00000000 </v>
    <v>       0.00000000       0.00000000       0.03088326 </v>
   </varray>
  </crystal>
  <varray name="positions" >
   <v>       0.14460529       0.02592979       0.01992350 </v>
   <v>       0.09912890       0.04999164       0.05197921 </v>
   <v>       0.15060431       0.08079915       0.98405092 </v>
   <v>       0.10852852       0.14025875       0.99392121 </v>
   <v>       0.07632984       0.12060297       0.03634572 </v>
   <v>       0.87732276       0.85746800       0.01212144 </v>
   <v>       0.86679961       0.97378899       0.97243927 </v>
   <v>       0.85103609       0.93227683       0.01313689 </v>
   <v>       0.90180931       0.92508490       0.94675346 </v>
   <v>       0.90868707       0.85393772       0.97089652 </v>
   <v>       0.99938235       0.99476852       0.99976184 </v>
   <v>       0.04231043       0.15435187       0.05358332 </v>
   <v>       0.82197832       0.95180827       0.03949722 </v>
   <v>       0.87220819       0.81063939       0.03762840 </v>
   <v>       0.85549601       0.03302682       0.96299246 </v>
   <v>       0.92455583       0.94300203       0.91472291 </v>
   <v>       0.08150934       0.01764203       0.08261500 </v>
   <v>       0.16662177       0.97133221       0.02186957 </v>
   <v>       0.18104493       0.07750717       0.95441787 </v>
   <v>       0.10466839       0.19260862       0.97356265 </v>
   <v>       0.93566885       0.80696957       0.96011251 </v>
   <v>       0.60000000       0.60000000       0.65735022 </v>
   <v>       0.20000000       0.80000000       0.21911674 </v>
   <v>       0.20000000       0.60000000       0.65735022 </v>
   <v>       0.60000000       0.80000000       0.21911674 </v>
   <v>       0.20000000       0.60000000       0.21911674 </v>
   <v>       0.60000000       0.80000000       0.65735022 </v>
   <v>       0.20000000       0.40000000       0.21911674 </v>
   <v>       0.80000000       0.00000000       0.21911674 </v>
   <v>       0.20000000       0.20000000       0.65735022 </v>
   <v>       0.80000000       0.00000000       0.65735022 </v>
   <v>       0.20000000       0.20000000       0.21911674 </v>
   <v>       0.20000000       0.80000000       0.65735022 </v>
   <v>       0.20000000       0.40000000       0.65735022 </v>
   <v>       0.60000000       0.60000000       0.21911674 </v>
   <v>       0.40000000       0.60000000       0.21911674 </v>
   <v>       0.40000000       0.00000000       0.65735022 </v>
   <v>       0.60000000       0.40000000       0.65735022 </v>
   <v>       0.40000000       0.20000000       0.21911674 </v>
   <v>       0.60000000       0.40000000       0.21911674 </v>
   <v>       0.40000000       0.20000000       0.65735022 </v>
   <v>       0.40000000       0.40000000       0.21911674 </v>
   <v>       0.60000000       0.20000000       0.65735022 </v>
   <v>       0.40000000       0.40000000       0.65735022 </v>
   <v>       0.60000000       0.20000000       0.21911674 </v>
   <v>       0.40000000       0.80000000       0.65735022 </v>
   <v>       0.40000000       0.60000000       0.65735022 </v>
   <v>       0.60000000       0.00000000       0.65735022 </v>
   <v>       0.40000000       0.80000000       0.21911674 </v>
   <v>       0.60000000       0.00000000       0.21911674 </v>
   <v>       0.40000000       0.00000000       0.21911674 </v>
   <v>       0.80000000       0.20000000       0.21911674 </v>
   <v>       0.20000000       0.00000000       0.65735022 </v>
   <v>       0.20000000       0.00000000       0.21911674 </v>
   <v>       0.00000000       0.00000000       0.21911674 </v>
   <v>       0.80000000       0.80000000       0.65735022 </v>
   <v>       0.00000000       0.00000000       0.65735022 </v>
   <v>       0.80000000       0.80000000       0.21911674 </v>
   <v>       0.00000000       0.20000000       0.21911674 </v>
   <v>       0.00000000       0.20000000       0.65735022 </v>
   <v>       0.80000000       0.60000000       0.65735022 </v>
   <v>       0.00000000       0.40000000       0.21911674 </v>
   <v>       0.00000000       0.40000000       0.65735022 </v>
   <v>       0.00000000       0.60000000       0.21911674 </v>
   <v>       0.80000000       0.40000000       0.65735022 </v>
   <v>       0.00000000       0.60000000       0.65735022 </v>
   <v>       0.80000000       0.60000000       0.21911674 </v>
   <v>       0.80000000       0.40000000       0.21911674 </v>
   <v>       0.00000000       0.80000000       0.65735022 </v>
   <v>       0.00000000       0.80000000       0.21911674 </v>
   <v>       0.80000000       0.20000000       0.65735022 </v>
   <v>       0.93333333       0.06666667       0.16985794 </v>
   <v>       0.73333333       0.26666667       0.60809141 </v>
   <v>       0.73333333       0.26666667       0.70660902 </v>
   <v>       0.93333333       0.66666667       0.70660902 </v>
   <v>       0.93333333       0.66666667       0.60809141 </v>
   <v>       0.73333333       0.26666667       0.16985794 </v>
   <v>       0.73333333       0.26666667       0.26837554 </v>
   <v>       0.93333333       0.46666667       0.26837554 </v>
   <v>       0.73333333       0.06666667       0.60809141 </v>
   <v>       0.73333333       0.06666667       0.70660902 </v>
   <v>       0.93333333       0.06666667       0.70660902 </v>
   <v>       0.93333333       0.86666667       0.16985794 </v>
   <v>       0.73333333       0.06666667       0.16985794 </v>
   <v>       0.93333333       0.06666667       0.60809141 </v>
   <v>       0.73333333       0.06666667       0.26837554 </v>
   <v>       0.93333333       0.26666667       0.16985794 </v>
   <v>       0.93333333       0.26666667       0.70660902 </v>
   <v>       0.93333333       0.86666667       0.26837554 </v>
   <v>       0.73333333       0.46666667       0.26837554 </v>
   <v>       0.73333333       0.46666667       0.16985794 </v>
   <v>       0.73333333       0.86666667       0.16985794 </v>
   <v>       0.73333333       0.86666667       0.70660902 </v>
   <v>       0.73333333       0.86666667       0.26837554 </v>
   <v>       0.93333333       0.46666667       0.16985794 </v>
   <v>       0.73333333       0.86666667       0.60809141 </v>
   <v>       0.73333333       0.66666667       0.60809141 </v>
   <v>       0.73333333       0.66666667       0.70660902 </v>
   <v>       0.93333333       0.46666667       0.70660902 </v>
   <v>       0.73333333       0.66666667       0.16985794 </v>
   <v>       0.93333333       0.46666667       0.60809141 </v>
   <v>       0.73333333       0.66666667       0.26837554 </v>
   <v>       0.93333333       0.26666667       0.60809141 </v>
   <v>       0.93333333       0.26666667       0.26837554 </v>
   <v>       0.73333333       0.46666667       0.60809141 </v>
   <v>       0.73333333       0.46666667       0.70660902 </v>
   <v>       0.93333333       0.66666667       0.26837554 </v>
   <v>       0.93333333       0.06666667       0.26837554 </v>
   <v>       0.93333333       0.66666667       0.16985794 </v>
   <v>       0.53333333       0.86666667       0.60809141 </v>
   <v>       0.53333333       0.06666667       0.70660902 </v>
   <v>       0.53333333       0.86666667       0.16985794 </v>
   <v>       0.33333333       0.26666667       0.16985794 </v>
   <v>       0.33333333       0.26666667       0.26837554 </v>
   <v>       0.33333333       0.06666667       0.60809141 </v>
   <v>       0.33333333       0.06666667       0.70660902 </v>
   <v>       0.33333333       0.06666667       0.16985794 </v>
   <v>       0.33333333       0.06666667       0.26837554 </v>
   <v>       0.13333333       0.86666667       0.60809141 </v>
   <v>       0.13333333       0.86666667       0.70660902 </v>
   <v>       0.13333333       0.86666667       0.16985794 </v>
   <v>       0.13333333       0.86666667       0.26837554 </v>
   <v>       0.13333333       0.66666667       0.60809141 </v>
   <v>       0.13333333       0.66666667       0.70660902 </v>
   <v>       0.33333333       0.26666667       0.70660902 </v>
   <v>       0.13333333       0.66666667       0.16985794 </v>
   <v>       0.13333333       0.46666667       0.60809141 </v>
   <v>       0.13333333       0.46666667       0.70660902 </v>
   <v>       0.13333333       0.46666667       0.16985794 </v>
   <v>       0.13333333       0.46666667       0.26837554 </v>
   <v>       0.13333333       0.26666667       0.60809141 </v>
   <v>       0.13333333       0.26666667       0.70660902 </v>
   <v>       0.13333333       0.26666667       0.16985794 </v>
   <v>       0.13333333       0.26666667       0.26837554 </v>
   <v>       0.13333333       0.06666667       0.60809141 </v>
   <v>       0.13333333       0.06666667       0.70660902 </v>
   <v>       0.13333333       0.06666667       0.16985794 </v>
   <v>       0.13333333       0.06666667       0.26837554 </v>
   <v>       0.13333333       0.66666667       0.26837554 </v>
   <v>       0.33333333       0.26666667       0.60809141 </v>
   <v>       0.33333333       0.46666667       0.26837554 </v>
   <v>       0.33333333       0.46666667       0.16985794 </v>
   <v>       0.53333333       0.86666667       0.26837554 </v>
   <v>       0.53333333       0.66666667       0.60809141 </v>
   <v>       0.53333333       0.66666667       0.70660902 </v>
   <v>       0.53333333       0.66666667       0.16985794 </v>
   <v>       0.53333333       0.66666667       0.26837554 </v>
   <v>       0.53333333       0.46666667       0.60809141 </v>
   <v>       0.53333333       0.46666667       0.70660902 </v>
   <v>       0.53333333       0.46666667       0.16985794 </v>
   <v>       0.53333333       0.46666667       0.26837554 </v>
   <v>       0.53333333       0.26666667       0.60809141 </v>
   <v>       0.53333333       0.26666667       0.70660902 </v>
   <v>       0.53333333       0.26666667       0.16985794 </v>
   <v>       0.53333333       0.26666667       0.26837554 </v>
   <v>       0.53333333       0.06666667       0.60809141 </v>
   <v>       0.93333333       0.86666667       0.70660902 </v>
   <v>       0.53333333       0.06666667       0.16985794 </v>
   <v>       0.53333333       0.06666667       0.26837554 </v>
   <v>       0.33333333       0.86666667       0.60809141 </v>
   <v>       0.33333333       0.86666667       0.70660902 </v>
   <v>       0.33333333       0.86666667       0.16985794 </v>
   <v>       0.33333333       0.86666667       0.26837554 </v>
   <v>       0.33333333       0.66666667       0.60809141 </v>
   <v>       0.33333333       0.66666667       0.70660902 </v>
   <v>       0.33333333       0.66666667       0.16985794 </v>
   <v>       0.33333333       0.66666667       0.26837554 </v>
   <v>       0.33333333       0.46666667       0.60809141 </v>
   <v>       0.33333333       0.46666667       0.70660902 </v>
   <v>       0.53333333       0.86666667       0.70660902 </v>
   <v>       0.93333333       0.86666667       0.60809141 </v>
  </varray>
 </structure>
 <calculation>
  <scstep>
   <time name="dav">   11.30   11.63</time>
   <time name="total">   11.73   13.24</time>
   <energy>
    <i name="alphaZ">   1150.89500911 </i>
    <i name="ewald">  68770.07212187 </i>
    <i name="hartreedc">-106743.92169784 </i>
    <i name="XCdc">  -1684.65895638 </i>
    <i name="pawpsdc">  36411.78182824 </i>
    <i name="pawaedc"> -32520.45026120 </i>
    <i name="eentropy">     -0.33050853 </i>
    <i name="bandstr">   1954.12627706 </i>
    <i name="atom">  40430.53995508 </i>
    <i name="e_fr_energy">   7768.05376739 </i>
    <i name="e_wo_entrp">   7768.38427592 </i>
    <i name="e_0_energy">   7768.21902166 </i>
   </energy>
  </scstep>
  <scstep>
   <time name="dav">   14.49   16.33</time>
   <time name="total">   14.49   16.33</time>
   <energy>
    <i name="e_fr_energy">   -226.35701607 </i>
    <i name="e_wo_entrp">   -226.23196314 </i>
    <i name="e_0_energy">   -226.29448961 </i>
   </energy>
  </scstep>
  <scstep>
   <time name="dav">   12.85   12.94</time>
   <time name="total">   12.85   12.95</time>
   <energy>
    <i name="e_fr_energy">  -1260.83652201 </i>
    <i name="e_wo_entrp">  -1260.83652200 </i>
    <i name="e_0_energy">  -1260.83652201 </i>
   </energy>
  </scstep>
  <scstep>
   <time name="dav">   16.39   16.92</time>
   <time name="total">   16.40   16.92</time>
   <energy>
    <i name="e_fr_energy">  -1321.22396144 </i>
    <i name="e_wo_entrp">  -1321.22396144 </i>
    <i name="e_0_energy">  -1321.22396144 </i>
   </energy>
  </scstep>
  <scstep>
   <time name="dav">   16.34   18.06</time>
   <time name="total">   17.44   19.22</time>
   <energy>
    <i name="e_fr_energy">  -1323.17755305 </i>
    <i name="e_wo_entrp">  -1323.17755305 </i>
    <i name="e_0_energy">  -1323.17755305 </i>
   </energy>
  </scstep>
  <scstep>
   <time name="dav">   14.07   14.17</time>
   <time name="total">   15.60   16.65</time>
   <energy>
    <i name="e_fr_energy">  -1276.70063406 </i>
    <i name="e_wo_entrp">  -1276.58772952 </i>
    <i name="e_0_energy">  -1276.64418179 </i>
   </energy>
  </scstep>
  <scstep>
   <time name="dav">   15.47   15.58</time>
   <time name="total">   17.09   17.22</time>
   <energy>
    <i name="e_fr_energy">  -1297.35304116 </i>
    <i name="e_wo_entrp">  -1297.00653293 </i>
    <i name="e_0_energy">  -1297.17978704 </i>
   </energy>
  </scstep>
  <scstep>
   <time name="dav">   13.42   13.52</time>
   <time name="total">   15.14   15.66</time>
   <energy>
    <i name="e_fr_energy">  -1233.12306980 </i>
    <i name="e_wo_entrp">  -1232.84319944 </i>
    <i name="e_0_energy">  -1232.98313462 </i>
   </energy>
  </scstep>
  <scstep>
   <time name="dav">   15.70   15.83</time>
   <time name="total">   17.22   17.66</time>
   <energy>
    <i name="e_fr_energy">  -1238.46277384 </i>
    <i name="e_wo_entrp">  -1238.25122335 </i>
    <i name="e_0_energy">  -1238.35699859 </i>
   </energy>
  </scstep>
  <scstep>
   <time name="dav">   16.72   16.84</time>
   <time name="total">   18.53   19.75</time>
   <energy>
    <i name="e_fr_energy">  -1219.10522719 </i>
    <i name="e_wo_entrp">  -1218.89991617 </i>
    <i name="e_0_energy">  -1219.00257168 </i>
   </energy>
  </scstep>
  <scstep>
   <time name="dav">   15.80   15.91</time>
   <time name="total">   17.37   17.50</time>
   <energy>
    <i name="e_fr_energy">  -1224.79687645 </i>
    <i name="e_wo_entrp">  -1224.79397929 </i>
    <i name="e_0_energy">  -1224.79542787 </i>
   </energy>
  </scstep>
  <scstep>
   <time name="dav">   14.68   14.80</time>
   <time name="total">   16.40   17.91</time>
   <energy>
    <i name="e_fr_energy">  -1224.51152724 </i>
    <i name="e_wo_entrp">  -1224.39499962 </i>
    <i name="e_0_energy">  -1224.45326343 </i>
   </energy>
  </scstep>
  <scstep>
   <time name="dav">   14.53   14.65</time>
   <time name="total">   16.17   16.82</time>
   <energy>
    <i name="e_fr_energy">  -1223.69550692 </i>
    <i name="e_wo_entrp">  -1223.46475768 </i>
    <i name="e_0_energy">  -1223.58013230 </i>
   </energy>
  </scstep>
  <scstep>
   <time name="dav">   15.34   15.45</time>
   <time name="total">   16.91   17.09</time>
   <energy>
    <i name="e_fr_energy">  -1223.46778755 </i>
    <i name="e_wo_entrp">  -1223.37896523 </i>
    <i name="e_0_energy">  -1223.42337639 </i>
   </energy>
  </scstep>
  <scstep>
   <time name="dav">   14.24   14.34</time>
   <time name="total">   15.77   17.48</time>
   <energy>
    <i name="e_fr_energy">  -1223.43785110 </i>
    <i name="e_wo_entrp">  -1223.34171090 </i>
    <i name="e_0_energy">  -1223.38978100 </i>
   </energy>
  </scstep>
  <scstep>
   <time name="dav">   15.08   15.21</time>
   <time name="total">   16.64   17.72</time>
   <energy>
    <i name="e_fr_energy">  -1223.60461681 </i>
    <i name="e_wo_entrp">  -1223.52067749 </i>
    <i name="e_0_energy">  -1223.56264715 </i>
   </energy>
  </scstep>
  <scstep>
   <time name="dav">   14.76   14.91</time>
   <time name="total">   16.50   17.36</time>
   <energy>
    <i name="e_fr_energy">  -1224.93194451 </i>
    <i name="e_wo_entrp">  -1224.85552515 </i>
    <i name="e_0_energy">  -1224.89373483 </i>
   </energy>
  </scstep>
  <scstep>
   <time name="dav">   14.91   15.02</time>
   <time name="total">   16.44   17.11</time>
   <energy>
    <i name="e_fr_energy">  -1224.37090349 </i>
    <i name="e_wo_entrp">  -1224.28598457 </i>
    <i name="e_0_energy">  -1224.32844403 </i>
   </energy>
  </scstep>
  <scstep>
   <time name="dav">   15.00   15.11</time>
   <time name="total">   16.53   17.08</time>
   <energy>
    <i name="e_fr_energy">  -1223.80497512 </i>
    <i name="e_wo_entrp">  -1223.73560951 </i>
    <i name="e_0_energy">  -1223.77029231 </i>
   </energy>
  </scstep>
  <scstep>
   <time name="dav">   15.84   15.97</time>
   <time name="total">   17.49   18.15</time>
   <energy>
    <i name="e_fr_energy">  -1223.52870838 </i>
    <i name="e_wo_entrp">  -1223.44927978 </i>
    <i name="e_0_energy">  -1223.48899408 </i>
   </energy>
  </scstep>
  <scstep>
   <time name="dav">   14.99   15.10</time>
   <time name="total">   16.53   18.07</time>
   <energy>
    <i name="e_fr_energy">  -1223.44751142 </i>
    <i name="e_wo_entrp">  -1223.38190127 </i>
    <i name="e_0_energy">  -1223.41470634 </i>
   </energy>
  </scstep>
  <scstep>
   <time name="dav">   14.63   14.73</time>
   <time name="total">   16.18   16.48</time>
   <energy>
    <i name="e_fr_energy">  -1223.31005936 </i>
    <i name="e_wo_entrp">  -1223.23073952 </i>
    <i name="e_0_energy">  -1223.27039944 </i>
   </energy>
  </scstep>
  <scstep>
   <time name="dav">   14.24   14.35</time>
   <time name="total">   15.79   16.47</time>
   <energy>
    <i name="e_fr_energy">  -1223.18677915 </i>
    <i name="e_wo_entrp">  -1223.10878669 </i>
    <i name="e_0_energy">  -1223.14778292 </i>
   </energy>
  </scstep>
  <scstep>
   <time name="dav">   15.16   15.30</time>
   <time name="total">   16.74   17.44</time>
   <energy>
    <i name="e_fr_energy">  -1223.02100517 </i>
    <i name="e_wo_entrp">  -1222.91301449 </i>
    <i name="e_0_energy">  -1222.96700983 </i>
   </energy>
  </scstep>
  <scstep>
   <time name="dav">   13.54   13.64</time>
   <time name="total">   15.18   17.10</time>
   <energy>
    <i name="e_fr_energy">  -1223.02381171 </i>
    <i name="e_wo_entrp">  -1222.93444107 </i>
    <i name="e_0_energy">  -1222.97912639 </i>
   </energy>
  </scstep>
  <scstep>
   <time name="dav">   14.25   14.35</time>
   <time name="total">   15.87   16.41</time>
   <energy>
    <i name="e_fr_energy">  -1222.96620073 </i>
    <i name="e_wo_entrp">  -1222.86015948 </i>
    <i name="e_0_energy">  -1222.91318010 </i>
   </energy>
  </scstep>
  <scstep>
   <time name="dav">   15.42   15.55</time>
   <time name="total">   17.60   18.76</time>
   <energy>
    <i name="e_fr_energy">  -1222.88639099 </i>
    <i name="e_wo_entrp">  -1222.76552656 </i>
    <i name="e_0_energy">  -1222.82595877 </i>
   </energy>
  </scstep>
  <scstep>
   <time name="dav">   13.97   14.15</time>
   <time name="total">   15.89   16.49</time>
   <energy>
    <i name="e_fr_energy">  -1222.85400842 </i>
    <i name="e_wo_entrp">  -1222.73976415 </i>
    <i name="e_0_energy">  -1222.79688628 </i>
   </energy>
  </scstep>
  <scstep>
   <time name="dav">   15.51   15.62</time>
   <time name="total">   17.17   18.08</time>
   <energy>
    <i name="e_fr_energy">  -1222.82564865 </i>
    <i name="e_wo_entrp">  -1222.58176403 </i>
    <i name="e_0_energy">  -1222.70370634 </i>
   </energy>
  </scstep>
  <scstep>
   <time name="dav">   14.70   14.81</time>
   <time name="total">   16.36   17.23</time>
   <energy>
    <i name="e_fr_energy">  -1222.96367876 </i>
    <i name="e_wo_entrp">  -1222.63630346 </i>
    <i name="e_0_energy">  -1222.79999111 </i>
   </energy>
  </scstep>
  <scstep>
   <time name="dav">   12.94   13.04</time>
   <time name="total">   14.86   15.25</time>
   <energy>
    <i name="e_fr_energy">  -1222.96721369 </i>
    <i name="e_wo_entrp">  -1222.62707154 </i>
    <i name="e_0_energy">  -1222.79714261 </i>
   </energy>
  </scstep>
  <scstep>
   <time name="dav">   11.27   11.35</time>
   <time name="total">   12.94   13.76</time>
   <energy>
    <i name="e_fr_energy">  -1222.98524935 </i>
    <i name="e_wo_entrp">  -1222.64155916 </i>
    <i name="e_0_energy">  -1222.81340426 </i>
   </energy>
  </scstep>
  <scstep>
   <time name="dav">   10.52   10.60</time>
   <time name="total">   12.17   13.21</time>
   <energy>
    <i name="e_fr_energy">  -1222.97586955 </i>
    <i name="e_wo_entrp">  -1222.63414418 </i>
    <i name="e_0_energy">  -1222.80500686 </i>
   </energy>
  </scstep>
  <scstep>
   <time name="dav">   10.97   11.05</time>
   <time name="total">   12.60   12.69</time>
   <energy>
    <i name="e_fr_energy">  -1222.99096241 </i>
    <i name="e_wo_entrp">  -1222.65998977 </i>
    <i name="e_0_energy">  -1222.82547609 </i>
   </energy>
  </scstep>
  <scstep>
   <time name="dav">   11.16   11.24</time>
   <time name="total">   12.81   13.62</time>
   <energy>
    <i name="e_fr_energy">  -1223.00964024 </i>
    <i name="e_wo_entrp">  -1222.65030738 </i>
    <i name="e_0_energy">  -1222.82997381 </i>
   </energy>
  </scstep>
  <scstep>
   <time name="dav">   10.98   11.06</time>
   <time name="total">   12.79   15.07</time>
   <energy>
    <i name="e_fr_energy">  -1222.98101341 </i>
    <i name="e_wo_entrp">  -1222.64483205 </i>
    <i name="e_0_energy">  -1222.81292273 </i>
   </energy>
  </scstep>
  <scstep>
   <time name="dav">   12.29   12.39</time>
   <time name="total">   13.93   14.33</time>
   <energy>
    <i name="e_fr_energy">  -1222.90499233 </i>
    <i name="e_wo_entrp">  -1222.57889674 </i>
    <i name="e_0_energy">  -1222.74194454 </i>
   </energy>
  </scstep>
  <scstep>
   <time name="dav">   13.66   13.77</time>
   <time name="total">   15.30   15.42</time>
   <energy>
    <i name="e_fr_energy">  -1222.83033270 </i>
    <i name="e_wo_entrp">  -1222.57482798 </i>
    <i name="e_0_energy">  -1222.70258034 </i>
   </energy>
  </scstep>
  <scstep>
   <time name="dav">   13.11   13.21</time>
   <time name="total">   14.85   16.33</time>
   <energy>
    <i name="e_fr_energy">  -1222.79468658 </i>
    <i name="e_wo_entrp">  -1222.58730295 </i>
    <i name="e_0_energy">  -1222.69099477 </i>
   </energy>
  </scstep>
  <scstep>
   <time name="dav">   12.86   12.98</time>
   <time name="total">   14.50   15.25</time>
   <energy>
    <i name="e_fr_energy">  -1222.79950121 </i>
    <i name="e_wo_entrp">  -1222.57030551 </i>
    <i name="e_0_energy">  -1222.68490336 </i>
   </energy>
  </scstep>
  <scstep>
   <time name="dav">   12.28   12.37</time>
   <time name="total">   13.93   14.67</time>
   <energy>
    <i name="e_fr_energy">  -1222.78092853 </i>
    <i name="e_wo_entrp">  -1222.62562810 </i>
    <i name="e_0_energy">  -1222.70327831 </i>
   </energy>
  </scstep>
  <scstep>
   <time name="dav">   12.93   13.03</time>
   <time name="total">   14.57   14.68</time>
   <energy>
    <i name="e_fr_energy">  -1222.77692620 </i>
    <i name="e_wo_entrp">  -1222.60593502 </i>
    <i name="e_0_energy">  -1222.69143061 </i>
   </energy>
  </scstep>
  <scstep>
   <time name="dav">   11.47   11.56</time>
   <time name="total">   13.11   13.52</time>
   <energy>
    <i name="e_fr_energy">  -1222.77745885 </i>
    <i name="e_wo_entrp">  -1222.60325760 </i>
    <i name="e_0_energy">  -1222.69035823 </i>
   </energy>
  </scstep>
  <scstep>
   <time name="dav">   11.78   11.86</time>
   <time name="total">   13.43   13.52</time>
   <energy>
    <i name="e_fr_energy">  -1222.79121107 </i>
    <i name="e_wo_entrp">  -1222.57323112 </i>
    <i name="e_0_energy">  -1222.68222110 </i>
   </energy>
  </scstep>
  <scstep>
   <time name="dav">   10.89   10.97</time>
   <time name="total">   12.53   13.04</time>
   <energy>
    <i name="e_fr_energy">  -1222.77881594 </i>
    <i name="e_wo_entrp">  -1222.61104305 </i>
    <i name="e_0_energy">  -1222.69492949 </i>
   </energy>
  </scstep>
  <scstep>
   <time name="dav">   10.78   10.85</time>
   <time name="total">   12.66   13.27</time>
   <energy>
    <i name="e_fr_energy">  -1222.77730126 </i>
    <i name="e_wo_entrp">  -1222.59720787 </i>
    <i name="e_0_energy">  -1222.68725456 </i>
   </energy>
  </scstep>
  <scstep>
   <time name="dav">   10.04   10.12</time>
   <time name="total">   11.69   11.77</time>
   <energy>
    <i name="e_fr_energy">  -1222.77850620 </i>
    <i name="e_wo_entrp">  -1222.59308489 </i>
    <i name="e_0_energy">  -1222.68579554 </i>
   </energy>
  </scstep>
  <scstep>
   <time name="dav">   10.13   10.20</time>
   <time name="total">   11.82   13.90</time>
   <energy>
    <i name="e_fr_energy">  -1222.77729790 </i>
    <i name="e_wo_entrp">  -1222.59934803 </i>
    <i name="e_0_energy">  -1222.68832297 </i>
   </energy>
  </scstep>
  <scstep>
   <time name="dav">    8.90    8.97</time>
   <time name="total">   10.55   10.62</time>
   <energy>
    <i name="e_fr_energy">  -1222.77484817 </i>
    <i name="e_wo_entrp">  -1222.60175944 </i>
    <i name="e_0_energy">  -1222.68830380 </i>
   </energy>
  </scstep>
  <scstep>
   <time name="dav">    8.17    8.24</time>
   <time name="total">    9.82   10.10</time>
   <energy>
    <i name="e_fr_energy">  -1222.77532735 </i>
    <i name="e_wo_entrp">  -1222.60082567 </i>
    <i name="e_0_energy">  -1222.68807651 </i>
   </energy>
  </scstep>
  <scstep>
   <time name="dav">    9.98   10.05</time>
   <time name="total">   11.90   12.64</time>
   <energy>
    <i name="e_fr_energy">  -1222.77119485 </i>
    <i name="e_wo_entrp">  -1222.61824830 </i>
    <i name="e_0_energy">  -1222.69472157 </i>
   </energy>
  </scstep>
  <scstep>
   <time name="dav">    8.73    8.79</time>
   <time name="total">   10.37   10.44</time>
   <energy>
    <i name="e_fr_energy">  -1222.77132413 </i>
    <i name="e_wo_entrp">  -1222.61204977 </i>
    <i name="e_0_energy">  -1222.69168695 </i>
   </energy>
  </scstep>
  <scstep>
   <time name="dav">    8.09    8.14</time>
   <time name="total">    9.76    9.83</time>
   <energy>
    <i name="e_fr_energy">  -1222.77099691 </i>
    <i name="e_wo_entrp">  -1222.61251622 </i>
    <i name="e_0_energy">  -1222.69175656 </i>
   </energy>
  </scstep>
  <scstep>
   <time name="dav">    7.82    7.87</time>
   <time name="total">    9.49   10.38</time>
   <energy>
    <i name="e_fr_energy">  -1222.77054220 </i>
    <i name="e_wo_entrp">  -1222.61356651 </i>
    <i name="e_0_energy">  -1222.69205435 </i>
   </energy>
  </scstep>
  <scstep>
   <time name="dav">    8.92    8.98</time>
   <time name="total">   10.56   10.64</time>
   <energy>
    <i name="e_fr_energy">  -1222.76950026 </i>
    <i name="e_wo_entrp">  -1222.61581371 </i>
    <i name="e_0_energy">  -1222.69265699 </i>
   </energy>
  </scstep>
  <scstep>
   <time name="dav">    9.40    9.46</time>
   <time name="total">   11.09   11.91</time>
   <energy>
    <i name="e_fr_energy">  -1222.76821355 </i>
    <i name="e_wo_entrp">  -1222.62037882 </i>
    <i name="e_0_energy">  -1222.69429619 </i>
   </energy>
  </scstep>
  <scstep>
   <time name="dav">    8.96    9.03</time>
   <time name="total">   10.59   11.28</time>
   <energy>
    <i name="e_fr_energy">  -1222.76787503 </i>
    <i name="e_wo_entrp">  -1222.61650033 </i>
    <i name="e_0_energy">  -1222.69218768 </i>
   </energy>
  </scstep>
  <scstep>
   <time name="dav">    7.72    7.77</time>
   <time name="total">    9.35    9.42</time>
   <energy>
    <i name="e_fr_energy">  -1222.76754469 </i>
    <i name="e_wo_entrp">  -1222.61782827 </i>
    <i name="e_0_energy">  -1222.69268648 </i>
   </energy>
  </scstep>
  <scstep>
   <time name="dav">    7.77    7.84</time>
   <time name="total">    9.41    9.49</time>
   <energy>
    <i name="e_fr_energy">  -1222.76743445 </i>
    <i name="e_wo_entrp">  -1222.61462196 </i>
    <i name="e_0_energy">  -1222.69102820 </i>
   </energy>
  </scstep>
  <scstep>
   <time name="dav">    7.60    7.66</time>
   <time name="total">    9.48   10.07</time>
   <energy>
    <i name="e_fr_energy">  -1222.76699927 </i>
    <i name="e_wo_entrp">  -1222.61504666 </i>
    <i name="e_0_energy">  -1222.69102296 </i>
   </energy>
  </scstep>
  <scstep>
   <time name="dav">    7.41    7.47</time>
   <time name="total">    9.04    9.11</time>
   <energy>
    <i name="e_fr_energy">  -1222.76655015 </i>
    <i name="e_wo_entrp">  -1222.61498365 </i>
    <i name="e_0_energy">  -1222.69076690 </i>
   </energy>
  </scstep>
  <scstep>
   <time name="dav">    7.32    7.37</time>
   <time name="total">    8.96    9.27</time>
   <energy>
    <i name="e_fr_energy">  -1222.76683751 </i>
    <i name="e_wo_entrp">  -1222.61490099 </i>
    <i name="e_0_energy">  -1222.69086925 </i>
   </energy>
  </scstep>
  <scstep>
   <time name="dav">    7.32    7.37</time>
   <time name="total">    7.74    7.79</time>
   <energy>
    <i name="alphaZ">   1150.89500911 </i>
    <i name="ewald">  68770.07212187 </i>
    <i name="hartreedc">-107503.44256626 </i>
    <i name="XCdc">  -1619.40516776 </i>
    <i name="pawpsdc">  82469.36243578 </i>
    <i name="pawaedc"> -78663.58567044 </i>
    <i name="eentropy">     -0.15189649 </i>
    <i name="bandstr">  -6257.05100828 </i>
    <i name="atom">  40430.53995508 </i>
    <i name="e_fr_energy">  -1222.76678740 </i>
    <i name="e_wo_entrp">  -1222.61489091 </i>
    <i name="e_0_energy">  -1222.69083916 </i>
   </energy>
  </scstep>
  <structure>
   <crystal>
    <varray name="basis" >
     <v>      15.90000000       0.00000000       0.00000000 </v>
     <v>      -7.95000000      13.76980392       0.00000000 </v>
     <v>       0.00000000       0.00000000      32.38000000 </v>
    </varray>
    <i name="volume">   7089.27338987 </i>
    <varray name="rec_basis" >
     <v>       0.06289308       0.03631134       0.00000000 </v>
     <v>       0.00000000       0.07262268       0.00000000 </v>
     <v>       0.00000000       0.00000000       0.03088326 </v>
    </varray>
   </crystal>
   <varray name="positions" >
    <v>       0.14460529       0.02592979       0.01992350 </v>
    <v>       0.09912890       0.04999164       0.05197921 </v>
    <v>       0.15060431       0.08079915       0.98405092 </v>
    <v>       0.10852852       0.14025875       0.99392121 </v>
    <v>       0.07632984       0.12060297       0.03634572 </v>
    <v>       0.87732276       0.85746800       0.01212144 </v>
    <v>       0.86679961       0.97378899       0.97243927 </v>
    <v>       0.85103609       0.93227683       0.01313689 </v>
    <v>       0.90180931       0.92508490       0.94675346 </v>
    <v>       0.90868707       0.85393772       0.97089652 </v>
    <v>       0.99938235       0.99476852       0.99976184 </v>
    <v>       0.04231043       0.15435187       0.05358332 </v>
    <v>       0.82197832       0.95180827       0.03949722 </v>
    <v>       0.87220819       0.81063939       0.03762840 </v>
    <v>       0.85549601       0.03302682       0.96299246 </v>
    <v>       0.92455583       0.94300203       0.91472291 </v>
    <v>       0.08150934       0.01764203       0.08261500 </v>
    <v>       0.16662177       0.97133221       0.02186957 </v>
    <v>       0.18104493       0.07750717       0.95441787 </v>
    <v>       0.10466839       0.19260862       0.97356265 </v>
    <v>       0.93566885       0.80696957       0.96011251 </v>
    <v>       0.60000000       0.60000000       0.65735022 </v>
    <v>       0.20000000       0.80000000       0.21911674 </v>
    <v>       0.20000000       0.60000000       0.65735022 </v>
    <v>       0.60000000       0.80000000       0.21911674 </v>
    <v>       0.20000000       0.60000000       0.21911674 </v>
    <v>       0.60000000       0.80000000       0.65735022 </v>
    <v>       0.20000000       0.40000000       0.21911674 </v>
    <v>       0.80000000       0.00000000       0.21911674 </v>
    <v>       0.20000000       0.20000000       0.65735022 </v>
    <v>       0.80000000       0.00000000       0.65735022 </v>
    <v>       0.20000000       0.20000000       0.21911674 </v>
    <v>       0.20000000       0.80000000       0.65735022 </v>
    <v>       0.20000000       0.40000000       0.65735022 </v>
    <v>       0.60000000       0.60000000       0.21911674 </v>
    <v>       0.40000000       0.60000000       0.21911674 </v>
    <v>       0.40000000       0.00000000       0.65735022 </v>
    <v>       0.60000000       0.40000000       0.65735022 </v>
    <v>       0.40000000       0.20000000       0.21911674 </v>
    <v>       0.60000000       0.40000000       0.21911674 </v>
    <v>       0.40000000       0.20000000       0.65735022 </v>
    <v>       0.40000000       0.40000000       0.21911674 </v>
    <v>       0.60000000       0.20000000       0.65735022 </v>
    <v>       0.40000000       0.40000000       0.65735022 </v>
    <v>       0.60000000       0.20000000       0.21911674 </v>
    <v>       0.40000000       0.80000000       0.65735022 </v>
    <v>       0.40000000       0.60000000       0.65735022 </v>
    <v>       0.60000000       0.00000000       0.65735022 </v>
    <v>       0.40000000       0.80000000       0.21911674 </v>
    <v>       0.60000000       0.00000000       0.21911674 </v>
    <v>       0.40000000       0.00000000       0.21911674 </v>
    <v>       0.80000000       0.20000000       0.21911674 </v>
    <v>       0.20000000       0.00000000       0.65735022 </v>
    <v>       0.20000000       0.00000000       0.21911674 </v>
    <v>       0.00000000       0.00000000       0.21911674 </v>
    <v>       0.80000000       0.80000000       0.65735022 </v>
    <v>       0.00000000       0.00000000       0.65735022 </v>
    <v>       0.80000000       0.80000000       0.21911674 </v>
    <v>       0.00000000       0.20000000       0.21911674 </v>
    <v>       0.00000000       0.20000000       0.65735022 </v>
    <v>       0.80000000       0.60000000       0.65735022 </v>
    <v>       0.00000000       0.40000000       0.21911674 </v>
    <v>       0.00000000       0.40000000       0.65735022 </v>
    <v>       0.00000000       0.60000000       0.21911674 </v>
    <v>       0.80000000       0.40000000       0.65735022 </v>
    <v>       0.00000000       0.60000000       0.65735022 </v>
    <v>       0.80000000       0.60000000       0.21911674 </v>
    <v>       0.80000000       0.40000000       0.21911674 </v>
    <v>       0.00000000       0.80000000       0.65735022 </v>
    <v>       0.00000000       0.80000000       0.21911674 </v>
    <v>       0.80000000       0.20000000       0.65735022 </v>
    <v>       0.93333333       0.06666667       0.16985794 </v>
    <v>       0.73333333       0.26666667       0.60809141 </v>
    <v>       0.73333333       0.26666667       0.70660902 </v>
    <v>       0.93333333       0.66666667       0.70660902 </v>
    <v>       0.93333333       0.66666667       0.60809141 </v>
    <v>       0.73333333       0.26666667       0.16985794 </v>
    <v>       0.73333333       0.26666667       0.26837554 </v>
    <v>       0.93333333       0.46666667       0.26837554 </v>
    <v>       0.73333333       0.06666667       0.60809141 </v>
    <v>       0.73333333       0.06666667       0.70660902 </v>
    <v>       0.93333333       0.06666667       0.70660902 </v>
    <v>       0.93333333       0.86666667       0.16985794 </v>
    <v>       0.73333333       0.06666667       0.16985794 </v>
    <v>       0.93333333       0.06666667       0.60809141 </v>
    <v>       0.73333333       0.06666667       0.26837554 </v>
    <v>       0.93333333       0.26666667       0.16985794 </v>
    <v>       0.93333333       0.26666667       0.70660902 </v>
    <v>       0.93333333       0.86666667       0.26837554 </v>
    <v>       0.73333333       0.46666667       0.26837554 </v>
    <v>       0.73333333       0.46666667       0.16985794 </v>
    <v>       0.73333333       0.86666667       0.16985794 </v>
    <v>       0.73333333       0.86666667       0.70660902 </v>
    <v>       0.73333333       0.86666667       0.26837554 </v>
    <v>       0.93333333       0.46666667       0.16985794 </v>
    <v>       0.73333333       0.86666667       0.60809141 </v>
    <v>       0.73333333       0.66666667       0.60809141 </v>
    <v>       0.73333333       0.66666667       0.70660902 </v>
    <v>       0.93333333       0.46666667       0.70660902 </v>
    <v>       0.73333333       0.66666667       0.16985794 </v>
    <v>       0.93333333       0.46666667       0.60809141 </v>
    <v>       0.73333333       0.66666667       0.26837554 </v>
    <v>       0.93333333       0.26666667       0.60809141 </v>
    <v>       0.93333333       0.26666667       0.26837554 </v>
    <v>       0.73333333       0.46666667       0.60809141 </v>
    <v>       0.73333333       0.46666667       0.70660902 </v>
    <v>       0.93333333       0.66666667       0.26837554 </v>
    <v>       0.93333333       0.06666667       0.26837554 </v>
    <v>       0.93333333       0.66666667       0.16985794 </v>
    <v>       0.53333333       0.86666667       0.60809141 </v>
    <v>       0.53333333       0.06666667       0.70660902 </v>
    <v>       0.53333333       0.86666667       0.16985794 </v>
    <v>       0.33333333       0.26666667       0.16985794 </v>
    <v>       0.33333333       0.26666667       0.26837554 </v>
    <v>       0.33333333       0.06666667       0.60809141 </v>
    <v>       0.33333333       0.06666667       0.70660902 </v>
    <v>       0.33333333       0.06666667       0.16985794 </v>
    <v>       0.33333333       0.06666667       0.26837554 </v>
    <v>       0.13333333       0.86666667       0.60809141 </v>
    <v>       0.13333333       0.86666667       0.70660902 </v>
    <v>       0.13333333       0.86666667       0.16985794 </v>
    <v>       0.13333333       0.86666667       0.26837554 </v>
    <v>       0.13333333       0.66666667       0.60809141 </v>
    <v>       0.13333333       0.66666667       0.70660902 </v>
    <v>       0.33333333       0.26666667       0.70660902 </v>
    <v>       0.13333333       0.66666667       0.16985794 </v>
[...]
       <r>    -9.9294     0.0000   212.0000 </r>
       <r>    -9.8583     0.0000   212.0000 </r>
       <r>    -9.7871     0.0000   212.0000 </r>
       <r>    -9.7160     0.0000   212.0000 </r>
       <r>    -9.6448     0.0002   212.0000 </r>
       <r>    -9.5737     0.0138   212.0010 </r>
       <r>    -9.5025     0.3275   212.0243 </r>
       <r>    -9.4314     3.1240   212.2466 </r>
       <r>    -9.3602    12.5353   213.1384 </r>
       <r>    -9.2891    23.3553   214.8001 </r>
       <r>    -9.2180    27.0654   216.7258 </r>
       <r>    -9.1468    27.5831   218.6883 </r>
       <r>    -9.0757    22.8233   220.3122 </r>
       <r>    -9.0045    15.2039   221.3939 </r>
       <r>    -8.9334     7.4993   221.9275 </r>
       <r>    -8.8622     5.3532   222.3084 </r>
       <r>    -8.7911     9.8090   223.0063 </r>
       <r>    -8.7199     9.6049   223.6896 </r>
       <r>    -8.6488     3.7534   223.9567 </r>
       <r>    -8.5776     0.5741   223.9975 </r>
       <r>    -8.5065     0.0340   223.9999 </r>
       <r>    -8.4353     0.0008   224.0000 </r>
       <r>    -8.3642     0.0000   224.0000 </r>
       <r>    -8.2930     0.0000   224.0000 </r>
       <r>    -8.2219     0.0000   224.0000 </r>
       <r>    -8.1507     0.0000   224.0000 </r>
       <r>    -8.0796     0.0000   224.0000 </r>
       <r>    -8.0084     0.0000   224.0000 </r>
       <r>    -7.9373     0.0000   224.0000 </r>
       <r>    -7.8661     0.0000   224.0000 </r>
       <r>    -7.7950     0.0000   224.0000 </r>
       <r>    -7.7238     0.0000   224.0000 </r>
       <r>    -7.6527     0.0000   224.0000 </r>
       <r>    -7.5815     0.0000   224.0000 </r>
       <r>    -7.5104     0.0000   224.0000 </r>
       <r>    -7.4392     0.0019   224.0001 </r>
       <r>    -7.3681     0.0881   224.0064 </r>
       <r>    -7.2969     1.7845   224.1334 </r>
       <r>    -7.2258    16.4718   225.3053 </r>
       <r>    -7.1546    71.0595   230.3611 </r>
       <r>    -7.0835   139.1718   240.2630 </r>
       <r>    -7.0123   117.7713   248.6423 </r>
       <r>    -6.9412    43.5733   251.7425 </r>
       <r>    -6.8700    32.7805   254.0748 </r>
       <r>    -6.7989   127.8837   263.1736 </r>
       <r>    -6.7277   276.4973   282.8460 </r>
       <r>    -6.6566   344.5871   307.3630 </r>
       <r>    -6.5854   318.7842   330.0441 </r>
       <r>    -6.5143   190.0745   343.5677 </r>
       <r>    -6.4431    55.1165   347.4892 </r>
       <r>    -6.3720     6.8649   347.9776 </r>
       <r>    -6.3008     1.4852   348.0833 </r>
       <r>    -6.2297    14.1637   349.0910 </r>
       <r>    -6.1586    69.0924   354.0069 </r>
       <r>    -6.0874   134.7818   363.5964 </r>
       <r>    -6.0163   106.6731   371.1861 </r>
       <r>    -5.9451    36.1884   373.7609 </r>
       <r>    -5.8740    21.4174   375.2847 </r>
       <r>    -5.8028    76.6188   380.7360 </r>
       <r>    -5.7317   146.8291   391.1827 </r>
       <r>    -5.6605   132.3670   400.6005 </r>
       <r>    -5.5894   128.7195   409.7587 </r>
       <r>    -5.5182   223.9904   425.6954 </r>
       <r>    -5.4471   245.9785   443.1965 </r>
       <r>    -5.3759   142.2200   453.3153 </r>
       <r>    -5.3048   107.4564   460.9607 </r>
       <r>    -5.2336   154.1819   471.9305 </r>
       <r>    -5.1625   179.5947   484.7085 </r>
       <r>    -5.0913   186.3431   497.9666 </r>
       <r>    -5.0202   129.7601   507.1988 </r>
       <r>    -4.9490    83.8650   513.1657 </r>
       <r>    -4.8779   126.1507   522.1412 </r>
       <r>    -4.8067   160.4740   533.5587 </r>
       <r>    -4.7356   190.4775   547.1110 </r>
       <r>    -4.6644   286.1518   567.4704 </r>
       <r>    -4.5933   312.0499   589.6724 </r>
       <r>    -4.5221   191.3742   603.2884 </r>
       <r>    -4.4510    60.0466   607.5606 </r>
       <r>    -4.3798    28.5722   609.5935 </r>
       <r>    -4.3087    84.8116   615.6278 </r>
       <r>    -4.2375   143.8674   625.8638 </r>
       <r>    -4.1664   118.5619   634.2993 </r>
       <r>    -4.0952    59.1818   638.5100 </r>
       <r>    -4.0241    18.2863   639.8111 </r>
       <r>    -3.9529     7.4889   640.3439 </r>
       <r>    -3.8818    45.5374   643.5838 </r>
       <r>    -3.8106   170.7160   655.7301 </r>
       <r>    -3.7395   262.7002   674.4209 </r>
       <r>    -3.6683   198.5258   688.5458 </r>
       <r>    -3.5972   168.5585   700.5385 </r>
       <r>    -3.5260   204.0330   715.0552 </r>
       <r>    -3.4549   196.4125   729.0297 </r>
       <r>    -3.3837   169.2319   741.0704 </r>
       <r>    -3.3126   168.8487   753.0838 </r>
       <r>    -3.2415   114.6855   761.2435 </r>
       <r>    -3.1703    38.5384   763.9855 </r>
       <r>    -3.0992    24.7412   765.7458 </r>
       <r>    -3.0280    42.1314   768.7434 </r>
       <r>    -2.9569    36.9693   771.3737 </r>
       <r>    -2.8857    39.8158   774.2065 </r>
       <r>    -2.8146   113.3051   782.2681 </r>
       <r>    -2.7434   223.3012   798.1557 </r>
       <r>    -2.6723   296.5073   819.2518 </r>
       <r>    -2.6011   259.4169   837.7090 </r>
       <r>    -2.5300   135.4917   847.3491 </r>
       <r>    -2.4588   108.6050   855.0762 </r>
       <r>    -2.3877   189.1795   868.5361 </r>
       <r>    -2.3165   214.2324   883.7785 </r>
       <r>    -2.2454   130.1731   893.0402 </r>
       <r>    -2.1742    47.1456   896.3945 </r>
       <r>    -2.1031    58.1069   900.5288 </r>
       <r>    -2.0319   129.9485   909.7745 </r>
       <r>    -1.9608   138.0734   919.5982 </r>
       <r>    -1.8896    92.7083   926.1943 </r>
       <r>    -1.8185   115.6109   934.4199 </r>
       <r>    -1.7473   124.0944   943.2491 </r>
       <r>    -1.6762    61.3749   947.6158 </r>
       <r>    -1.6050    26.4293   949.4962 </r>
       <r>    -1.5339    21.8552   951.0512 </r>
       <r>    -1.4627    10.9316   951.8290 </r>
       <r>    -1.3916     2.2216   951.9871 </r>
       <r>    -1.3204     0.1765   951.9996 </r>
       <r>    -1.2493     0.0054   952.0000 </r>
       <r>    -1.1781     0.0001   952.0000 </r>
       <r>    -1.1070     0.0000   952.0000 </r>
       <r>    -1.0358     0.0000   952.0000 </r>
       <r>    -0.9647     0.0000   952.0000 </r>
       <r>    -0.8935     0.0000   952.0000 </r>
       <r>    -0.8224     0.0000   952.0000 </r>
       <r>    -0.7512     0.0000   952.0000 </r>
       <r>    -0.6801     0.0000   952.0000 </r>
       <r>    -0.6089     0.0000   952.0000 </r>
       <r>    -0.5378     0.0000   952.0000 </r>
       <r>    -0.4666     0.0000   952.0000 </r>
       <r>    -0.3955     0.0000   952.0000 </r>
       <r>    -0.3243     0.0000   952.0000 </r>
       <r>    -0.2532     0.0003   952.0000 </r>
       <r>    -0.1821     0.0180   952.0013 </r>
       <r>    -0.1109     0.3638   952.0272 </r>
       <r>    -0.0398     2.8388   952.2292 </r>
       <r>     0.0314     8.6817   952.8469 </r>
       <r>     0.1025    11.0505   953.6331 </r>
       <r>     0.1737    10.1172   954.3529 </r>
       <r>     0.2448    17.9659   955.6312 </r>
       <r>     0.3160    35.8807   958.1840 </r>
       <r>     0.3871   106.0276   965.7278 </r>
       <r>     0.4583   240.6118   982.8470 </r>
       <r>     0.5294   272.2387  1002.2165 </r>
       <r>     0.6006   255.6730  1020.4073 </r>
       <r>     0.6717   269.5541  1039.5858 </r>
       <r>     0.7429   159.9887  1050.9688 </r>
       <r>     0.8140    55.7201  1054.9332 </r>
       <r>     0.8852   119.7493  1063.4532 </r>
       <r>     0.9563   329.2236  1086.8771 </r>
       <r>     1.0275   397.8433  1115.1832 </r>
       <r>     1.0986   269.3302  1134.3457 </r>
       <r>     1.1698   173.7093  1146.7049 </r>
       <r>     1.2409   125.3093  1155.6205 </r>
       <r>     1.3121   107.0745  1163.2388 </r>
       <r>     1.3832    69.5661  1168.1883 </r>
       <r>     1.4544    22.2717  1169.7729 </r>
       <r>     1.5255     3.0241  1169.9881 </r>
       <r>     1.5967     0.1640  1169.9998 </r>
       <r>     1.6678     0.0034  1170.0000 </r>
       <r>     1.7390     0.0000  1170.0000 </r>
       <r>     1.8101     0.0000  1170.0000 </r>
       <r>     1.8813     0.0000  1170.0000 </r>
       <r>     1.9524     0.0000  1170.0000 </r>
       <r>     2.0236     0.0000  1170.0000 </r>
       <r>     2.0947     0.0000  1170.0000 </r>
       <r>     2.1659     0.0000  1170.0000 </r>
       <r>     2.2370     0.0000  1170.0000 </r>
       <r>     2.3082     0.0000  1170.0000 </r>
      </set>
     </set>
    </array>
   </total>
  </dos>
 </calculation>
 <structure name="finalpos" >
  <crystal>
   <varray name="basis" >
    <v>      15.90000000       0.00000000       0.00000000 </v>
    <v>      -7.95000000      13.76980392       0.00000000 </v>
    <v>       0.00000000       0.00000000      32.38000000 </v>
   </varray>
   <i name="volume">   7089.27338987 </i>
   <varray name="rec_basis" >
    <v>       0.06289308       0.03631134       0.00000000 </v>
    <v>       0.00000000       0.07262268       0.00000000 </v>
    <v>       0.00000000       0.00000000       0.03088326 </v>
   </varray>
  </crystal>
  <varray name="positions" >
   <v>       0.14522509       0.02649551       0.02041659 </v>
   <v>       0.09947773       0.04940142       0.05272016 </v>
   <v>       0.15057862       0.08179115       0.98478792 </v>
   <v>       0.10798235       0.14054285       0.99513763 </v>
   <v>       0.07603195       0.11985539       0.03756960 </v>
   <v>       0.87645958       0.85742183       0.01282464 </v>
   <v>       0.86759608       0.97412509       0.97274594 </v>
   <v>       0.85137088       0.93308125       0.01360336 </v>
   <v>       0.90155547       0.92407507       0.94729452 </v>
   <v>       0.90728957       0.85275460       0.97168460 </v>
   <v>       0.99939303       0.99466372       0.00037673 </v>
   <v>       0.04157296       0.15267412       0.05516607 </v>
   <v>       0.82270872       0.95330837       0.03989526 </v>
   <v>       0.87137274       0.81111235       0.03855079 </v>
   <v>       0.85670538       0.03342420       0.96298392 </v>
   <v>       0.92406200       0.94100467       0.91519822 </v>
   <v>       0.08231881       0.01666915       0.08330525 </v>
   <v>       0.16771228       0.97222275       0.02204577 </v>
   <v>       0.18102954       0.07933577       0.95503471 </v>
   <v>       0.10356050       0.19298820       0.97504524 </v>
   <v>       0.93384270       0.80526052       0.96114358 </v>
   <v>       0.60002491       0.60002810       0.65734411 </v>
   <v>       0.20002868       0.80001256       0.21894126 </v>
   <v>       0.20000812       0.60000538       0.65734353 </v>
   <v>       0.60002883       0.80001327       0.21888626 </v>
   <v>       0.20003935       0.60001984       0.21897620 </v>
   <v>       0.60000454       0.80000300       0.65734558 </v>
   <v>       0.20002276       0.40000772       0.21892175 </v>
   <v>       0.80003925       0.00001630       0.21880014 </v>
   <v>       0.20000061       0.19999821       0.65735042 </v>
   <v>       0.80000575       0.00000280       0.65735063 </v>
   <v>       0.20005396       0.20005925       0.21889093 </v>
   <v>       0.20000206       0.80000410       0.65734578 </v>
   <v>       0.20000297       0.40000094       0.65734495 </v>
   <v>       0.60002216       0.60002165       0.21891772 </v>
   <v>       0.40001773       0.60001648       0.21896944 </v>
   <v>       0.39997739       0.00000030       0.65734464 </v>
   <v>       0.60000226       0.40000187       0.65734147 </v>
   <v>       0.39998831       0.20001150       0.21898017 </v>
   <v>       0.60001950       0.40001579       0.21899617 </v>
   <v>       0.39998636       0.19999519       0.65734228 </v>
   <v>       0.40001702       0.40001557       0.21895788 </v>
   <v>       0.60000265       0.20000532       0.65734195 </v>
   <v>       0.39997809       0.39998079       0.65734359 </v>
   <v>       0.60001756       0.20001853       0.21900259 </v>
   <v>       0.40000299       0.80000036       0.65734341 </v>
   <v>       0.40000399       0.60000510       0.65734267 </v>
   <v>       0.60002428      -0.00000093       0.65734466 </v>
   <v>       0.40001676       0.79999453       0.21897703 </v>
   <v>       0.60002046       0.00000506       0.21893054 </v>
   <v>       0.40001802       0.00000818       0.21897470 </v>
   <v>       0.80003612       0.20000710       0.21892258 </v>
   <v>       0.20000024       0.00000455       0.65735074 </v>
   <v>       0.20004152       0.00001533       0.21892092 </v>
   <v>       0.00004734       0.00002471       0.21875899 </v>
   <v>       0.80000502       0.80000360       0.65735066 </v>
   <v>       0.00000243       0.00000214       0.65733772 </v>
   <v>       0.80003061       0.80002891       0.21879507 </v>
   <v>       0.00006318       0.20002444       0.21883028 </v>
   <v>       0.00000034       0.19999740       0.65735048 </v>
   <v>       0.80000865       0.60001872       0.65734280 </v>
   <v>       0.00004227       0.40002694       0.21893143 </v>
   <v>       0.00000532       0.39998000       0.65734450 </v>
   <v>       0.00003464       0.60002018       0.21893869 </v>
   <v>       0.79999924       0.40000194       0.65734200 </v>
   <v>       0.00000511       0.60002828       0.65734461 </v>
   <v>       0.80003216       0.60003534       0.21892512 </v>
   <v>       0.80001985       0.40001571       0.21898567 </v>
   <v>      -0.00000001       0.80000499       0.65735099 </v>
   <v>       0.00004179       0.80002827       0.21884343 </v>
   <v>       0.80000894       0.19999340       0.65734275 </v>
   <v>       0.93339999       0.06675864       0.17049436 </v>
   <v>       0.73333800       0.26666666       0.60908770 </v>
   <v>       0.73333489       0.26666891       0.70559375 </v>
   <v>       0.93332864       0.66667219       0.70560088 </v>
   <v>       0.93333778       0.66668487       0.60908891 </v>
   <v>       0.73329992       0.26670071       0.17072694 </v>
   <v>       0.73341163       0.26665268       0.26723356 </v>
   <v>       0.93340055       0.46669747       0.26721274 </v>
   <v>       0.73334782       0.06666546       0.60908860 </v>
   <v>       0.73334355       0.06667290       0.70560088 </v>
   <v>       0.93334066       0.06666207       0.70559937 </v>
   <v>       0.93339389       0.86662992       0.17050060 </v>
   <v>       0.73327731       0.06673130       0.17062890 </v>
   <v>       0.93333389       0.06666953       0.60909057 </v>
   <v>       0.73344331       0.06661134       0.26713987 </v>
   <v>       0.93334331       0.26675355       0.17064196 </v>
   <v>       0.93332991       0.26665959       0.70560042 </v>
   <v>       0.93336419       0.86676023       0.26704106 </v>
   <v>       0.73340246       0.46676248       0.26723273 </v>
   <v>       0.73330631       0.46661382       0.17072437 </v>
   <v>       0.73327533       0.86664718       0.17055633 </v>
   <v>       0.73333061       0.86666571       0.70560201 </v>
   <v>       0.73347111       0.86673670       0.26707407 </v>
   <v>       0.93330895       0.46666341       0.17070693 </v>
   <v>       0.73334090       0.86667122       0.60909207 </v>
   <v>       0.73334825       0.66668479       0.60908810 </v>
   <v>       0.73334241       0.66667204       0.70560116 </v>
   <v>       0.93333912       0.46667120       0.70559210 </v>
   <v>       0.73328778       0.66655368       0.17062072 </v>
   <v>       0.93334443       0.46667406       0.60909035 </v>
   <v>       0.73342847       0.66683595       0.26713494 </v>
   <v>       0.93333779       0.26665570       0.60908879 </v>
   <v>       0.93341652       0.26661347       0.26714937 </v>
   <v>       0.73333805       0.46667548       0.60908732 </v>
   <v>       0.73333354       0.46667008       0.70559379 </v>
   <v>       0.93339724       0.66679330       0.26715973 </v>
   <v>       0.93338506       0.06662964       0.26703645 </v>
   <v>       0.93333815       0.66659567       0.17065062 </v>
   <v>       0.53334404       0.86667127       0.60908683 </v>
   <v>       0.53333395       0.06666559       0.70559227 </v>
   <v>       0.53327109       0.86666428       0.17068205 </v>
   <v>       0.33346028       0.26673552       0.17067670 </v>
   <v>       0.33327107       0.26666924       0.26721219 </v>
   <v>       0.33331994       0.06666628       0.60908854 </v>
   <v>       0.33333333       0.06667596       0.70560059 </v>
   <v>       0.33344296       0.06672552       0.17069596 </v>
   <v>       0.33328354       0.06664103       0.26722421 </v>
   <v>       0.13333268       0.86667190       0.60909258 </v>
   <v>       0.13333785       0.86666745       0.70560156 </v>
   <v>       0.13345413       0.86671203       0.17063093 </v>
   <v>       0.13327297       0.86667380       0.26715954 </v>
   <v>       0.13333493       0.66667537       0.60908743 </v>
   <v>       0.13333499       0.66667053       0.70559762 </v>
   <v>       0.33333376       0.26666238       0.70560025 </v>
   <v>       0.13338873       0.66666033       0.17070394 </v>
   <v>       0.13333491       0.46666306       0.60908708 </v>
   <v>       0.13333580       0.46666665       0.70559728 </v>
   <v>       0.13339131       0.46673967       0.17069316 </v>
   <v>       0.13334391       0.46662633       0.26720674 </v>
   <v>       0.13333315       0.26666328       0.60909204 </v>
   <v>       0.13333901       0.26667409       0.70560093 </v>
   <v>       0.13345138       0.26675039       0.17059776 </v>
   <v>       0.13328700       0.26661098       0.26714138 </v>
   <v>       0.13333856       0.06667010       0.60909053 </v>
   <v>       0.13332438       0.06666374       0.70559928 </v>
   <v>       0.13358053       0.06678508       0.17066343 </v>
   <v>       0.13322640       0.06664196       0.26711627 </v>
   <v>       0.13333869       0.66670009       0.26721543 </v>
   <v>       0.33331982       0.26665600       0.60908800 </v>
   <v>       0.33331014       0.46664704       0.26721227 </v>
   <v>       0.33339648       0.46671064       0.17069861 </v>
   <v>       0.53343594       0.86667458       0.26719189 </v>
   <v>       0.53334477       0.66667594       0.60908614 </v>
   <v>       0.53334005       0.66667035       0.70559801 </v>
   <v>       0.53327133       0.66661138       0.17067313 </v>
   <v>       0.53343273       0.66674729       0.26718575 </v>
   <v>       0.53333139       0.46667479       0.60908901 </v>
   <v>       0.53333345       0.46667232       0.70559201 </v>
   <v>       0.53334426       0.46661251       0.17070910 </v>
   <v>       0.53336409       0.46674780       0.26722123 </v>
   <v>       0.53332983       0.26666670       0.60908699 </v>
   <v>       0.53333479       0.26667054       0.70559351 </v>
   <v>       0.53334867       0.26667987       0.17074883 </v>
   <v>       0.53331816       0.26667408       0.26725850 </v>
   <v>       0.53333076       0.06665962       0.60909009 </v>
   <v>       0.93333955       0.86668007       0.70559967 </v>
   <v>       0.53334001       0.06673483       0.17072395 </v>
   <v>       0.53337600       0.06663629       0.26723369 </v>
   <v>       0.33333095       0.86667139       0.60908724 </v>
   <v>       0.33333650       0.86667143       0.70559769 </v>
   <v>       0.33339586       0.86669292       0.17071843 </v>
   <v>       0.33331737       0.86666031       0.26722644 </v>
   <v>       0.33333776       0.66667046       0.60908686 </v>
   <v>       0.33333975       0.66666998       0.70559544 </v>
   <v>       0.33335406       0.66667822       0.17072309 </v>
   <v>       0.33336713       0.66667328       0.26724589 </v>
   <v>       0.33333152       0.46666287       0.60908613 </v>
   <v>       0.33333743       0.46666773       0.70559704 </v>
   <v>       0.53334005       0.86667067       0.70559819 </v>
   <v>       0.93333372       0.86666576       0.60909075 </v>
  </varray>
 </structure>
</modeling>
