basalPlane                              
           1
    15.900000    0.000000    0.000000
    -7.950000   13.769804    0.000000
     0.000000    0.000000   32.380000
   C    Cr   H    Mo   S 
  10   1  10  50 100
Direct configuration=     1
   0.14460529  0.02592979  0.01992350
   0.09912890  0.04999164  0.05197921
   0.15060431  0.08079915  0.98405092
   0.10852852  0.14025875  0.99392121
   0.07632984  0.12060297  0.03634572
   0.87732276  0.85746800  0.01212144
   0.86679961  0.97378899  0.97243927
   0.85103609  0.93227683  0.01313689
   0.90180931  0.92508490  0.94675346
   0.90868707  0.85393772  0.97089652
   0.99938235  0.99476852  0.99976184
   0.04231043  0.15435187  0.05358332
   0.82197832  0.95180827  0.03949722
   0.87220819  0.81063939  0.03762840
   0.85549601  0.03302682  0.96299246
   0.92455583  0.94300203  0.91472291
   0.08150934  0.01764203  0.08261500
   0.16662177  0.97133221  0.02186957
   0.18104493  0.07750717  0.95441787
   0.10466839  0.19260862  0.97356265
   0.93566885  0.80696957  0.96011251
   0.60000000  0.60000000  0.65735022
   0.20000000  0.80000000  0.21911674
   0.20000000  0.60000000  0.65735022
   0.60000000  0.80000000  0.21911674
   0.20000000  0.60000000  0.21911674
   0.60000000  0.80000000  0.65735022
   0.20000000  0.40000000  0.21911674
   0.80000000  0.00000000  0.21911674
   0.20000000  0.20000000  0.65735022
   0.80000000  0.00000000  0.65735022
   0.20000000  0.20000000  0.21911674
   0.20000000  0.80000000  0.65735022
   0.20000000  0.40000000  0.65735022
   0.60000000  0.60000000  0.21911674
   0.40000000  0.60000000  0.21911674
   0.40000000  0.00000000  0.65735022
   0.60000000  0.40000000  0.65735022
   0.40000000  0.20000000  0.21911674
   0.60000000  0.40000000  0.21911674
   0.40000000  0.20000000  0.65735022
   0.40000000  0.40000000  0.21911674
   0.60000000  0.20000000  0.65735022
   0.40000000  0.40000000  0.65735022
   0.60000000  0.20000000  0.21911674
   0.40000000  0.80000000  0.65735022
   0.40000000  0.60000000  0.65735022
   0.60000000  0.00000000  0.65735022
   0.40000000  0.80000000  0.21911674
   0.60000000  0.00000000  0.21911674
   0.40000000  0.00000000  0.21911674
   0.80000000  0.20000000  0.21911674
   0.20000000  0.00000000  0.65735022
   0.20000000  0.00000000  0.21911674
   0.00000000  0.00000000  0.21911674
   0.80000000  0.80000000  0.65735022
   0.00000000  0.00000000  0.65735022
   0.80000000  0.80000000  0.21911674
   0.00000000  0.20000000  0.21911674
   0.00000000  0.20000000  0.65735022
   0.80000000  0.60000000  0.65735022
   0.00000000  0.40000000  0.21911674
   0.00000000  0.40000000  0.65735022
   0.00000000  0.60000000  0.21911674
   0.80000000  0.40000000  0.65735022
   0.00000000  0.60000000  0.65735022
   0.80000000  0.60000000  0.21911674
   0.80000000  0.40000000  0.21911674
   0.00000000  0.80000000  0.65735022
   0.00000000  0.80000000  0.21911674
   0.80000000  0.20000000  0.65735022
   0.93333333  0.06666667  0.16985794
   0.73333333  0.26666667  0.60809141
   0.73333333  0.26666667  0.70660902
   0.93333333  0.66666667  0.70660902
   0.93333333  0.66666667  0.60809141
   0.73333333  0.26666667  0.16985794
   0.73333333  0.26666667  0.26837554
   0.93333333  0.46666667  0.26837554
   0.73333333  0.06666667  0.60809141
   0.73333333  0.06666667  0.70660902
   0.93333333  0.06666667  0.70660902
   0.93333333  0.86666667  0.16985794
   0.73333333  0.06666667  0.16985794
   0.93333333  0.06666667  0.60809141
   0.73333333  0.06666667  0.26837554
   0.93333333  0.26666667  0.16985794
   0.93333333  0.26666667  0.70660902
   0.93333333  0.86666667  0.26837554
   0.73333333  0.46666667  0.26837554
   0.73333333  0.46666667  0.16985794
   0.73333333  0.86666667  0.16985794
   0.73333333  0.86666667  0.70660902
   0.73333333  0.86666667  0.26837554
   0.93333333  0.46666667  0.16985794
   0.73333333  0.86666667  0.60809141
   0.73333333  0.66666667  0.60809141
   0.73333333  0.66666667  0.70660902
   0.93333333  0.46666667  0.70660902
   0.73333333  0.66666667  0.16985794
   0.93333333  0.46666667  0.60809141
   0.73333333  0.66666667  0.26837554
   0.93333333  0.26666667  0.60809141
   0.93333333  0.26666667  0.26837554
   0.73333333  0.46666667  0.60809141
   0.73333333  0.46666667  0.70660902
   0.93333333  0.66666667  0.26837554
   0.93333333  0.06666667  0.26837554
   0.93333333  0.66666667  0.16985794
   0.53333333  0.86666667  0.60809141
   0.53333333  0.06666667  0.70660902
   0.53333333  0.86666667  0.16985794
   0.33333333  0.26666667  0.16985794
   0.33333333  0.26666667  0.26837554
   0.33333333  0.06666667  0.60809141
   0.33333333  0.06666667  0.70660902
   0.33333333  0.06666667  0.16985794
   0.33333333  0.06666667  0.26837554
   0.13333333  0.86666667  0.60809141
   0.13333333  0.86666667  0.70660902
   0.13333333  0.86666667  0.16985794
   0.13333333  0.86666667  0.26837554
   0.13333333  0.66666667  0.60809141
   0.13333333  0.66666667  0.70660902
   0.33333333  0.26666667  0.70660902
   0.13333333  0.66666667  0.16985794
   0.13333333  0.46666667  0.60809141
   0.13333333  0.46666667  0.70660902
   0.13333333  0.46666667  0.16985794
   0.13333333  0.46666667  0.26837554
   0.13333333  0.26666667  0.60809141
   0.13333333  0.26666667  0.70660902
   0.13333333  0.26666667  0.16985794
   0.13333333  0.26666667  0.26837554
   0.13333333  0.06666667  0.60809141
   0.13333333  0.06666667  0.70660902
   0.13333333  0.06666667  0.16985794
   0.13333333  0.06666667  0.26837554
   0.13333333  0.66666667  0.26837554
   0.33333333  0.26666667  0.60809141
   0.33333333  0.46666667  0.26837554
   0.33333333  0.46666667  0.16985794
   0.53333333  0.86666667  0.26837554
   0.53333333  0.66666667  0.60809141
   0.53333333  0.66666667  0.70660902
   0.53333333  0.66666667  0.16985794
   0.53333333  0.66666667  0.26837554
   0.53333333  0.46666667  0.60809141
   0.53333333  0.46666667  0.70660902
   0.53333333  0.46666667  0.16985794
   0.53333333  0.46666667  0.26837554
   0.53333333  0.26666667  0.60809141
   0.53333333  0.26666667  0.70660902
   0.53333333  0.26666667  0.16985794
   0.53333333  0.26666667  0.26837554
   0.53333333  0.06666667  0.60809141
   0.93333333  0.86666667  0.70660902
   0.53333333  0.06666667  0.16985794
   0.53333333  0.06666667  0.26837554
   0.33333333  0.86666667  0.60809141
   0.33333333  0.86666667  0.70660902
   0.33333333  0.86666667  0.16985794
   0.33333333  0.86666667  0.26837554
   0.33333333  0.66666667  0.60809141
   0.33333333  0.66666667  0.70660902
   0.33333333  0.66666667  0.16985794
   0.33333333  0.66666667  0.26837554
   0.33333333  0.46666667  0.60809141
   0.33333333  0.46666667  0.70660902
   0.53333333  0.86666667  0.70660902
   0.93333333  0.86666667  0.60809141
Direct configuration=     2
   0.14472288  0.02604197  0.02004235
   0.09940310  0.05024912  0.05201388
   0.15066667  0.08079128  0.98401436
   0.10853109  0.14046811  0.99399459
   0.07664822  0.12072145  0.03648533
   0.87712702  0.85712909  0.01203812
   0.86683156  0.97384405  0.97238088
   0.85095983  0.93213287  0.01321497
   0.90166383  0.92475300  0.94671085
   0.90825304  0.85368974  0.97085061
   0.99939249  0.99503026  0.99968098
   0.04226833  0.15428297  0.05360748
   0.82199043  0.95182522  0.03953071
   0.87224919  0.81069648  0.03763940
   0.85548768  0.03307517  0.96297881
   0.92455277  0.94297394  0.91472619
   0.08148967  0.01763392  0.08262506
   0.16662177  0.97130788  0.02187740
   0.18106796  0.07753088  0.95439347
   0.10464108  0.19260825  0.97356979
   0.93567183  0.80702423  0.96013448
   0.60001823  0.60001906  0.65735186
   0.20000391  0.79999592  0.21911347
   0.20001068  0.60000515  0.65735153
   0.60000002  0.79999802  0.21911231
   0.20000373  0.60000348  0.21911393
   0.60000183  0.80000046  0.65735192
   0.20000030  0.40000053  0.21911405
   0.79999124 -0.00000945  0.21911335
   0.20000342  0.20000039  0.65735359
   0.79999923  0.00000170  0.65735349
   0.19999975  0.20000149  0.21910329
   0.19999931  0.80000090  0.65735178
   0.19999957  0.39999796  0.65735172
   0.59999414  0.59999923  0.21910998
   0.39999835  0.60000194  0.21911461
   0.39998088 -0.00000126  0.65735177
   0.60000255  0.39999677  0.65735149
   0.39997799  0.19999278  0.21911522
   0.60000337  0.39999903  0.21911359
   0.39998987  0.19999480  0.65735078
   0.39999586  0.40000258  0.21911110
   0.60000281  0.20000558  0.65735144
   0.39998123  0.39998192  0.65735170
   0.60000255  0.20000508  0.21911399
   0.39999535  0.79998986  0.65735163
   0.39999565  0.60000485  0.65735151
   0.60001783 -0.00000163  0.65735176
   0.39999678  0.79999338  0.21911354
   0.59999257 -0.00000609  0.21911088
   0.39999736 -0.00000917  0.21911234
   0.80000489  0.19999537  0.21911597
   0.20000331  0.00000216  0.65735353
   0.19999246  0.00000244  0.21911240
   0.00001442  0.00000551  0.21909854
   0.79999882  0.79999624  0.65735355
   0.00000056  0.00000002  0.65734457
   0.79998958  0.80000025  0.21911021
   0.00001460  0.20000709  0.21911376
  -0.00000207  0.20000041  0.65735345
   0.80000480  0.60001011  0.65735086
   0.00000776  0.40000881  0.21910977
   0.00000157  0.39998173  0.65735169
   0.00000643  0.60000037  0.21910934
   0.79999404  0.39999683  0.65735154
   0.00000154  0.60001942  0.65735160
   0.80000689  0.60001103  0.21911597
   0.79999851  0.39999967  0.21911354
  -0.00000198  0.79999699  0.65735354
   0.00000735  0.80000132  0.21911213
   0.80000486  0.19999425  0.65735073
   0.93334507  0.06667521  0.17070310
   0.73333343  0.26666646  0.60896199
   0.73333312  0.26666655  0.70573621
   0.93333321  0.66666573  0.70573694
   0.93333378  0.66666661  0.60896168
   0.73333067  0.26666754  0.17072861
   0.73333437  0.26666571  0.26750652
   0.93333086  0.46666490  0.26750634
   0.73333348  0.06666627  0.60896165
   0.73333250  0.06666589  0.70573701
   0.93333258  0.06666653  0.70573620
   0.93334020  0.86666634  0.17070428
   0.73333056  0.06666408  0.17072591
   0.93333364  0.06666634  0.60896225
   0.73333337  0.06666523  0.26750617
   0.93333793  0.26666846  0.17072605
   0.93333352  0.26666709  0.70573688
   0.93333437  0.86666735  0.26750586
   0.73333412  0.46666777  0.26750640
   0.73333017  0.46666343  0.17072847
   0.73333589  0.86666852  0.17071908
   0.73333248  0.86666568  0.70573690
   0.73333784  0.86666800  0.26750484
   0.93333185  0.46666556  0.17072901
   0.73333447  0.86666694  0.60896206
   0.73333349  0.66666661  0.60896160
   0.73333231  0.66666579  0.70573711
   0.93333309  0.46666631  0.70573671
   0.73333119  0.66666512  0.17072465
   0.93333267  0.46666603  0.60896197
   0.73333408  0.66666826  0.26750622
   0.93333371  0.26666655  0.60896169
   0.93333443  0.26666700  0.26750609
   0.73333343  0.46666633  0.60896195
   0.73333301  0.46666624  0.70573628
   0.93333448  0.66666746  0.26750597
   0.93333519  0.06666630  0.26750567
   0.93333285  0.66666554  0.17072691
   0.53333476  0.86666755  0.60896224
   0.53333373  0.06666662  0.70573679
   0.53333243  0.86666479  0.17072784
   0.33333849  0.26667054  0.17072015
   0.33333026  0.26666555  0.26750789
   0.33333333  0.06666619  0.60896166
   0.33333438  0.06666644  0.70573689
   0.33333798  0.06667163  0.17071987
   0.33333084  0.06666411  0.26750703
   0.13333302  0.86666697  0.60896211
   0.13333379  0.86666610  0.70573664
   0.13333016  0.86667075  0.17071613
   0.13333304  0.86667152  0.26750606
   0.13333240  0.66666657  0.60896231
   0.13333257  0.66666611  0.70573654
   0.33333451  0.26666770  0.70573694
   0.13333327  0.66666431  0.17072787
   0.13333239  0.46666522  0.60896230
   0.13333275  0.46666580  0.70573657
   0.13333491  0.46666517  0.17072703
   0.13333338  0.46666505  0.26750709
   0.13333306  0.26666548  0.60896208
   0.13333410  0.26666729  0.70573668
   0.13332968  0.26665784  0.17071108
   0.13333287  0.26666053  0.26750698
   0.13333334  0.06666633  0.60896220
   0.13333464  0.06666710  0.70573601
   0.13335655  0.06667979  0.17076266
   0.13333374  0.06666660  0.26751002
   0.13333310  0.66666764  0.26750698
   0.33333334  0.26666652  0.60896163
   0.33333283  0.46666502  0.26750642
   0.33333524  0.46666398  0.17072642
   0.53333422  0.86666627  0.26750673
   0.53333476  0.66666660  0.60896223
   0.53333449  0.66666620  0.70573677
   0.53333068  0.66666348  0.17072724
   0.53333439  0.66666723  0.26750701
   0.53333391  0.46666595  0.60896190
   0.53333376  0.46666668  0.70573689
   0.53332890  0.46666105  0.17072704
   0.53333464  0.46666468  0.26750664
   0.53333364  0.26666650  0.60896196
   0.53333398  0.26666692  0.70573624
   0.53332988  0.26666664  0.17072729
   0.53333233  0.26666597  0.26750671
   0.53333394  0.06666736  0.60896194
   0.93333230  0.86666509  0.70573627
   0.53333198  0.06666900  0.17072754
   0.53333508  0.06666943  0.26750643
   0.33333340  0.86666759  0.60896228
   0.33333416  0.86666750  0.70573659
   0.33333606  0.86666923  0.17072809
   0.33333222  0.86666670  0.26750584
   0.33333349  0.66666645  0.60896073
   0.33333403  0.66666650  0.70573832
   0.33333578  0.66666537  0.17072858
   0.33333390  0.66666671  0.26750801
   0.33333342  0.46666520  0.60896226
   0.33333439  0.46666604  0.70573668
   0.53333450  0.86666724  0.70573671
   0.93333364  0.86666662  0.60896223
Direct configuration=     3
   0.14473931  0.02605765  0.02005896
   0.09944141  0.05028510  0.05201873
   0.15067538  0.08079018  0.98400925
   0.10853145  0.14049737  0.99400484
   0.07669271  0.12073801  0.03650483
   0.87709968  0.85708173  0.01202647
   0.86683602  0.97385175  0.97237272
   0.85094917  0.93211275  0.01322588
   0.90164350  0.92470662  0.94670489
   0.90819240  0.85365509  0.97084420
   0.99939391  0.99506683  0.99966968
   0.04226245  0.15427334  0.05361086
   0.82199212  0.95182759  0.03953538
   0.87225492  0.81070446  0.03764093
   0.85548652  0.03308193  0.96297690
   0.92455235  0.94297002  0.91472665
   0.08148692  0.01763279  0.08262647
   0.16662177  0.97130448  0.02187850
   0.18107118  0.07753419  0.95439006
   0.10463727  0.19260820  0.97357079
   0.93567224  0.80703187  0.96013755
   0.60002078  0.60002173  0.65735209
   0.20000446  0.79999535  0.21911302
   0.20001217  0.60000587  0.65735171
   0.60000003  0.79999774  0.21911170
   0.20000425  0.60000397  0.21911354
   0.60000208  0.80000052  0.65735216
   0.20000034  0.40000061  0.21911368
   0.79999002 -0.00001077  0.21911287
   0.20000390  0.20000044  0.65735406
   0.79999912  0.00000194  0.65735394
   0.19999971  0.20000169  0.21910141
   0.19999921  0.80000102  0.65735199
   0.19999951  0.39999767  0.65735193
   0.59999333  0.59999912  0.21910904
   0.39999812  0.60000221  0.21911431
   0.39997821 -0.00000144  0.65735199
   0.60000291  0.39999632  0.65735167
   0.39997492  0.19999177  0.21911501
   0.60000384  0.39999889  0.21911315
   0.39998846  0.19999407  0.65735086
   0.39999528  0.40000294  0.21911032
   0.60000320  0.20000636  0.65735161
   0.39997860  0.39997940  0.65735191
   0.60000291  0.20000579  0.21911361
   0.39999470  0.79998845  0.65735182
   0.39999504  0.60000552  0.65735169
   0.60002032 -0.00000186  0.65735198
   0.39999634  0.79999245  0.21911310
   0.59999153 -0.00000694  0.21911006
   0.39999700 -0.00001045  0.21911173
   0.80000558  0.19999472  0.21911586
   0.20000377  0.00000247  0.65735400
   0.19999141  0.00000278  0.21911179
   0.00001643  0.00000629  0.21909600
   0.79999866  0.79999571  0.65735402
   0.00000064  0.00000003  0.65734378
   0.79998813  0.80000028  0.21910930
   0.00001665  0.20000809  0.21911334
  -0.00000236  0.20000047  0.65735391
   0.80000547  0.60001153  0.65735095
   0.00000884  0.40001004  0.21910880
   0.00000179  0.39997918  0.65735189
   0.00000733  0.60000042  0.21910830
   0.79999321  0.39999638  0.65735172
   0.00000176  0.60002214  0.65735180
   0.80000785  0.60001257  0.21911586
   0.79999830  0.39999962  0.21911310
  -0.00000225  0.79999657  0.65735401
   0.00000838  0.80000151  0.21911148
   0.80000554  0.19999344  0.65735080
   0.93334671  0.06667640  0.17082119
   0.73333345  0.26666643  0.60908363
   0.73333310  0.26666654  0.70561425
   0.93333319  0.66666559  0.70561510
   0.93333384  0.66666661  0.60908327
   0.73333030  0.26666766  0.17085027
   0.73333451  0.26666557  0.26738510
   0.93333051  0.46666465  0.26738489
   0.73333350  0.06666621  0.60908325
   0.73333238  0.06666578  0.70561517
   0.93333248  0.06666651  0.70561424
   0.93334116  0.86666630  0.17082254
   0.73333017  0.06666371  0.17084719
   0.93333368  0.06666630  0.60908393
   0.73333338  0.06666503  0.26738470
   0.93333858  0.26666871  0.17084734
   0.93333354  0.26666715  0.70561502
   0.93333452  0.86666745  0.26738434
   0.73333423  0.46666792  0.26738497
   0.73332973  0.46666298  0.17085011
   0.73333625  0.86666878  0.17083940
   0.73333236  0.86666554  0.70561505
   0.73333847  0.86666819  0.26738318
   0.93333165  0.46666540  0.17085072
   0.73333463  0.86666697  0.60908371
   0.73333351  0.66666661  0.60908318
   0.73333217  0.66666567  0.70561529
   0.93333305  0.46666626  0.70561483
   0.73333089  0.66666491  0.17084575
   0.93333258  0.46666594  0.60908361
   0.73333419  0.66666849  0.26738476
   0.93333377  0.26666653  0.60908329
   0.93333459  0.26666704  0.26738461
   0.73333345  0.46666628  0.60908359
   0.73333297  0.46666618  0.70561433
   0.93333463  0.66666757  0.26738447
   0.93333545  0.06666625  0.26738413
   0.93333278  0.66666539  0.17084833
   0.53333495  0.86666768  0.60908392
   0.53333378  0.06666661  0.70561492
   0.53333231  0.86666453  0.17084939
   0.33333921  0.26667108  0.17084063
   0.33332984  0.26666539  0.26738665
   0.33333333  0.06666613  0.60908326
   0.33333452  0.06666641  0.70561503
   0.33333862  0.06667233  0.17084030
   0.33333049  0.06666375  0.26738568
   0.13333298  0.86666701  0.60908377
   0.13333386  0.86666602  0.70561475
   0.13332972  0.86667133  0.17083604
   0.13333300  0.86667219  0.26738457
   0.13333227  0.66666656  0.60908399
   0.13333247  0.66666604  0.70561464
   0.33333467  0.26666784  0.70561509
   0.13333326  0.66666398  0.17084942
   0.13333226  0.46666502  0.60908398
   0.13333267  0.46666568  0.70561466
   0.13333513  0.46666496  0.17084846
   0.13333339  0.46666483  0.26738574
   0.13333302  0.26666531  0.60908374
   0.13333421  0.26666737  0.70561479
   0.13332917  0.26665661  0.17083028
   0.13333281  0.26665967  0.26738562
   0.13333334  0.06666628  0.60908387
   0.13333482  0.06666716  0.70561403
   0.13335979  0.06668162  0.17088907
   0.13333379  0.06666659  0.26738908
   0.13333306  0.66666777  0.26738563
   0.33333335  0.26666650  0.60908322
   0.33333276  0.46666479  0.26738498
   0.33333551  0.46666360  0.17084776
   0.53333435  0.86666622  0.26738534
   0.53333495  0.66666659  0.60908390
   0.53333465  0.66666614  0.70561489
   0.53333031  0.66666303  0.17084871
   0.53333454  0.66666731  0.26738565
   0.53333399  0.46666584  0.60908353
   0.53333382  0.46666668  0.70561503
   0.53332829  0.46666026  0.17084848
   0.53333482  0.46666440  0.26738523
   0.53333369  0.26666648  0.60908359
   0.53333407  0.26666696  0.70561429
   0.53332940  0.26666664  0.17084876
   0.53333220  0.26666587  0.26738531
   0.53333403  0.06666746  0.60908357
   0.93333215  0.86666487  0.70561433
   0.53333179  0.06666933  0.17084905
   0.53333533  0.06666982  0.26738499
   0.33333341  0.86666771  0.60908395
   0.33333427  0.86666762  0.70561469
   0.33333644  0.86666958  0.17084967
   0.33333207  0.86666671  0.26738432
   0.33333351  0.66666642  0.60908220
   0.33333413  0.66666647  0.70561666
   0.33333612  0.66666519  0.17085023
   0.33333398  0.66666672  0.26738679
   0.33333343  0.46666499  0.60908394
   0.33333453  0.46666596  0.70561479
   0.53333466  0.86666732  0.70561483
   0.93333368  0.86666661  0.60908390
Direct configuration=     4
   0.14474027  0.02605856  0.02005992
   0.09944364  0.05028719  0.05201901
   0.15067589  0.08079011  0.98400895
   0.10853147  0.14049907  0.99400544
   0.07669530  0.12073897  0.03650597
   0.87709808  0.85707898  0.01202580
   0.86683628  0.97385219  0.97237224
   0.85094855  0.93211158  0.01322652
   0.90164232  0.92470392  0.94670455
   0.90818887  0.85365308  0.97084382
   0.99939399  0.99506896  0.99966902
   0.04226211  0.15427278  0.05361105
   0.82199222  0.95182773  0.03953566
   0.87225525  0.81070492  0.03764102
   0.85548645  0.03308232  0.96297679
   0.92455232  0.94296979  0.91472667
   0.08148676  0.01763273  0.08262655
   0.16662177  0.97130428  0.02187856
   0.18107137  0.07753438  0.95438986
   0.10463705  0.19260819  0.97357085
   0.93567227  0.80703231  0.96013773
   0.60002093  0.60002188  0.65735210
   0.20000449  0.79999531  0.21911299
   0.20001226  0.60000591  0.65735172
   0.60000003  0.79999772  0.21911166
   0.20000428  0.60000399  0.21911351
   0.60000210  0.80000053  0.65735217
   0.20000034  0.40000061  0.21911365
   0.79998995 -0.00001085  0.21911285
   0.20000393  0.20000045  0.65735409
   0.79999911  0.00000195  0.65735397
   0.19999971  0.20000171  0.21910130
   0.19999921  0.80000103  0.65735201
   0.19999951  0.39999765  0.65735194
   0.59999328  0.59999911  0.21910899
   0.39999811  0.60000222  0.21911430
   0.39997805 -0.00000145  0.65735200
   0.60000293  0.39999630  0.65735168
   0.39997474  0.19999171  0.21911500
   0.60000386  0.39999888  0.21911313
   0.39998838  0.19999403  0.65735087
   0.39999525  0.40000296  0.21911027
   0.60000323  0.20000640  0.65735162
   0.39997845  0.39997925  0.65735192
   0.60000293  0.20000583  0.21911359
   0.39999467  0.79998836  0.65735184
   0.39999501  0.60000556  0.65735170
   0.60002047 -0.00000187  0.65735199
   0.39999631  0.79999240  0.21911307
   0.59999147 -0.00000699  0.21911002
   0.39999697 -0.00001052  0.21911169
   0.80000562  0.19999468  0.21911586
   0.20000380  0.00000248  0.65735402
   0.19999135  0.00000280  0.21911175
   0.00001655  0.00000633  0.21909585
   0.79999865  0.79999568  0.65735405
   0.00000064  0.00000003  0.65734374
   0.79998804  0.80000028  0.21910925
   0.00001676  0.20000814  0.21911331
  -0.00000238  0.20000047  0.65735393
   0.80000551  0.60001161  0.65735096
   0.00000891  0.40001011  0.21910874
   0.00000181  0.39997903  0.65735190
   0.00000738  0.60000042  0.21910824
   0.79999316  0.39999636  0.65735173
   0.00000177  0.60002229  0.65735181
   0.80000790  0.60001266  0.21911585
   0.79999829  0.39999962  0.21911307
  -0.00000227  0.79999655  0.65735403
   0.00000844  0.80000152  0.21911144
   0.80000558  0.19999339  0.65735080
   0.93334680  0.06667647  0.17082806
   0.73333345  0.26666643  0.60909070
   0.73333309  0.26666654  0.70560716
   0.93333319  0.66666559  0.70560800
   0.93333384  0.66666661  0.60909035
   0.73333027  0.26666767  0.17085735
   0.73333452  0.26666557  0.26737803
   0.93333049  0.46666464  0.26737783
   0.73333350  0.06666621  0.60909032
   0.73333238  0.06666577  0.70560808
   0.93333247  0.06666651  0.70560715
   0.93334121  0.86666629  0.17082942
   0.73333015  0.06666369  0.17085425
   0.93333369  0.06666630  0.60909101
   0.73333338  0.06666502  0.26737763
   0.93333861  0.26666872  0.17085440
   0.93333355  0.26666715  0.70560793
   0.93333453  0.86666746  0.26737727
   0.73333423  0.46666793  0.26737790
   0.73332970  0.46666295  0.17085719
   0.73333627  0.86666879  0.17084641
   0.73333235  0.86666553  0.70560796
   0.73333851  0.86666820  0.26737610
   0.93333164  0.46666539  0.17085780
   0.73333464  0.86666698  0.60909079
   0.73333351  0.66666661  0.60909026
   0.73333216  0.66666566  0.70560820
   0.93333305  0.46666626  0.70560774
   0.73333087  0.66666489  0.17085280
   0.93333257  0.46666594  0.60909069
   0.73333419  0.66666850  0.26737769
   0.93333377  0.26666653  0.60909037
   0.93333460  0.26666705  0.26737754
   0.73333345  0.46666628  0.60909067
   0.73333296  0.46666617  0.70560724
   0.93333464  0.66666758  0.26737740
   0.93333547  0.06666625  0.26737706
   0.93333277  0.66666538  0.17085540
   0.53333497  0.86666769  0.60909100
   0.53333379  0.06666661  0.70560783
   0.53333230  0.86666452  0.17085646
   0.33333925  0.26667111  0.17084764
   0.33332981  0.26666539  0.26737960
   0.33333333  0.06666612  0.60909033
   0.33333453  0.06666641  0.70560794
   0.33333866  0.06667237  0.17084731
   0.33333047  0.06666373  0.26737862
   0.13333298  0.86666701  0.60909085
   0.13333386  0.86666602  0.70560766
   0.13332969  0.86667136  0.17084302
   0.13333300  0.86667223  0.26737750
   0.13333226  0.66666656  0.60909108
   0.13333246  0.66666603  0.70560754
   0.33333468  0.26666785  0.70560800
   0.13333326  0.66666396  0.17085649
   0.13333225  0.46666501  0.60909106
   0.13333267  0.46666568  0.70560757
   0.13333515  0.46666495  0.17085553
   0.13333339  0.46666481  0.26737868
   0.13333302  0.26666530  0.60909082
   0.13333422  0.26666738  0.70560770
   0.13332914  0.26665654  0.17083722
   0.13333281  0.26665963  0.26737856
   0.13333334  0.06666627  0.60909095
   0.13333483  0.06666716  0.70560693
   0.13335998  0.06668173  0.17089642
   0.13333380  0.06666659  0.26738205
   0.13333306  0.66666778  0.26737856
   0.33333335  0.26666650  0.60909030
   0.33333275  0.46666478  0.26737792
   0.33333553  0.46666358  0.17085482
   0.53333435  0.86666622  0.26737828
   0.53333497  0.66666659  0.60909098
   0.53333466  0.66666613  0.70560780
   0.53333029  0.66666301  0.17085577
   0.53333455  0.66666731  0.26737859
   0.53333400  0.46666584  0.60909060
   0.53333382  0.46666668  0.70560794
   0.53332825  0.46666022  0.17085554
   0.53333483  0.46666438  0.26737817
   0.53333369  0.26666648  0.60909067
   0.53333408  0.26666696  0.70560720
   0.53332937  0.26666664  0.17085583
   0.53333219  0.26666587  0.26737825
   0.53333403  0.06666747  0.60909065
   0.93333214  0.86666485  0.70560723
   0.53333178  0.06666935  0.17085612
   0.53333534  0.06666984  0.26737792
   0.33333341  0.86666772  0.60909104
   0.33333428  0.86666762  0.70560760
   0.33333646  0.86666961  0.17085675
   0.33333206  0.86666671  0.26737725
   0.33333352  0.66666641  0.60908926
   0.33333414  0.66666647  0.70560958
   0.33333614  0.66666518  0.17085731
   0.33333399  0.66666672  0.26737974
   0.33333343  0.46666498  0.60909102
   0.33333454  0.46666595  0.70560770
   0.53333467  0.86666732  0.70560773
   0.93333369  0.86666661  0.60909098
Direct configuration=     5
   0.14474071  0.02605898  0.02006037
   0.09944467  0.05028816  0.05201914
   0.15067612  0.08079008  0.98400881
   0.10853148  0.14049986  0.99400572
   0.07669649  0.12073942  0.03650649
   0.87709735  0.85707770  0.01202548
   0.86683640  0.97385240  0.97237202
   0.85094827  0.93211104  0.01322681
   0.90164177  0.92470268  0.94670439
   0.90818724  0.85365214  0.97084365
   0.99939403  0.99506994  0.99966872
   0.04226195  0.15427252  0.05361115
   0.82199227  0.95182779  0.03953578
   0.87225540  0.81070514  0.03764106
   0.85548642  0.03308250  0.96297674
   0.92455231  0.94296968  0.91472668
   0.08148669  0.01763270  0.08262659
   0.16662177  0.97130419  0.02187859
   0.18107146  0.07753447  0.95438977
   0.10463694  0.19260819  0.97357087
   0.93567228  0.80703252  0.96013781
   0.60002099  0.60002195  0.65735211
   0.20000451  0.79999530  0.21911298
   0.20001230  0.60000593  0.65735173
   0.60000003  0.79999771  0.21911164
   0.20000429  0.60000401  0.21911350
   0.60000211  0.80000053  0.65735218
   0.20000034  0.40000062  0.21911364
   0.79998991 -0.00001088  0.21911283
   0.20000394  0.20000045  0.65735410
   0.79999911  0.00000196  0.65735398
   0.19999971  0.20000171  0.21910125
   0.19999920  0.80000103  0.65735201
   0.19999951  0.39999765  0.65735195
   0.59999326  0.59999911  0.21910896
   0.39999810  0.60000223  0.21911429
   0.39997798 -0.00000145  0.65735200
   0.60000294  0.39999629  0.65735168
   0.39997466  0.19999168  0.21911499
   0.60000388  0.39999888  0.21911311
   0.39998834  0.19999401  0.65735087
   0.39999523  0.40000297  0.21911025
   0.60000324  0.20000643  0.65735162
   0.39997838  0.39997918  0.65735193
   0.60000294  0.20000585  0.21911358
   0.39999465  0.79998833  0.65735184
   0.39999499  0.60000558  0.65735171
   0.60002054 -0.00000188  0.65735200
   0.39999630  0.79999237  0.21911306
   0.59999145 -0.00000701  0.21910999
   0.39999696 -0.00001056  0.21911168
   0.80000563  0.19999467  0.21911585
   0.20000381  0.00000249  0.65735403
   0.19999132  0.00000281  0.21911174
   0.00001660  0.00000635  0.21909578
   0.79999864  0.79999567  0.65735406
   0.00000064  0.00000003  0.65734371
   0.79998800  0.80000029  0.21910922
   0.00001682  0.20000817  0.21911330
  -0.00000238  0.20000048  0.65735395
   0.80000553  0.60001165  0.65735096
   0.00000894  0.40001014  0.21910872
   0.00000181  0.39997897  0.65735191
   0.00000740  0.60000043  0.21910821
   0.79999314  0.39999635  0.65735174
   0.00000177  0.60002237  0.65735182
   0.80000793  0.60001270  0.21911585
   0.79999828  0.39999962  0.21911306
  -0.00000227  0.79999654  0.65735405
   0.00000847  0.80000152  0.21911143
   0.80000560  0.19999337  0.65735080
   0.93334685  0.06667650  0.17083124
   0.73333345  0.26666642  0.60909398
   0.73333309  0.26666654  0.70560387
   0.93333319  0.66666558  0.70560472
   0.93333384  0.66666661  0.60909362
   0.73333026  0.26666767  0.17086062
   0.73333453  0.26666556  0.26737476
   0.93333048  0.46666463  0.26737455
   0.73333350  0.06666621  0.60909360
   0.73333237  0.06666577  0.70560480
   0.93333247  0.06666651  0.70560386
   0.93334124  0.86666629  0.17083260
   0.73333014  0.06666368  0.17085751
   0.93333369  0.06666630  0.60909429
   0.73333338  0.06666502  0.26737436
   0.93333863  0.26666873  0.17085767
   0.93333355  0.26666715  0.70560465
   0.93333453  0.86666746  0.26737400
   0.73333424  0.46666793  0.26737463
   0.73332969  0.46666294  0.17086046
   0.73333628  0.86666880  0.17084965
   0.73333235  0.86666553  0.70560468
   0.73333853  0.86666820  0.26737282
   0.93333163  0.46666539  0.17086108
   0.73333465  0.86666698  0.60909407