 171 171   0   0
  0.4145774E+02  0.1590000E-08  0.1590000E-08  0.3238000E-08  0.5000000E-15
  1.000000000000000E-004
  CAR 
 basalPlane                              
      2.25625079    -19.10842355  301      0.16836281      1.00000000
    -19.108  0.0000E+00  0.0000E+00
    -19.037  0.0000E+00  0.0000E+00
    -18.966  0.0000E+00  0.0000E+00
    -18.895  0.0000E+00  0.0000E+00
    -18.824  0.0000E+00  0.0000E+00
    -18.752  0.0000E+00  0.0000E+00
    -18.681  0.7795E-18  0.5551E-19
    -18.610  0.1853E-14  0.1320E-15
    -18.539  0.1634E-11  0.1165E-12
    -18.467  0.5343E-09  0.3817E-10
    -18.396  0.6527E-07  0.4687E-08
    -18.325  0.3005E-05  0.2187E-06
    -18.254  0.5273E-04  0.3974E-05
    -18.183  0.3571E-03  0.2940E-04
    -18.111  0.9441E-03  0.9664E-04
    -18.040  0.9817E-03  0.1665E-03
    -17.969  0.4034E-03  0.1953E-03
    -17.898  0.1020E-03  0.2025E-03
    -17.827  0.2952E-03  0.2236E-03
    -17.755  0.8742E-03  0.2858E-03
    -17.684  0.1031E-02  0.3593E-03
    -17.613  0.4788E-03  0.3934E-03
    -17.542  0.8698E-04  0.3996E-03
    -17.470  0.6115E-05  0.4000E-03
    -17.399  0.1643E-06  0.4000E-03
    -17.328  0.1667E-08  0.4000E-03
    -17.257  0.6330E-11  0.4000E-03
    -17.186  0.8929E-14  0.4000E-03
    -17.114  0.4677E-17  0.4000E-03
    -17.043  0.0000E+00  0.4000E-03
    -16.972  0.0000E+00  0.4000E-03
    -16.901  0.0000E+00  0.4000E-03
    -16.830  0.0000E+00  0.4000E-03
    -16.758  0.0000E+00  0.4000E-03
    -16.687  0.0000E+00  0.4000E-03
    -16.616  0.0000E+00  0.4000E-03
    -16.545  0.0000E+00  0.4000E-03
    -16.473  0.0000E+00  0.4000E-03
    -16.402  0.0000E+00  0.4000E-03
    -16.331  0.0000E+00  0.4000E-03
    -16.260  0.0000E+00  0.4000E-03
    -16.189  0.0000E+00  0.4000E-03
    -16.117  0.0000E+00  0.4000E-03
    -16.046  0.3517E-15  0.4000E-03
    -15.975  0.4247E-12  0.4000E-03
    -15.904  0.1900E-09  0.4000E-03
    -15.833  0.3167E-07  0.4000E-03
    -15.761  0.1984E-05  0.4001E-03
    -15.690  0.4719E-04  0.4035E-03
    -15.619  0.4315E-03  0.4342E-03
    -15.548  0.1535E-02  0.5436E-03
    -15.476  0.2145E-02  0.6963E-03
    -15.405  0.1180E-02  0.7803E-03
    -15.334  0.2543E-03  0.7984E-03
    -15.263  0.2346E-04  0.8001E-03
    -15.192  0.8029E-04  0.8058E-03
    -15.120  0.1103E-02  0.8844E-03
    -15.049  0.5923E-02  0.1306E-02
    -14.978  0.1246E-01  0.2193E-02
    -14.907  0.1032E-01  0.2928E-02
    -14.835  0.3364E-02  0.3168E-02
    -14.764  0.4278E-03  0.3198E-02
    -14.693  0.2110E-04  0.3200E-02
    -14.622  0.6099E-05  0.3200E-02
    -14.551  0.1016E-03  0.3208E-02
    -14.479  0.6985E-03  0.3257E-02
    -14.408  0.1887E-02  0.3392E-02
    -14.337  0.2335E-02  0.3558E-02
    -14.266  0.4460E-02  0.3876E-02
    -14.195  0.1508E-01  0.4950E-02
    -14.123  0.2531E-01  0.6752E-02
    -14.052  0.1875E-01  0.8087E-02
    -13.981  0.1118E-01  0.8883E-02
    -13.910  0.1327E-01  0.9828E-02
    -13.838  0.1166E-01  0.1066E-01
    -13.767  0.1077E-01  0.1143E-01
    -13.696  0.1792E-01  0.1270E-01
    -13.625  0.2564E-01  0.1453E-01
    -13.554  0.2966E-01  0.1664E-01
    -13.482  0.2536E-01  0.1845E-01
    -13.411  0.1913E-01  0.1981E-01
    -13.340  0.1340E-01  0.2076E-01
    -13.269  0.5232E-02  0.2113E-01
    -13.198  0.8607E-03  0.2120E-01
    -13.126  0.5551E-04  0.2120E-01
    -13.055  0.1371E-05  0.2120E-01
    -12.984  0.1280E-07  0.2120E-01
    -12.913  0.4473E-10  0.2120E-01
    -12.841  0.5809E-13  0.2120E-01
    -12.770  0.2744E-16  0.2120E-01
    -12.699  0.0000E+00  0.2120E-01
    -12.628  0.0000E+00  0.2120E-01
    -12.557  0.0000E+00  0.2120E-01
    -12.485  0.0000E+00  0.2120E-01
    -12.414  0.0000E+00  0.2120E-01
    -12.343  0.0000E+00  0.2120E-01
    -12.272  0.0000E+00  0.2120E-01
    -12.201  0.0000E+00  0.2120E-01
    -12.129  0.0000E+00  0.2120E-01
    -12.058  0.0000E+00  0.2120E-01
    -11.987  0.0000E+00  0.2120E-01
    -11.916  0.0000E+00  0.2120E-01
    -11.844  0.0000E+00  0.2120E-01
    -11.773  0.0000E+00  0.2120E-01
    -11.702  0.0000E+00  0.2120E-01
    -11.631  0.0000E+00  0.2120E-01
    -11.560  0.0000E+00  0.2120E-01
    -11.488  0.0000E+00  0.2120E-01
    -11.417  0.0000E+00  0.2120E-01
    -11.346  0.0000E+00  0.2120E-01
    -11.275  0.0000E+00  0.2120E-01
    -11.203  0.0000E+00  0.2120E-01
    -11.132  0.0000E+00  0.2120E-01
    -11.061  0.0000E+00  0.2120E-01
    -10.990  0.0000E+00  0.2120E-01
    -10.919  0.0000E+00  0.2120E-01
    -10.847  0.0000E+00  0.2120E-01
    -10.776  0.0000E+00  0.2120E-01
    -10.705  0.0000E+00  0.2120E-01
    -10.634  0.0000E+00  0.2120E-01
    -10.563  0.0000E+00  0.2120E-01
    -10.491  0.0000E+00  0.2120E-01
    -10.420  0.0000E+00  0.2120E-01
    -10.349  0.0000E+00  0.2120E-01
    -10.278  0.0000E+00  0.2120E-01
    -10.206  0.0000E+00  0.2120E-01
    -10.135  0.0000E+00  0.2120E-01
    -10.064  0.0000E+00  0.2120E-01
     -9.993  0.1559E-18  0.2120E-01
     -9.922  0.2981E-15  0.2120E-01
     -9.850  0.3386E-12  0.2120E-01
     -9.779  0.1433E-09  0.2120E-01
     -9.708  0.2283E-07  0.2120E-01
     -9.637  0.1391E-05  0.2120E-01
     -9.566  0.3309E-04  0.2120E-01
     -9.494  0.3165E-03  0.2122E-01
     -9.423  0.1269E-02  0.2132E-01
     -9.352  0.2353E-02  0.2148E-01
     -9.281  0.2715E-02  0.2168E-01
     -9.209  0.2770E-02  0.2187E-01
     -9.138  0.2299E-02  0.2204E-01
     -9.067  0.1501E-02  0.2214E-01
     -8.996  0.7124E-03  0.2219E-01
     -8.925  0.5461E-03  0.2223E-01
     -8.853  0.1002E-02  0.2231E-01
     -8.782  0.9336E-03  0.2237E-01
     -8.711  0.3457E-03  0.2240E-01
     -8.640  0.4997E-04  0.2240E-01
     -8.569  0.2787E-05  0.2240E-01
     -8.497  0.5924E-07  0.2240E-01
     -8.426  0.4744E-09  0.2240E-01
     -8.355  0.1419E-11  0.2240E-01
     -8.284  0.1574E-14  0.2240E-01
     -8.212  0.6236E-18  0.2240E-01
     -8.141  0.0000E+00  0.2240E-01
     -8.070  0.0000E+00  0.2240E-01
     -7.999  0.0000E+00  0.2240E-01
     -7.928  0.0000E+00  0.2240E-01
     -7.856  0.0000E+00  0.2240E-01
     -7.785  0.0000E+00  0.2240E-01
     -7.714  0.0000E+00  0.2240E-01
     -7.643  0.3118E-18  0.2240E-01
     -7.571  0.8055E-15  0.2240E-01
     -7.500  0.8735E-12  0.2240E-01
     -7.429  0.3518E-09  0.2240E-01
     -7.358  0.5325E-07  0.2240E-01
     -7.287  0.3104E-05  0.2240E-01
     -7.215  0.7332E-04  0.2241E-01
     -7.144  0.7734E-03  0.2246E-01
     -7.073  0.4079E-02  0.2275E-01
     -7.002  0.1101E-01  0.2354E-01
     -6.931  0.1398E-01  0.2453E-01
     -6.859  0.7769E-02  0.2508E-01
     -6.788  0.3740E-02  0.2535E-01
     -6.717  0.1004E-01  0.2607E-01
     -6.646  0.2193E-01  0.2763E-01
     -6.574  0.2763E-01  0.2959E-01
     -6.503  0.2814E-01  0.3160E-01
     -6.432  0.2558E-01  0.3342E-01
     -6.361  0.1472E-01  0.3447E-01
     -6.290  0.4190E-02  0.3477E-01
     -6.218  0.1222E-02  0.3485E-01
     -6.147  0.4228E-02  0.3516E-01
     -6.076  0.1129E-01  0.3596E-01
     -6.005  0.1304E-01  0.3689E-01
     -5.934  0.6702E-02  0.3737E-01
     -5.862  0.2930E-02  0.3757E-01
     -5.791  0.2577E-02  0.3776E-01
     -5.720  0.4641E-02  0.3809E-01
     -5.649  0.1183E-01  0.3893E-01
     -5.577  0.1582E-01  0.4006E-01
     -5.506  0.1469E-01  0.4110E-01
     -5.435  0.2048E-01  0.4256E-01
     -5.364  0.2346E-01  0.4423E-01
     -5.293  0.1659E-01  0.4541E-01
     -5.221  0.1488E-01  0.4647E-01
     -5.150  0.1651E-01  0.4765E-01
     -5.079  0.1241E-01  0.4853E-01
     -5.008  0.1260E-01  0.4943E-01
     -4.937  0.1575E-01  0.5055E-01
     -4.865  0.1470E-01  0.5160E-01
     -4.794  0.1520E-01  0.5268E-01
     -4.723  0.1526E-01  0.5377E-01
     -4.652  0.2077E-01  0.5525E-01
     -4.580  0.2621E-01  0.5711E-01
     -4.509  0.1966E-01  0.5851E-01
     -4.438  0.1542E-01  0.5961E-01
     -4.367  0.1215E-01  0.6048E-01
     -4.296  0.7771E-02  0.6103E-01
     -4.224  0.1107E-01  0.6182E-01
     -4.153  0.1249E-01  0.6271E-01
     -4.082  0.6393E-02  0.6316E-01
     -4.011  0.3603E-02  0.6342E-01
     -3.940  0.4407E-02  0.6373E-01
     -3.868  0.3186E-02  0.6396E-01
     -3.797  0.3549E-02  0.6421E-01
     -3.726  0.1146E-01  0.6503E-01
     -3.655  0.2277E-01  0.6665E-01
     -3.583  0.2801E-01  0.6865E-01
     -3.512  0.2695E-01  0.7057E-01
     -3.441  0.2841E-01  0.7259E-01
     -3.370  0.3049E-01  0.7476E-01
     -3.299  0.1805E-01  0.7605E-01
     -3.227  0.4514E-02  0.7637E-01
     -3.156  0.4516E-03  0.7640E-01
     -3.085  0.6639E-04  0.7640E-01
     -3.014  0.6793E-03  0.7645E-01
     -2.942  0.4235E-02  0.7675E-01
     -2.871  0.1285E-01  0.7767E-01
     -2.800  0.2112E-01  0.7917E-01
     -2.729  0.2217E-01  0.8075E-01
     -2.658  0.1636E-01  0.8192E-01
     -2.586  0.1155E-01  0.8274E-01
     -2.515  0.1496E-01  0.8380E-01
     -2.444  0.1865E-01  0.8513E-01
     -2.373  0.1895E-01  0.8648E-01
     -2.302  0.1790E-01  0.8776E-01
     -2.230  0.1638E-01  0.8892E-01
     -2.159  0.1278E-01  0.8983E-01
     -2.088  0.1338E-01  0.9079E-01
     -2.017  0.1391E-01  0.9178E-01
     -1.945  0.7216E-02  0.9229E-01
     -1.874  0.2843E-02  0.9249E-01
     -1.803  0.6900E-02  0.9298E-01
     -1.732  0.1387E-01  0.9397E-01
     -1.661  0.1188E-01  0.9482E-01
     -1.589  0.4498E-02  0.9514E-01
     -1.518  0.7929E-03  0.9520E-01
     -1.447  0.6568E-04  0.9520E-01
     -1.376  0.2422E-05  0.9520E-01
     -1.305  0.3694E-07  0.9520E-01
     -1.233  0.2205E-09  0.9520E-01
     -1.162  0.4993E-12  0.9520E-01
     -1.091  0.4206E-15  0.9520E-01
     -1.020  0.0000E+00  0.9520E-01
     -0.948  0.0000E+00  0.9520E-01
     -0.877  0.0000E+00  0.9520E-01
     -0.806  0.0000E+00  0.9520E-01
     -0.735  0.0000E+00  0.9520E-01
     -0.664  0.0000E+00  0.9520E-01
     -0.592  0.3274E-17  0.9520E-01
     -0.521  0.6554E-14  0.9520E-01
     -0.450  0.4852E-11  0.9520E-01
     -0.379  0.1334E-08  0.9520E-01
     -0.308  0.1372E-06  0.9520E-01
     -0.236  0.5328E-05  0.9520E-01
     -0.165  0.7903E-04  0.9521E-01
     -0.094  0.4541E-03  0.9524E-01
     -0.023  0.1038E-02  0.9531E-01
      0.049  0.1138E-02  0.9539E-01
      0.120  0.1412E-02  0.9549E-01
      0.191  0.2325E-02  0.9566E-01
      0.262  0.3884E-02  0.9594E-01
      0.333  0.9462E-02  0.9661E-01
      0.405  0.1624E-01  0.9777E-01
      0.476  0.2187E-01  0.9932E-01
      0.547  0.2977E-01  0.1014E+00
      0.618  0.2890E-01  0.1035E+00
      0.690  0.1849E-01  0.1048E+00
      0.761  0.8096E-02  0.1054E+00
      0.832  0.9886E-02  0.1061E+00
      0.903  0.2710E-01  0.1080E+00
      0.974  0.3852E-01  0.1108E+00
      1.046  0.3059E-01  0.1130E+00
      1.117  0.1986E-01  0.1144E+00
      1.188  0.1358E-01  0.1153E+00
      1.259  0.1207E-01  0.1162E+00
      1.330  0.8316E-02  0.1168E+00
      1.402  0.2652E-02  0.1170E+00
      1.473  0.3464E-03  0.1170E+00
      1.544  0.1796E-04  0.1170E+00
      1.615  0.3618E-06  0.1170E+00
      1.687  0.2786E-08  0.1170E+00
      1.758  0.8090E-11  0.1170E+00
      1.829  0.8774E-14  0.1170E+00
      1.900  0.3742E-17  0.1170E+00
      1.971  0.0000E+00  0.1170E+00
      2.043  0.0000E+00  0.1170E+00
      2.114  0.0000E+00  0.1170E+00
      2.185  0.0000E+00  0.1170E+00
      2.256  0.0000E+00  0.1170E+00
