       N       E                     dE             d eps       ncg     rms          rms(c)
DAV:   1     0.769102972006E+04    0.76910E+04   -0.36366E+05  1196   0.112E+03
DAV:   2    -0.246042713100E+03   -0.79371E+04   -0.76860E+04  1586   0.268E+02
DAV:   3    -0.126218263761E+04   -0.10161E+04   -0.10014E+04  1391   0.102E+02
DAV:   4    -0.132096533219E+04   -0.58783E+02   -0.58436E+02  1755   0.298E+01
DAV:   5    -0.132307278273E+04   -0.21075E+01   -0.20957E+01  1729   0.501E+00    0.170E+02
DAV:   6    -0.127591040368E+04    0.47162E+02   -0.93468E+02  1599   0.274E+01    0.926E+01
DAV:   7    -0.129660999535E+04   -0.20700E+02   -0.11781E+03  1781   0.486E+01    0.551E+01
DAV:   8    -0.123197923724E+04    0.64631E+02   -0.62670E+01  1456   0.769E+00    0.313E+01
DAV:   9    -0.123849434696E+04   -0.65151E+01   -0.19005E+02  1768   0.105E+01    0.373E+01
DAV:  10    -0.122182011935E+04    0.16674E+02   -0.18655E+02  1911   0.211E+01    0.216E+01
DAV:  11    -0.122433216907E+04   -0.25120E+01   -0.31044E+01  1729   0.314E+00    0.155E+01
DAV:  12    -0.122420745777E+04    0.12471E+00   -0.16095E+00  1599   0.776E-01    0.154E+01
DAV:  13    -0.122412704834E+04    0.80409E-01   -0.61351E-01  1716   0.485E-01    0.175E+01
DAV:  14    -0.122395476027E+04    0.17229E+00   -0.22248E+01  1716   0.269E+00    0.166E+01
DAV:  15    -0.122702255452E+04   -0.30678E+01   -0.15876E+01  1768   0.188E+00    0.240E+01
DAV:  16    -0.122488675310E+04    0.21358E+01   -0.23969E+00  1781   0.235E+00    0.157E+01
DAV:  17    -0.122508207379E+04   -0.19532E+00   -0.13811E+00  1560   0.788E-01    0.142E+01
DAV:  18    -0.122566955375E+04   -0.58748E+00   -0.21952E+00  1612   0.528E-01    0.144E+01
DAV:  19    -0.122521233903E+04    0.45721E+00   -0.70496E+00  1742   0.133E+00    0.113E+01
DAV:  20    -0.122453613564E+04    0.67620E+00   -0.18740E-01  1443   0.480E-01    0.101E+01
DAV:  21    -0.122416341148E+04    0.37272E+00   -0.22455E+00  1703   0.615E-01    0.100E+01
DAV:  22    -0.122373041804E+04    0.43299E+00   -0.10984E-01  1573   0.231E-01    0.847E+00
DAV:  23    -0.122363321587E+04    0.97202E-01   -0.54070E-02  1664   0.167E-01    0.770E+00
DAV:  24    -0.122358369514E+04    0.49521E-01   -0.22307E-02  1495   0.112E-01    0.696E+00
DAV:  25    -0.122339615253E+04    0.18754E+00   -0.34281E-02  1482   0.194E-01    0.728E+00
DAV:  26    -0.122328681333E+04    0.10934E+00   -0.49785E-02  1638   0.150E-01    0.625E+00
DAV:  27    -0.122328773172E+04   -0.91840E-03   -0.57340E-02  1612   0.788E-02    0.654E+00
DAV:  28    -0.122326690505E+04    0.20827E-01   -0.22765E-02  1443   0.670E-02    0.605E+00
DAV:  29    -0.122326610129E+04    0.80376E-03   -0.79709E-02  1456   0.697E-02    0.634E+00
DAV:  30    -0.122319785258E+04    0.68249E-01   -0.74142E-02  1599   0.120E-01    0.559E+00
DAV:  31    -0.122322260489E+04   -0.24752E-01   -0.83537E-02  1560   0.768E-02    0.603E+00
DAV:  32    -0.122304070540E+04    0.18190E+00   -0.58151E-01  1690   0.263E-01    0.451E+00
DAV:  33    -0.122299525583E+04    0.45450E-01   -0.40890E-01  1703   0.168E-01    0.445E+00
DAV:  34    -0.122288715752E+04    0.10810E+00   -0.41363E-01  1664   0.198E-01    0.278E+00
DAV:  35    -0.122288116860E+04    0.59889E-02   -0.27206E-01  1625   0.100E-01    0.312E+00
DAV:  36    -0.122283683727E+04    0.44331E-01   -0.17385E-01  1495   0.123E-01    0.188E+00
DAV:  37    -0.122283113355E+04    0.57037E-02   -0.13483E-01  1443   0.758E-02    0.281E+00
DAV:  38    -0.122279654979E+04    0.34584E-01   -0.11348E-01  1521   0.105E-01    0.182E+00
DAV:  39    -0.122278617410E+04    0.10376E-01   -0.11189E-01  1508   0.120E-01    0.239E+00
DAV:  40    -0.122276323263E+04    0.22941E-01   -0.63778E-02  1482   0.865E-02    0.162E+00
DAV:  41    -0.122276256014E+04    0.67250E-03   -0.63701E-02  1534   0.949E-02    0.214E+00
DAV:  42    -0.122275330033E+04    0.92598E-02   -0.50117E-02  1495   0.667E-02    0.160E+00
DAV:  43    -0.122275734034E+04   -0.40400E-02   -0.38203E-02  1222   0.369E-02    0.187E+00
DAV:  44    -0.122275315840E+04    0.41819E-02   -0.21566E-02  1014   0.250E-02    0.157E+00
DAV:  45    -0.122275765373E+04   -0.44953E-02   -0.19618E-02  1053   0.290E-02    0.161E+00
DAV:  46    -0.122275831297E+04   -0.65924E-03   -0.11687E-02  1339   0.456E-02    0.131E+00
DAV:  47    -0.122276544687E+04   -0.71339E-02   -0.15287E-02  1482   0.560E-02    0.106E+00
DAV:  48    -0.122276702047E+04   -0.15736E-02   -0.54688E-03  1378   0.375E-02    0.885E-01
DAV:  49    -0.122276888528E+04   -0.18648E-02   -0.40986E-03  1209   0.312E-02    0.726E-01
DAV:  50    -0.122276926348E+04   -0.37820E-03   -0.20952E-03  1040   0.219E-02    0.598E-01
DAV:  51    -0.122276809325E+04    0.11702E-02   -0.10452E-03   988   0.222E-02    0.596E-01
DAV:  52    -0.122276820789E+04   -0.11464E-03   -0.50906E-04   871   0.964E-03    0.622E-01
DAV:  53    -0.122276855113E+04   -0.34324E-03   -0.45107E-04   728   0.104E-02    0.589E-01
DAV:  54    -0.122276984069E+04   -0.12896E-02   -0.46413E-04   975   0.136E-02    0.680E-01
DAV:  55    -0.122277061849E+04   -0.77780E-03   -0.50205E-04   949   0.146E-02    0.631E-01
DAV:  56    -0.122277287374E+04   -0.22552E-02   -0.26345E-03  1144   0.339E-02    0.822E-01
DAV:  57    -0.122277253276E+04    0.34097E-03   -0.34568E-04   962   0.151E-02    0.697E-01
DAV:  58    -0.122277211999E+04    0.41277E-03   -0.16472E-04   676   0.726E-03    0.725E-01
DAV:  59    -0.122277126255E+04    0.85743E-03   -0.75287E-05   728   0.606E-03    0.620E-01
DAV:  60    -0.122277112348E+04    0.13908E-03   -0.11398E-04   715   0.574E-03    0.617E-01
DAV:  61    -0.122277144114E+04   -0.31766E-03   -0.79160E-05   702   0.762E-03    0.559E-01
DAV:  62    -0.122277154024E+04   -0.99097E-04   -0.28123E-05   663   0.406E-03
   1 F= -.12532640E+04 E0= -.12531995E+04  d E =-.125326E+04
       N       E                     dE             d eps       ncg     rms          rms(c)
DAV:   1    -0.122277181019E+04   -0.36905E-03   -0.80170E-02  1196   0.197E-01    0.577E-01
DAV:   2    -0.122277574542E+04   -0.39352E-02   -0.15338E-02  1326   0.556E-02    0.667E-01
DAV:   3    -0.122278672157E+04   -0.10976E-01   -0.27828E-02  1482   0.104E-01    0.200E+00
DAV:   4    -0.122277481189E+04    0.11910E-01   -0.87808E-03  1339   0.686E-02    0.283E-01
DAV:   5    -0.122277330925E+04    0.15026E-02   -0.21197E-03  1014   0.222E-02    0.336E-01
DAV:   6    -0.122277316940E+04    0.13985E-03   -0.16084E-03   923   0.120E-02    0.171E-01
DAV:   7    -0.122277322457E+04   -0.55168E-04   -0.20284E-03   702   0.848E-03    0.138E-01
DAV:   8    -0.122277318118E+04    0.43385E-04   -0.16690E-03   793   0.933E-03    0.100E-01
DAV:   9    -0.122277317759E+04    0.35994E-05   -0.13188E-03   676   0.739E-03    0.780E-02
DAV:  10    -0.122277316593E+04    0.11657E-04   -0.82742E-04   676   0.677E-03
   2 F= -.12532654E+04 E0= -.12532011E+04  d E =-.147086E-02
       N       E                     dE             d eps       ncg     rms          rms(c)
DAV:   1    -0.122277345495E+04   -0.27736E-03   -0.31337E-02  1170   0.122E-01    0.896E-02
DAV:   2    -0.122277381971E+04   -0.36476E-03   -0.41298E-03  1014   0.247E-02    0.256E-01
DAV:   3    -0.122277379006E+04    0.29645E-04   -0.50367E-03   975   0.226E-02    0.213E-01
DAV:   4    -0.122277356170E+04    0.22837E-03   -0.23150E-03   910   0.181E-02    0.110E-01
DAV:   5    -0.122277350930E+04    0.52393E-04   -0.11583E-03   715   0.603E-03    0.812E-02
DAV:   6    -0.122277348791E+04    0.21391E-04   -0.73635E-04   741   0.724E-03
   3 F= -.12532659E+04 E0= -.12532019E+04  d E =-.188842E-02
       N       E                     dE             d eps       ncg     rms          rms(c)
DAV:   1    -0.122277348828E+04    0.21017E-04   -0.10995E-03   884   0.170E-02    0.641E-02
DAV:   2    -0.122277396154E+04   -0.47325E-03   -0.32986E-03   910   0.180E-02    0.297E-01
DAV:   3    -0.122277377058E+04    0.19096E-03   -0.43506E-03   936   0.270E-02    0.245E-01
DAV:   4    -0.122277354689E+04    0.22369E-03   -0.11878E-03   806   0.129E-02    0.964E-02
DAV:   5    -0.122277348324E+04    0.63653E-04   -0.45838E-04   728   0.476E-03
   4 F= -.12532659E+04 E0= -.12532015E+04  d E =-.189648E-02
       N       E                     dE             d eps       ncg     rms          rms(c)
DAV:   1    -0.122277346761E+04    0.79284E-04   -0.43268E-04   845   0.131E-02    0.318E-02
DAV:   2    -0.122277352015E+04   -0.52549E-04   -0.57831E-04   650   0.502E-03
   5 F= -.12532659E+04 E0= -.12532018E+04  d E =-.194276E-02
       N       E                     dE             d eps       ncg     rms          rms(c)
DAV:   1    -0.122277360158E+04   -0.13397E-03   -0.25397E-02  1196   0.128E-01    0.722E-02
DAV:   2    -0.122277508383E+04   -0.14823E-02   -0.41358E-03  1313   0.462E-02    0.434E-01
DAV:   3    -0.122277369961E+04    0.13842E-02   -0.33641E-03  1131   0.382E-02    0.991E-02
DAV:   4    -0.122277366444E+04    0.35171E-04   -0.28495E-04   728   0.791E-03
   6 F= -.12532660E+04 E0= -.12532025E+04  d E =-.454430E-04
       N       E                     dE             d eps       ncg     rms          rms(c)
DAV:   1    -0.122277363123E+04    0.68379E-04   -0.22249E-03  1157   0.352E-02    0.723E-02
DAV:   2    -0.122277550579E+04   -0.18746E-02   -0.39089E-03  1118   0.376E-02    0.679E-01
DAV:   3    -0.122277396061E+04    0.15452E-02   -0.39456E-03  1079   0.393E-02    0.192E-01
DAV:   4    -0.122277366179E+04    0.29882E-03   -0.44142E-04   741   0.888E-03    0.763E-02
DAV:   5    -0.122277362174E+04    0.40047E-04   -0.30768E-04   689   0.536E-03
   7 F= -.12532659E+04 E0= -.12532021E+04  d E =-.291467E-04
       N       E                     dE             d eps       ncg     rms          rms(c)
DAV:   1    -0.122277373100E+04   -0.69206E-04   -0.19721E-02  1196   0.110E-01    0.550E-02
DAV:   2    -0.122277443415E+04   -0.70316E-03   -0.18507E-03  1131   0.353E-02    0.329E-01
DAV:   3    -0.122277383408E+04    0.60007E-03   -0.14772E-03  1001   0.257E-02    0.984E-02
DAV:   4    -0.122277382048E+04    0.13600E-04   -0.11221E-04   689   0.711E-03
   8 F= -.12532660E+04 E0= -.12532023E+04  d E =-.840966E-04
       N       E                     dE             d eps       ncg     rms          rms(c)
DAV:   1    -0.122277375946E+04    0.74619E-04   -0.98253E-04  1144   0.245E-02    0.541E-02
DAV:   2    -0.122277503136E+04   -0.12719E-02   -0.20821E-03  1066   0.315E-02    0.544E-01
DAV:   3    -0.122277392158E+04    0.11098E-02   -0.19644E-03  1014   0.315E-02    0.139E-01
DAV:   4    -0.122277374934E+04    0.17224E-03   -0.10125E-04   689   0.623E-03    0.201E-02
DAV:   5    -0.122277375536E+04   -0.60159E-05   -0.43745E-05   676   0.394E-03
   9 F= -.12532660E+04 E0= -.12532021E+04  d E =-.430685E-04
       N       E                     dE             d eps       ncg     rms          rms(c)
DAV:   1    -0.122277389847E+04   -0.14913E-03   -0.98405E-03  1157   0.742E-02    0.321E-02
DAV:   2    -0.122277393523E+04   -0.36758E-04   -0.35031E-04   923   0.158E-02
  10 F= -.12532660E+04 E0= -.12532025E+04  d E =-.714326E-04
       N       E                     dE             d eps       ncg     rms          rms(c)
DAV:   1    -0.122277397925E+04   -0.80782E-04   -0.62209E-04   936   0.187E-02    0.901E-02
DAV:   2    -0.122277793528E+04   -0.39560E-02   -0.97653E-03  1287   0.649E-02    0.652E-01
DAV:   3    -0.122277411566E+04    0.38196E-02   -0.72910E-03  1196   0.565E-02    0.114E-01
DAV:   4    -0.122277403856E+04    0.77101E-04   -0.27104E-04   819   0.100E-02
  11 F= -.12532661E+04 E0= -.12532033E+04  d E =-.153943E-03
       N       E                     dE             d eps       ncg     rms          rms(c)
DAV:   1    -0.122277400382E+04    0.11184E-03   -0.16175E-03  1157   0.301E-02    0.514E-02
DAV:   2    -0.122277418523E+04   -0.18142E-03   -0.41134E-04   767   0.830E-03    0.196E-01
DAV:   3    -0.122277411919E+04    0.66045E-04   -0.64408E-04   793   0.115E-02
  12 F= -.12532662E+04 E0= -.12531997E+04  d E =-.192958E-03
       N       E                     dE             d eps       ncg     rms          rms(c)
DAV:   1    -0.122277413874E+04    0.46497E-04   -0.26430E-03  1157   0.368E-02    0.104E-01
DAV:   2    -0.122277577443E+04   -0.16357E-02   -0.25811E-03  1040   0.270E-02    0.641E-01
DAV:   3    -0.122277525808E+04    0.51636E-03   -0.55013E-03  1092   0.455E-02    0.356E-01
DAV:   4    -0.122277432398E+04    0.93409E-03   -0.10444E-03   871   0.180E-02    0.169E-01
DAV:   5    -0.122277413498E+04    0.18901E-03   -0.12747E-04   728   0.749E-03    0.751E-02
DAV:   6    -0.122277410202E+04    0.32955E-04   -0.10241E-04   676   0.589E-03
  13 F= -.12532661E+04 E0= -.12532012E+04  d E =0.678817E-04
       N       E                     dE             d eps       ncg     rms          rms(c)
DAV:   1    -0.122277417194E+04   -0.36961E-04   -0.59702E-03  1157   0.557E-02    0.313E-02
DAV:   2    -0.122277420849E+04   -0.36547E-04   -0.44383E-04   884   0.119E-02
  14 F= -.12532661E+04 E0= -.12532022E+04  d E =0.427194E-04
       N       E                     dE             d eps       ncg     rms          rms(c)
DAV:   1    -0.122277422217E+04   -0.50234E-04   -0.95249E-04   910   0.195E-02    0.492E-02
DAV:   2    -0.122277524798E+04   -0.10258E-02   -0.25893E-03  1001   0.317E-02    0.380E-01
DAV:   3    -0.122277427285E+04    0.97513E-03   -0.22312E-03   975   0.295E-02    0.800E-02
DAV:   4    -0.122277424140E+04    0.31449E-04   -0.22680E-04   728   0.569E-03
  15 F= -.12532661E+04 E0= -.12532022E+04  d E =-.226777E-04
       N       E                     dE             d eps       ncg     rms          rms(c)
DAV:   1    -0.122277425351E+04    0.19340E-04   -0.15717E-03  1079   0.281E-02    0.431E-02
DAV:   2    -0.122277444187E+04   -0.18836E-03   -0.45915E-04   871   0.127E-02    0.184E-01
DAV:   3    -0.122277436596E+04    0.75906E-04   -0.87321E-04   871   0.186E-02
  16 F= -.12532663E+04 E0= -.12532040E+04  d E =-.131321E-03
