 vasp.5.4.4.18Apr17-6-g9f103f2a35 (build Oct 28 2020 13:00:36) gamma-only       
  
 executed on             LinuxIFC date 2020.12.03  21:33:07
 running on   52 total cores
 distrk:  each k-point on   52 cores,    1 groups
 distr:  one band on NCORES_PER_BAND=   4 cores,   13 groups


--------------------------------------------------------------------------------------------------------


 INCAR:
 POTCAR:    PAW_PBE C 08Apr2002                   
 POTCAR:    PAW_PBE Cr 06Sep2000                  
 POTCAR:    PAW_PBE H 15Jun2001                   
 POTCAR:    PAW_PBE Mo 08Apr2002                  
 POTCAR:    PAW_PBE S 06Sep2000                   
 POTCAR:    PAW_PBE C 08Apr2002                   
   VRHFIN =C: s2p2                                                              
   LEXCH  = PE                                                                  
   EATOM  =   147.1560 eV,   10.8157 Ry                                         
                                                                                
   TITEL  = PAW_PBE C 08Apr2002                                                 
   LULTRA =        F    use ultrasoft PP ?                                      
   IUNSCR =        1    unscreen: 0-lin 1-nonlin 2-no                           
   RPACOR =    1.200    partial core radius                                     
   POMASS =   12.011; ZVAL   =    4.000    mass and valenz                      
   RCORE  =    1.500    outmost cutoff radius                                   
   RWIGS  =    1.630; RWIGS  =    0.863    wigner-seitz radius (au A)           
   ENMAX  =  400.000; ENMIN  =  300.000 eV                                      
   ICORE  =        2    local potential                                         
   LCOR   =        T    correct aug charges                                     
   LPAW   =        T    paw PP                                                  
   EAUG   =  644.873                                                            
   DEXC   =    0.000                                                            
   RMAX   =    1.529    core radius for proj-oper                               
   RAUG   =    1.300    factor for augmentation sphere                          
   RDEP   =    1.501    radius for radial grids                                 
   RDEPT  =    1.300    core radius for aug-charge                              
                                                                                
   Atomic configuration                                                         
    4 entries                                                                   
     n  l   j            E        occ.                                          
     1  0  0.50      -273.3789   2.0000                                         
     2  0  0.50       -13.7508   2.0000                                         
     2  1  0.50        -5.2854   2.0000                                         
     3  2  1.50        -5.4423   0.0000                                         
   Description                                                                  
     l       E           TYP  RCUT    TYP  RCUT                                 
     0    -13.7508458     23  1.200                                             
     0     -8.2022199     23  1.200                                             
     1     -5.2854383     23  1.500                                             
     1     34.0145650     23  1.500                                             
     2     -5.4423304      7  1.500                                             
  local pseudopotential read in
  partial core-charges read in
  partial kinetic energy density read in
  atomic valenz-charges read in
  non local Contribution for L=           0  read in
    real space projection operators read in
  non local Contribution for L=           0  read in
    real space projection operators read in
  non local Contribution for L=           1  read in
    real space projection operators read in
  non local Contribution for L=           1  read in
    real space projection operators read in
    PAW grid and wavefunctions read in
 
   number of l-projection  operators is LMAX  =           4
   number of lm-projection operators is LMMAX =           8
 
 POTCAR:    PAW_PBE Cr 06Sep2000                  
   VRHFIN =Cr : d5 s1                                                           
   LEXCH  = PE                                                                  
   EATOM  =   276.8859 eV,   20.3505 Ry                                         
                                                                                
   TITEL  = PAW_PBE Cr 06Sep2000                                                
   LULTRA =        F    use ultrasoft PP ?                                      
   IUNSCR =        1    unscreen: 0-lin 1-nonlin 2-no                           
   RPACOR =    2.080    partial core radius                                     
   POMASS =   51.996; ZVAL   =    6.000    mass and valenz                      
   RCORE  =    2.500    outmost cutoff radius                                   
   RWIGS  =    2.500; RWIGS  =    1.323    wigner-seitz radius (au A)           
   ENMAX  =  227.080; ENMIN  =  170.310 eV                                      
   RCLOC  =    1.721    cutoff for local pot                                    
   LCOR   =        T    correct aug charges                                     
   LPAW   =        T    paw PP                                                  
   EAUG   =  402.108                                                            
   DEXC   =    0.000                                                            
   RMAX   =    2.552    core radius for proj-oper                               
   RAUG   =    1.300    factor for augmentation sphere                          
   RDEP   =    2.609    radius for radial grids                                 
   RDEPT  =    2.065    core radius for aug-charge                              
                                                                                
   Atomic configuration                                                         
    9 entries                                                                   
     n  l   j            E        occ.                                          
     1  0  0.50     -5880.4963   2.0000                                         
     2  0  0.50      -667.0865   2.0000                                         
     2  1  1.50      -560.6250   6.0000                                         
     3  0  0.50       -73.9860   2.0000                                         
     3  1  1.50       -45.4378   6.0000                                         
     3  2  2.50        -2.9137   5.0000                                         
     4  0  0.50        -4.0071   1.0000                                         
     4  1  0.50        -1.2789   0.0000                                         
     4  3  2.50        -1.3606   0.0000                                         
   Description                                                                  
     l       E           TYP  RCUT    TYP  RCUT                                 
     2     -2.9136677     23  2.500                                             
     2     -4.2742503     23  2.500                                             
     0     -4.0071322     23  2.500                                             
     0      9.4498801     23  2.500                                             
     1     -5.4423304     23  2.500                                             
     1     27.2116520     23  2.500                                             
  local pseudopotential read in
  partial core-charges read in
  partial kinetic energy density read in
  atomic valenz-charges read in
  non local Contribution for L=           2  read in
    real space projection operators read in
  non local Contribution for L=           2  read in
    real space projection operators read in
  non local Contribution for L=           0  read in
    real space projection operators read in
  non local Contribution for L=           0  read in
    real space projection operators read in
  non local Contribution for L=           1  read in
    real space projection operators read in
  non local Contribution for L=           1  read in
    real space projection operators read in
    PAW grid and wavefunctions read in
 
   number of l-projection  operators is LMAX  =           6
   number of lm-projection operators is LMMAX =          18
 
 POTCAR:    PAW_PBE H 15Jun2001                   
   VRHFIN =H: ultrasoft test                                                    
   LEXCH  = PE                                                                  
   EATOM  =    12.4884 eV,    0.9179 Ry                                         
                                                                                
   TITEL  = PAW_PBE H 15Jun2001                                                 
   LULTRA =        F    use ultrasoft PP ?                                      
   IUNSCR =        0    unscreen: 0-lin 1-nonlin 2-no                           
   RPACOR =    0.000    partial core radius                                     
   POMASS =    1.000; ZVAL   =    1.000    mass and valenz                      
   RCORE  =    1.100    outmost cutoff radius                                   
   RWIGS  =    0.700; RWIGS  =    0.370    wigner-seitz radius (au A)           
   ENMAX  =  250.000; ENMIN  =  200.000 eV                                      
   RCLOC  =    0.701    cutoff for local pot                                    
   LCOR   =        T    correct aug charges                                     
   LPAW   =        T    paw PP                                                  
   EAUG   =  400.000                                                            
   RMAX   =    1.123    core radius for proj-oper                               
   RAUG   =    1.200    factor for augmentation sphere                          
   RDEP   =    1.112    radius for radial grids                                 
   RDEPT  =    0.926    core radius for aug-charge                              
                                                                                
   Atomic configuration                                                         
    2 entries                                                                   
     n  l   j            E        occ.                                          
     1  0  0.50        -6.4927   1.0000                                         
     2  1  0.50        -3.4015   0.0000                                         
   Description                                                                  
     l       E           TYP  RCUT    TYP  RCUT                                 
     0     -6.4927494     23  1.100                                             
     0      6.8029130     23  1.100                                             
     1     -4.0817478     23  1.100                                             
  local pseudopotential read in
  atomic valenz-charges read in
  non local Contribution for L=           0  read in
    real space projection operators read in
  non local Contribution for L=           0  read in
    real space projection operators read in
  non local Contribution for L=           1  read in
    real space projection operators read in
    PAW grid and wavefunctions read in
 
   number of l-projection  operators is LMAX  =           3
   number of lm-projection operators is LMMAX =           5
 
 POTCAR:    PAW_PBE Mo 08Apr2002                  
   VRHFIN =Mo: 4p5s4d                                                           
   LEXCH  = PE                                                                  
   EATOM  =   217.5176 eV,   15.9871 Ry                                         
                                                                                
   TITEL  = PAW_PBE Mo 08Apr2002                                                
   LULTRA =        F    use ultrasoft PP ?                                      
   IUNSCR =        1    unscreen: 0-lin 1-nonlin 2-no                           
   RPACOR =    2.200    partial core radius                                     
   POMASS =   95.940; ZVAL   =    6.000    mass and valenz                      
   RCORE  =    2.750    outmost cutoff radius                                   
   RWIGS  =    2.750; RWIGS  =    1.455    wigner-seitz radius (au A)           
   ENMAX  =  224.584; ENMIN  =  168.438 eV                                      
   RCLOC  =    2.111    cutoff for local pot                                    
   LCOR   =        T    correct aug charges                                     
   LPAW   =        T    paw PP                                                  
   EAUG   =  345.278                                                            
   DEXC   =    0.000                                                            
   RMAX   =    2.821    core radius for proj-oper                               
   RAUG   =    1.300    factor for augmentation sphere                          
   RDEP   =    2.815    radius for radial grids                                 
   RDEPT  =    2.211    core radius for aug-charge                              
                                                                                
   Atomic configuration                                                         
   12 entries                                                                   
     n  l   j            E        occ.                                          
     1  0  0.50    -19819.0341   2.0000                                         
     2  0  0.50     -2799.0127   2.0000                                         
     2  1  1.50     -2502.0276   6.0000                                         
     3  0  0.50      -476.4448   2.0000                                         
     3  1  1.50      -379.1496   6.0000                                         
     3  2  2.50      -220.9367  10.0000                                         
     4  0  0.50       -64.3378   2.0000                                         
     4  1  1.50       -38.4773   6.0000                                         
     4  2  2.50        -3.7535   5.0000                                         
     5  0  0.50        -4.0862   1.0000                                         
     5  1  0.50        -2.7701   0.0000                                         
     4  3  2.50        -1.3606   0.0000                                         
   Description                                                                  
     l       E           TYP  RCUT    TYP  RCUT                                 
     2     -3.7534765     23  2.500                                             
     2     -5.1140591     23  2.500                                             
     0     -4.0861560     23  2.600                                             
     0     13.6058260     23  2.600                                             
     1      5.4423304     23  2.750                                             
     1     27.2116520     23  2.750                                             
  local pseudopotential read in
  partial core-charges read in
  partial kinetic energy density read in
  atomic valenz-charges read in
  non local Contribution for L=           2  read in
    real space projection operators read in
  non local Contribution for L=           2  read in
    real space projection operators read in
  non local Contribution for L=           0  read in
    real space projection operators read in
  non local Contribution for L=           0  read in
    real space projection operators read in
  non local Contribution for L=           1  read in
    real space projection operators read in
  non local Contribution for L=           1  read in
    real space projection operators read in
    PAW grid and wavefunctions read in
 
   number of l-projection  operators is LMAX  =           6
   number of lm-projection operators is LMMAX =          18
 
 POTCAR:    PAW_PBE S 06Sep2000                   
   VRHFIN =S : s2p4                                                             
   LEXCH  = PE                                                                  
   EATOM  =   276.8230 eV,   20.3459 Ry                                         
                                                                                
   TITEL  = PAW_PBE S 06Sep2000                                                 
   LULTRA =        F    use ultrasoft PP ?                                      
   IUNSCR =        1    unscreen: 0-lin 1-nonlin 2-no                           
   RPACOR =    1.500    partial core radius                                     
   POMASS =   32.066; ZVAL   =    6.000    mass and valenz                      
   RCORE  =    1.900    outmost cutoff radius                                   
   RWIGS  =    2.200; RWIGS  =    1.164    wigner-seitz radius (au A)           
   ENMAX  =  258.689; ENMIN  =  194.016 eV                                      
   ICORE  =        2    local potential                                         
   LCOR   =        T    correct aug charges                                     
   LPAW   =        T    paw PP                                                  
   EAUG   =  335.092                                                            
   DEXC   =    0.000                                                            
   RMAX   =    1.942    core radius for proj-oper                               
   RAUG   =    1.300    factor for augmentation sphere                          
   RDEP   =    1.954    radius for radial grids                                 
   RDEPT  =    1.744    core radius for aug-charge                              
                                                                                
   Atomic configuration                                                         
    6 entries                                                                   
     n  l   j            E        occ.                                          
     1  0  0.50     -2405.8406   2.0000                                         
     2  0  0.50      -211.7007   2.0000                                         
     2  1  1.50      -156.4958   6.0000                                         
     3  0  0.50       -17.2562   2.0000                                         
     3  1  0.50        -7.0085   4.0000                                         
     3  2  1.50        -6.8029   0.0000                                         
   Description                                                                  
     l       E           TYP  RCUT    TYP  RCUT                                 
     0    -17.2561641     23  1.900                                             
     0    -15.8743224     23  1.900                                             
     1     -7.0085400     23  1.900                                             
     1     -2.7779785     23  1.900                                             
     2     -6.8029130     23  1.900                                             
  local pseudopotential read in
  partial core-charges read in
  partial kinetic energy density read in
  atomic valenz-charges read in
  non local Contribution for L=           0  read in
    real space projection operators read in
  non local Contribution for L=           0  read in
    real space projection operators read in
  non local Contribution for L=           1  read in
    real space projection operators read in
  non local Contribution for L=           1  read in
    real space projection operators read in
    PAW grid and wavefunctions read in
 
   number of l-projection  operators is LMAX  =           4
   number of lm-projection operators is LMMAX =           8
 
 Optimization of the real space projectors (new method)

 maximal supplied QI-value         = 25.13
 optimisation between [QCUT,QGAM] = [ 10.05, 20.36] = [ 28.30,116.06] Ry 
 Optimized for a Real-space Cutoff    1.51 Angstroem

   l    n(q)    QCUT    max X(q) W(low)/X(q) W(high)/X(q)  e(spline) 
   0      9    10.053   115.676    0.19E-03    0.21E-03    0.38E-06
   0      9    10.053    87.132    0.19E-03    0.21E-03    0.38E-06
   1      9    10.053     4.429    0.87E-04    0.11E-03    0.39E-06
   1      9    10.053     2.733    0.59E-04    0.62E-04    0.43E-06
 Optimization of the real space projectors (new method)

 maximal supplied QI-value         = 15.12
 optimisation between [QCUT,QGAM] = [ 10.13, 20.41] = [ 28.73,116.64] Ry 
 Optimized for a Real-space Cutoff    1.55 Angstroem

   l    n(q)    QCUT    max X(q) W(low)/X(q) W(high)/X(q)  e(spline) 
   2      9    10.129    94.395    0.23E-03    0.29E-03    0.30E-06
   2      9    10.129    88.078    0.23E-03    0.29E-03    0.30E-06
   0      9    10.129    50.173    0.57E-04    0.58E-04    0.11E-06
   0      9    10.129    24.906    0.50E-04    0.51E-04    0.96E-07
   1      9    10.129    12.133    0.24E-03    0.21E-04    0.16E-06
   1      9    10.129     7.290    0.17E-03    0.12E-04    0.12E-06
 Optimization of the real space projectors (new method)

 maximal supplied QI-value         = 34.20
 optimisation between [QCUT,QGAM] = [  9.92, 20.18] = [ 27.55,114.04] Ry 
 Optimized for a Real-space Cutoff    1.34 Angstroem

   l    n(q)    QCUT    max X(q) W(low)/X(q) W(high)/X(q)  e(spline) 
   0      8     9.919    19.460    0.16E-03    0.20E-03    0.36E-06
   0      8     9.919    12.209    0.16E-03    0.20E-03    0.35E-06
   1      8     9.919     4.655    0.19E-03    0.46E-03    0.40E-06
 Optimization of the real space projectors (new method)

 maximal supplied QI-value         = 13.61
 optimisation between [QCUT,QGAM] = [ 10.20, 20.41] = [ 29.16,116.64] Ry 
 Optimized for a Real-space Cutoff    1.65 Angstroem

   l    n(q)    QCUT    max X(q) W(low)/X(q) W(high)/X(q)  e(spline) 
   2      9    10.205    80.908    0.21E-03    0.30E-03    0.60E-06
   2      9    10.205    79.000    0.21E-03    0.30E-03    0.60E-06
   0     10    10.205    52.066    0.39E-04    0.38E-04    0.19E-06
   0     10    10.205    24.514    0.33E-04    0.32E-04    0.16E-06
   1     10    10.205    16.033    0.64E-04    0.17E-03    0.19E-06
   1     10    10.205    11.179    0.49E-04    0.13E-03    0.15E-06
 Optimization of the real space projectors (new method)

 maximal supplied QI-value         = 19.84
 optimisation between [QCUT,QGAM] = [ 10.12, 20.44] = [ 28.68,116.96] Ry 
 Optimized for a Real-space Cutoff    1.42 Angstroem

   l    n(q)    QCUT    max X(q) W(low)/X(q) W(high)/X(q)  e(spline) 
   0      9    10.119   187.594    0.52E-04    0.93E-04    0.64E-07
   0      9    10.119   164.243    0.51E-04    0.92E-04    0.63E-07
   1      8    10.119    67.533    0.16E-03    0.17E-03    0.23E-06
   1      8    10.119    50.729    0.16E-03    0.16E-03    0.23E-06
  PAW_PBE C 08Apr2002                   :
 energy of atom  1       EATOM= -147.1560
 kinetic energy error for atom=    0.0288 (will be added to EATOM!!)
  PAW_PBE Cr 06Sep2000                  :
 energy of atom  2       EATOM= -276.8859
 kinetic energy error for atom=    0.0018 (will be added to EATOM!!)
  PAW_PBE H 15Jun2001                   :
 energy of atom  3       EATOM=  -12.4884
 kinetic energy error for atom=    0.0098 (will be added to EATOM!!)
  PAW_PBE Mo 08Apr2002                  :
 energy of atom  4       EATOM= -217.5176
 kinetic energy error for atom=    0.0025 (will be added to EATOM!!)
  PAW_PBE S 06Sep2000                   :
 energy of atom  5       EATOM= -276.8230
 kinetic energy error for atom=    0.0046 (will be added to EATOM!!)
 
 
 POSCAR:  C Cr  H Mo  S                          
  positions in cartesian coordinates
  No initial velocities read in
 exchange correlation table for  LEXCH =        8
   RHO(1)=    0.500       N(1)  =     2000
   RHO(2)=  100.500       N(2)  =     4000
 


--------------------------------------------------------------------------------------------------------


 ion  position               nearest neighbor table
   1  0.387  0.398  0.501-  18 1.09   2 1.42   3 1.43  11 2.20
   2  0.340  0.431  0.474-  17 1.09   1 1.42   5 1.43  11 2.18
   3  0.488  0.468  0.502-  19 1.09   1 1.43   4 1.44  11 2.15
   4  0.504  0.547  0.475-  20 1.09   3 1.44   5 1.44  11 2.09
   5  0.411  0.523  0.457-  12 1.09   2 1.43   4 1.44  11 2.11
   6  0.393  0.307  0.395-  14 1.09  10 1.44   8 1.44  11 2.11
   7  0.534  0.454  0.382-  15 1.09   9 1.43   8 1.44  11 2.15
   8  0.431  0.400  0.375-  13 1.09   7 1.44   6 1.44  11 2.10
   9  0.559  0.395  0.406-  16 1.09  10 1.42   7 1.43  11 2.20
  10  0.473  0.305  0.415-  21 1.09   9 1.42   6 1.44  11 2.18
  11  0.452  0.421  0.439-   4 2.09   8 2.10   5 2.11   6 2.11   3 2.15   7 2.15  10 2.18   2 2.18
                             1 2.20   9 2.20
  12  0.398  0.568  0.436-   5 1.09
  13  0.390  0.424  0.356-   8 1.09
  14  0.318  0.249  0.395-   6 1.09
  15  0.584  0.527  0.372-   7 1.09
  16  0.631  0.417  0.419-   9 1.09
  17  0.263  0.391  0.465-   2 1.09
  18  0.353  0.328  0.517-   1 1.09
  19  0.544  0.463  0.519-   3 1.09
  20  0.573  0.613  0.470-   4 1.09
  21  0.468  0.246  0.433-  10 1.09
  22  0.600  0.600  0.657-  97 2.43 148 2.43 144 2.43  98 2.43 149 2.43 145 2.43  56 3.18  27 3.18
                            61 3.18  44 3.18  38 3.18  47 3.18
  23  0.200  0.800  0.219- 126 2.43 162 2.43 121 2.43 139 2.43 163 2.43 122 2.43  26 3.18  49 3.18
                            51 3.18  64 3.18  54 3.18  70 3.18
  24  0.200  0.600  0.657- 164 2.43 127 2.43 123 2.43 128 2.43 165 2.43 124 2.43  46 3.18  33 3.18
                            47 3.18  63 3.18  34 3.18  66 3.18
  25  0.600  0.800  0.219-  92 2.43 146 2.43 112 2.43  94 2.43 147 2.43 143 2.43  35 3.18  58 3.18
                            29 3.18  36 3.18  50 3.18  49 3.18
  26  0.200  0.600  0.219- 166 2.43 129 2.43 126 2.43 130 2.43 167 2.43 139 2.43  49 3.18  36 3.18
                            23 3.18  62 3.18  28 3.18  64 3.18
  27  0.600  0.800  0.657-  96 2.43 144 2.43 110 2.43  93 2.43 145 2.43 170 2.43  22 3.18  56 3.18
                            31 3.18  47 3.18  48 3.18  46 3.18
  28  0.200  0.400  0.219- 133 2.43 142 2.43 129 2.43 141 2.43 134 2.43 130 2.43  32 3.18  42 3.18
                            36 3.18  59 3.18  26 3.18  62 3.18
  29  0.800  0.000  0.219-  72 2.43  84 2.43  92 2.43  94 2.43 108 2.43  86 2.43  50 3.18  25 3.18
                            59 3.18  58 3.18  52 3.18  55 3.18
  30  0.200  0.200  0.657- 140 2.43 135 2.43 131 2.43 136 2.43 125 2.43 132 2.43  44 3.18  41 3.18
                            34 3.18  57 3.18  53 3.18  60 3.18
  31  0.800  0.000  0.657-  80 2.43  85 2.43  96 2.43  93 2.43  82 2.43  81 2.43  48 3.18  27 3.18
                            60 3.18  56 3.18  71 3.18  57 3.18
  32  0.200  0.200  0.219- 113 2.43 137 2.43 133 2.43 114 2.43 138 2.43 134 2.43  42 3.18  39 3.18
                            28 3.18  55 3.18  54 3.18  59 3.18
  33  0.200  0.800  0.657- 123 2.43 160 2.43 119 2.43 124 2.43 161 2.43 120 2.43  24 3.18  46 3.18
                            37 3.18  66 3.18  53 3.18  69 3.18
  34  0.200  0.400  0.657- 131 2.43 168 2.43 127 2.43 132 2.43 169 2.43 128 2.43  30 3.18  44 3.18
                            47 3.18  60 3.18  24 3.18  63 3.18
  35  0.600  0.600  0.219- 100 2.43 150 2.43 146 2.43 102 2.43 151 2.43 147 2.43  58 3.18  25 3.18
                            67 3.18  42 3.18  40 3.18  36 3.18
  36  0.400  0.600  0.219- 166 2.43 146 2.43 142 2.43 167 2.43 141 2.43 147 2.43  26 3.18  49 3.18
                            28 3.18  25 3.18  42 3.18  35 3.18
  37  0.400  0.000  0.657- 115 2.43 156 2.43 160 2.43 111 2.43 161 2.43 116 2.43  53 3.18  33 3.18
                            43 3.18  46 3.18  41 3.18  48 3.18
  38  0.600  0.400  0.657- 105 2.43 152 2.43 148 2.43 106 2.43 153 2.43 149 2.43  43 3.18  65 3.18
                            61 3.18  41 3.18  22 3.18  44 3.18
  39  0.400  0.200  0.219- 113 2.43 154 2.43 117 2.43 114 2.43 118 2.43 155 2.43  32 3.18  42 3.18
                            54 3.18  40 3.18  51 3.18  45 3.18
  40  0.600  0.400  0.219-  91 2.43 154 2.43 150 2.43  90 2.43 155 2.43 151 2.43  45 3.18  68 3.18
                            67 3.18  39 3.18  35 3.18  42 3.18
  41  0.400  0.200  0.657- 140 2.43 152 2.43 115 2.43 125 2.43 116 2.43 153 2.43  30 3.18  44 3.18
                            53 3.18  38 3.18  37 3.18  43 3.18
  42  0.400  0.400  0.219- 113 2.43 142 2.43 150 2.43 114 2.43 151 2.43 141 2.43  32 3.18  28 3.18
                            39 3.18  35 3.18  36 3.18  40 3.18
  43  0.600  0.200  0.657-  73 2.43 156 2.43 152 2.43  74 2.43 111 2.43 153 2.43  65 3.18  38 3.18
                            71 3.18  37 3.18  48 3.18  41 3.18
  44  0.400  0.400  0.657- 140 2.43 148 2.43 168 2.43 149 2.43 125 2.43 169 2.43  30 3.18  34 3.18
                            41 3.18  22 3.18  47 3.18  38 3.18
  45  0.600  0.200  0.219-  77 2.43 158 2.43 154 2.43  78 2.43 159 2.43 155 2.43  68 3.18  52 3.18
                            40 3.18  51 3.18  50 3.18  39 3.18
  46  0.400  0.800  0.657- 110 2.43 160 2.43 164 2.43 165 2.43 170 2.43 161 2.43  24 3.18  33 3.18
                            47 3.18  48 3.18  37 3.18  27 3.18
  47  0.400  0.600  0.657- 164 2.43 144 2.43 168 2.43 165 2.43 145 2.43 169 2.43  24 3.18  46 3.18
                            34 3.18  27 3.18  44 3.18  22 3.18
  48  0.600  0.000  0.657-  80 2.43 110 2.43 156 2.43  81 2.43 170 2.43 111 2.43  31 3.18  71 3.18
                            46 3.18  27 3.18  43 3.18  37 3.18
  49  0.400  0.800  0.219- 112 2.43 162 2.43 166 2.43 143 2.43 167 2.43 163 2.43  26 3.18  23 3.18
                            36 3.18  50 3.18  51 3.18  25 3.18
  50  0.600  0.000  0.219-  84 2.43 112 2.43 158 2.43 143 2.43  86 2.43 159 2.43  29 3.18  52 3.18
                            49 3.18  25 3.18  45 3.18  51 3.18
  51  0.400  0.000  0.219- 117 2.43 158 2.43 162 2.43 159 2.43 163 2.43 118 2.43  54 3.18  23 3.18
                            45 3.18  49 3.18  39 3.18  50 3.18
  52  0.800  0.200  0.219-  77 2.43  87 2.43  84 2.43  78 2.43  86 2.43 104 2.43  45 3.18  68 3.18
                            50 3.18  62 3.18  29 3.18  59 3.18
  53  0.200  0.000  0.657- 115 2.43 119 2.43 135 2.43 120 2.43 116 2.43 136 2.43  37 3.18  41 3.18
                            69 3.18  33 3.18  30 3.18  57 3.18
  54  0.200  0.000  0.219- 117 2.43 121 2.43 137 2.43 122 2.43 118 2.43 138 2.43  51 3.18  39 3.18
                            70 3.18  32 3.18  23 3.18  55 3.18
  55  0.000  0.000  0.219-  83 2.43 137 2.43  72 2.43  89 2.43 138 2.43 108 2.43  32 3.18  58 3.18
                            59 3.18  70 3.18  54 3.18  29 3.18
  56  0.800  0.800  0.657-  96 2.43  97 2.43 171 2.43  98 2.43  93 2.43 157 2.43  22 3.18  27 3.18
                            61 3.18  57 3.18  31 3.18  69 3.18
  57  0.000  0.000  0.657- 135 2.43 171 2.43  85 2.43 157 2.43 136 2.43  82 2.43  30 3.18  56 3.18
                            60 3.18  69 3.18  53 3.18  31 3.18
  58  0.800  0.800  0.219-  92 2.43 100 2.43  83 2.43 102 2.43  94 2.43  89 2.43  35 3.18  25 3.18
                            67 3.18  55 3.18  29 3.18  70 3.18
  59  0.000  0.200  0.219- 133 2.43  72 2.43  87 2.43 108 2.43 134 2.43 104 2.43  62 3.18  28 3.18
                            29 3.18  55 3.18  32 3.18  52 3.18
  60  0.000  0.200  0.657- 131 2.43  85 2.43 103 2.43  82 2.43 132 2.43  88 2.43  63 3.18  34 3.18
                            31 3.18  57 3.18  30 3.18  71 3.18
  61  0.800  0.600  0.657-  97 2.43 105 2.43  76 2.43  98 2.43 106 2.43  75 2.43  22 3.18  56 3.18
                            38 3.18  69 3.18  65 3.18  66 3.18
  62  0.000  0.400  0.219-  87 2.43  95 2.43 129 2.43 104 2.43 130 2.43  79 2.43  59 3.18  52 3.18
                            26 3.18  64 3.18  28 3.18  68 3.18
  63  0.000  0.400  0.657- 101 2.43 103 2.43 127 2.43  88 2.43 128 2.43  99 2.43  60 3.18  71 3.18
                            24 3.18  66 3.18  34 3.18  65 3.18
  64  0.000  0.600  0.219- 109 2.43 126 2.43  95 2.43 107 2.43  79 2.43 139 2.43  70 3.18  23 3.18
                            68 3.18  62 3.18  26 3.18  67 3.18
  65  0.800  0.400  0.657-  73 2.43 105 2.43 101 2.43  74 2.43 106 2.43  99 2.43  43 3.18  38 3.18
                            71 3.18  66 3.18  61 3.18  63 3.18
  66  0.000  0.600  0.657-  76 2.43 123 2.43 101 2.43  75 2.43  99 2.43 124 2.43  69 3.18  33 3.18
                            65 3.18  63 3.18  61 3.18  24 3.18
  67  0.800  0.600  0.219- 100 2.43  91 2.43 109 2.43 102 2.43  90 2.43 107 2.43  35 3.18  58 3.18
                            40 3.18  70 3.18  68 3.18  64 3.18
  68  0.800  0.400  0.219-  77 2.43  91 2.43  95 2.43  78 2.43  90 2.43  79 2.43  45 3.18  40 3.18
                            52 3.18  64 3.18  67 3.18  62 3.18
  69  0.000  0.800  0.657-  76 2.43 119 2.43 171 2.43 120 2.43  75 2.43 157 2.43  66 3.18  61 3.18
                            53 3.18  57 3.18  56 3.18  33 3.18
  70  0.000  0.800  0.219-  83 2.43 109 2.43 121 2.43 107 2.43 122 2.43  89 2.43  64 3.18  67 3.18
                            54 3.18  55 3.18  23 3.18  58 3.18
  71  0.800  0.200  0.657-  73 2.43 103 2.43  80 2.43  74 2.43  88 2.43  81 2.43  43 3.18  65 3.18
                            48 3.18  63 3.18  31 3.18  60 3.18
  72  0.933  0.067  0.170-  29 2.43  59 2.43  55 2.43
  73  0.733  0.267  0.608-  71 2.43  43 2.43  65 2.43
  74  0.733  0.267  0.707-  71 2.43  65 2.43  43 2.43
  75  0.933  0.667  0.707-  66 2.43  69 2.43  61 2.43
  76  0.933  0.667  0.608-  66 2.43  69 2.43  61 2.43
  77  0.733  0.267  0.170-  52 2.43  45 2.43  68 2.43
  78  0.733  0.267  0.268-  52 2.43  45 2.43  68 2.43
  79  0.933  0.467  0.268-  64 2.43  62 2.43  68 2.43
  80  0.733  0.067  0.608-  31 2.43  48 2.43  71 2.43
  81  0.733  0.067  0.707-  48 2.43  71 2.43  31 2.43
  82  0.933  0.067  0.707-  31 2.43  60 2.43  57 2.43
  83  0.933  0.867  0.170-  55 2.43  70 2.43  58 2.43
  84  0.733  0.067  0.170-  29 2.43  50 2.43  52 2.43
  85  0.933  0.067  0.608-  31 2.43  60 2.43  57 2.43
  86  0.733  0.067  0.268-  50 2.43  52 2.43  29 2.43
  87  0.933  0.267  0.170-  52 2.43  62 2.43  59 2.43
  88  0.933  0.267  0.707-  63 2.43  71 2.43  60 2.43
  89  0.933  0.867  0.268-  55 2.43  70 2.43  58 2.43
  90  0.733  0.467  0.268-  40 2.43  67 2.43  68 2.43
  91  0.733  0.467  0.170-  40 2.43  67 2.43  68 2.43
  92  0.733  0.867  0.170-  25 2.43  29 2.43  58 2.43
  93  0.733  0.867  0.707-  27 2.43  31 2.43  56 2.43
  94  0.733  0.867  0.268-  25 2.43  29 2.43  58 2.43
  95  0.933  0.467  0.170-  62 2.43  64 2.43  68 2.43
  96  0.733  0.867  0.608-  27 2.43  31 2.43  56 2.43
  97  0.733  0.667  0.608-  61 2.43  22 2.43  56 2.43
  98  0.733  0.667  0.707-  61 2.43  56 2.43  22 2.43
  99  0.933  0.467  0.707-  66 2.43  63 2.43  65 2.43
 100  0.733  0.667  0.170-  67 2.43  35 2.43  58 2.43
 101  0.933  0.467  0.608-  63 2.43  66 2.43  65 2.43
 102  0.733  0.667  0.268-  67 2.43  58 2.43  35 2.43
 103  0.933  0.267  0.608-  71 2.43  63 2.43  60 2.43
 104  0.933  0.267  0.268-  52 2.43  62 2.43  59 2.43
 105  0.733  0.467  0.608-  38 2.43  61 2.43  65 2.43
 106  0.733  0.467  0.707-  38 2.43  61 2.43  65 2.43
 107  0.933  0.667  0.268-  64 2.43  70 2.43  67 2.43
 108  0.933  0.067  0.268-  29 2.43  59 2.43  55 2.43
 109  0.933  0.667  0.170-  64 2.43  70 2.43  67 2.43
 110  0.533  0.867  0.608-  46 2.43  48 2.43  27 2.43
 111  0.533  0.067  0.707-  37 2.43  43 2.43  48 2.43
 112  0.533  0.867  0.170-  49 2.43  50 2.43  25 2.43
 113  0.333  0.267  0.170-  39 2.43  32 2.43  42 2.43
 114  0.333  0.267  0.268-  39 2.43  32 2.43  42 2.43
 115  0.333  0.067  0.608-  37 2.43  41 2.43  53 2.43
 116  0.333  0.067  0.707-  41 2.43  53 2.43  37 2.43
 117  0.333  0.067  0.170-  39 2.43  51 2.43  54 2.43
 118  0.333  0.067  0.268-  39 2.43  54 2.43  51 2.43
 119  0.133  0.867  0.608-  53 2.43  69 2.43  33 2.43
 120  0.133  0.867  0.707-  53 2.43  69 2.43  33 2.43
 121  0.133  0.867  0.170-  54 2.43  70 2.43  23 2.43
 122  0.133  0.867  0.268-  54 2.43  70 2.43  23 2.43
 123  0.133  0.667  0.608-  66 2.43  33 2.43  24 2.43
 124  0.133  0.667  0.707-  33 2.43  66 2.43  24 2.43
 125  0.333  0.267  0.707-  41 2.43  30 2.43  44 2.43
 126  0.133  0.667  0.170-  64 2.43  23 2.43  26 2.43
 127  0.133  0.467  0.608-  24 2.43  63 2.43  34 2.43
 128  0.133  0.467  0.707-  24 2.43  63 2.43  34 2.43
 129  0.133  0.467  0.170-  26 2.43  62 2.43  28 2.43
 130  0.133  0.467  0.268-  26 2.43  62 2.43  28 2.43
 131  0.133  0.267  0.608-  60 2.43  34 2.43  30 2.43
 132  0.133  0.267  0.707-  34 2.43  60 2.43  30 2.43
 133  0.133  0.267  0.170-  59 2.43  28 2.43  32 2.43
 134  0.133  0.267  0.268-  28 2.43  59 2.43  32 2.43
 135  0.133  0.067  0.608-  30 2.43  57 2.43  53 2.43
 136  0.133  0.067  0.707-  30 2.43  57 2.43  53 2.43
 137  0.133  0.067  0.170-  32 2.43  55 2.43  54 2.43
 138  0.133  0.067  0.268-  32 2.43  55 2.43  54 2.43
 139  0.133  0.667  0.268-  23 2.43  64 2.43  26 2.43
 140  0.333  0.267  0.608-  41 2.43  30 2.43  44 2.43
 141  0.333  0.467  0.268-  28 2.43  36 2.43  42 2.43
 142  0.333  0.467  0.170-  28 2.43  36 2.43  42 2.43
 143  0.533  0.867  0.268-  49 2.43  50 2.43  25 2.43
 144  0.533  0.667  0.608-  47 2.43  27 2.43  22 2.43
 145  0.533  0.667  0.707-  27 2.43  47 2.43  22 2.43
 146  0.533  0.667  0.170-  36 2.43  25 2.43  35 2.43
 147  0.533  0.667  0.268-  25 2.43  36 2.43  35 2.43
 148  0.533  0.467  0.608-  22 2.43  44 2.43  38 2.43
 149  0.533  0.467  0.707-  22 2.43  44 2.43  38 2.43
 150  0.533  0.467  0.170-  35 2.43  42 2.43  40 2.43
 151  0.533  0.467  0.268-  35 2.43  42 2.43  40 2.43
 152  0.533  0.267  0.608-  41 2.43  38 2.43  43 2.43
 153  0.533  0.267  0.707-  38 2.43  41 2.43  43 2.43
 154  0.533  0.267  0.170-  39 2.43  40 2.43  45 2.43
 155  0.533  0.267  0.268-  39 2.43  40 2.43  45 2.43
 156  0.533  0.067  0.608-  37 2.43  43 2.43  48 2.43
 157  0.933  0.867  0.707-  57 2.43  69 2.43  56 2.43
 158  0.533  0.067  0.170-  45 2.43  51 2.43  50 2.43
 159  0.533  0.067  0.268-  45 2.43  51 2.43  50 2.43
 160  0.333  0.867  0.608-  33 2.43  37 2.43  46 2.43
 161  0.333  0.867  0.707-  33 2.43  37 2.43  46 2.43
 162  0.333  0.867  0.170-  23 2.43  49 2.43  51 2.43
 163  0.333  0.867  0.268-  23 2.43  51 2.43  49 2.43
 164  0.333  0.667  0.608-  47 2.43  24 2.43  46 2.43
 165  0.333  0.667  0.707-  47 2.43  46 2.43  24 2.43
 166  0.333  0.667  0.170-  36 2.43  26 2.43  49 2.43
 167  0.333  0.667  0.268-  36 2.43  26 2.43  49 2.43
 168  0.333  0.467  0.608-  34 2.43  44 2.43  47 2.43
 169  0.333  0.467  0.707-  34 2.43  47 2.43  44 2.43
 170  0.533  0.867  0.707-  46 2.43  48 2.43  27 2.43
 171  0.933  0.867  0.608-  57 2.43  69 2.43  56 2.43
 
  LATTYP: Found a hexagonal cell.
 ALAT       =    15.9000000000
 C/A-ratio  =     2.0364779874
  
  Lattice vectors:
  
 A1 = (  15.9000000000,   0.0000000000,   0.0000000000)
 A2 = (  -7.9500000000,  13.7698039202,   0.0000000000)
 A3 = (   0.0000000000,   0.0000000000,  32.3800000000)


Analysis of symmetry for initial positions (statically):
=====================================================================
 Subroutine PRICEL returns:
 Original cell was already a primitive cell.
 

 Routine SETGRP: Setting up the symmetry group for a 
 hexagonal supercell.


 Subroutine GETGRP returns: Found  1 space group operations
 (whereof  1 operations were pure point group operations)
 out of a pool of 24 trial point group operations.


The static configuration has the point symmetry C_1 .


Analysis of symmetry for dynamics (positions and initial velocities):
=====================================================================
 Subroutine PRICEL returns:
 Original cell was already a primitive cell.
 

 Routine SETGRP: Setting up the symmetry group for a 
 hexagonal supercell.


 Subroutine GETGRP returns: Found  1 space group operations
 (whereof  1 operations were pure point group operations)
 out of a pool of 24 trial point group operations.


The dynamic configuration has the point symmetry C_1 .


Analysis of constrained symmetry for selective dynamics:
=====================================================================
 Subroutine PRICEL returns:
 Original cell was already a primitive cell.
 

 Routine SETGRP: Setting up the symmetry group for a 
 hexagonal supercell.


 Subroutine GETGRP returns: Found  1 space group operations
 (whereof  1 operations were pure point group operations)
 out of a pool of 24 trial point group operations.


The constrained configuration has the point symmetry C_1 .


 Subroutine INISYM returns: Found  1 space group operations
 (whereof  1 operations are pure point group operations),
 and found     1 'primitive' translations

 
 
 KPOINTS: Gamma-point only                        
  k-points in reciprocal lattice
Space group operators:
 irot       det(A)        alpha          n_x          n_y          n_z        tau_x        tau_y        tau_z
    1     1.000000     0.000000     1.000000     0.000000     0.000000     0.000000     0.000000     0.000000


--------------------------------------------------------------------------------------------------------




 Dimension of arrays:
   k-points           NKPTS =      1   k-points in BZ     NKDIM =      1   number of bands    NBANDS=    585
   number of dos      NEDOS =    301   number of ions     NIONS =    171
   non local maximal  LDIM  =      6   non local SUM 2l+1 LMDIM =     18
   total plane-waves  NPLWV = ******
   max r-space proj   IRMAX =   6718   max aug-charges    IRDMAX=  23014
   dimension x,y,z NGX =   108 NGY =  108 NGZ =  216
   dimension x,y,z NGXF=   216 NGYF=  216 NGZF=  432
   support grid    NGXF=   216 NGYF=  216 NGZF=  432
   ions per type =              10   1  10  50 100
   NGX,Y,Z   is equivalent  to a cutoff of  11.29, 11.29, 11.09 a.u.
   NGXF,Y,Z  is equivalent  to a cutoff of  22.58, 22.58, 22.18 a.u.

 SYSTEM =  basalPlane                              
 POSCAR =   C Cr  H Mo  S                          

 Startparameter for this run:
   NWRITE =      2    write-flag & timer
   PREC   = accura    normal or accurate (medium, high low for compatibility)
   ISTART =      0    job   : 0-new  1-cont  2-samecut
   ICHARG =      2    charge: 1-file 2-atom 10-const
   ISPIN  =      1    spin polarized calculation?
   LNONCOLLINEAR =      F non collinear calculations
   LSORBIT =      F    spin-orbit coupling
   INIWAV =      1    electr: 0-lowe 1-rand  2-diag
   LASPH  =      F    aspherical Exc in radial PAW
   METAGGA=      F    non-selfconsistent MetaGGA calc.

 Electronic Relaxation 1
   ENCUT  =  400.0 eV  29.40 Ry    5.42 a.u.  25.93 25.93 52.80*2*pi/ulx,y,z
   ENINI  =  400.0     initial cutoff
   ENAUG  =  645.0 eV  augmentation charge cutoff
   NELM   =    200;   NELMIN=  2; NELMDL= -5     # of ELM steps 
   EDIFF  = 0.1E-03   stopping-criterion for ELM
   LREAL  =      T    real-space projection
   NLSPLINE    = F    spline interpolate recip. space projectors
   LCOMPAT=      F    compatible to vasp.4.4
   GGA_COMPAT  = T    GGA compatible to vasp.4.4-vasp.4.6
   LMAXPAW     = -100 max onsite density
   LMAXMIX     =    2 max onsite mixed and CHGCAR
   VOSKOWN=      0    Vosko Wilk Nusair interpolation
   ROPT   =   -0.00025  -0.00025  -0.00025  -0.00025
   ROPT   =   -0.00025
 Ionic relaxation
   EDIFFG = -.2E-01   stopping-criterion for IOM
   NSW    =  10000    number of steps for IOM
   NBLOCK =      1;   KBLOCK =  10000    inner block; outer block 
   IBRION =      2    ionic relax: 0-MD 1-quasi-New 2-CG
   NFREE  =      1    steps in history (QN), initial steepest desc. (CG)
   ISIF   =      2    stress and relaxation
   IWAVPR =     11    prediction:  0-non 1-charg 2-wave 3-comb
   ISYM   =      2    0-nonsym 1-usesym 2-fastsym
   LCORR  =      T    Harris-Foulkes like correction to forces

   POTIM  = 0.5000    time-step for ionic-motion
   TEIN   =    0.0    initial temperature
   TEBEG  =    0.0;   TEEND  =   0.0 temperature during run
   SMASS  =  -3.00    Nose mass-parameter (am)
   estimated Nose-frequenzy (Omega)   =  0.10E-29 period in steps =****** mass=  -0.578E-26a.u.
   SCALEE = 1.0000    scale energy and forces
   NPACO  =    256;   APACO  = 16.0  distance and # of slots for P.C.
   PSTRESS=    0.0 pullay stress

  Mass of Ions in am
   POMASS =  12.01 52.00  1.00 95.94 32.07
  Ionic Valenz
   ZVAL   =   4.00  6.00  1.00  6.00  6.00
  Atomic Wigner-Seitz radii
   RWIGS  =  -1.00 -1.00 -1.00 -1.00 -1.00
  virtual crystal weights 
   VCA    =   1.00  1.00  1.00  1.00  1.00
   NELECT =     956.0000    total number of electrons
   NUPDOWN=      -1.0000    fix difference up-down

 DOS related values:
   EMIN   =  10.00;   EMAX   =-10.00  energy-range for DOS
   EFERMI =   0.00
   ISMEAR =     0;   SIGMA  =   0.10  broadening in eV -4-tet -1-fermi 0-gaus

 Electronic relaxation 2 (details)
   IALGO  =     38    algorithm
   LDIAG  =      T    sub-space diagonalisation (order eigenvalues)
   LSUBROT=      F    optimize rotation matrix (better conditioning)
   TURBO    =      0    0=normal 1=particle mesh
   IRESTART =      0    0=no restart 2=restart with 2 vectors
   NREBOOT  =      0    no. of reboots
   NMIN     =      0    reboot dimension
   EREF     =   0.00    reference energy to select bands
   IMIX   =      4    mixing-type and parameters
     AMIX     =   0.40;   BMIX     =  1.00
     AMIX_MAG =   1.60;   BMIX_MAG =  1.00
     AMIN     =   0.10
     WC   =   100.;   INIMIX=   1;  MIXPRE=   1;  MAXMIX= -45

 Intra band minimization:
   WEIMIN = 0.0010     energy-eigenvalue tresh-hold
   EBREAK =  0.43E-07  absolut break condition
   DEPER  =   0.30     relativ break condition  

   TIME   =   0.40     timestep for ELM

  volume/ion in A,a.u.               =      41.46       279.77
  Fermi-wavevector in a.u.,A,eV,Ry     =   0.839512  1.586448  9.589119  0.704780
  Thomas-Fermi vector in A             =   1.953743
 
 Write flags
   LWAVE        =      F    write WAVECAR
   LDOWNSAMPLE  =      F    k-point downsampling of WAVECAR
   LCHARG       =      F    write CHGCAR
   LVTOT        =      F    write LOCPOT, total local potential
   LVHAR        =      F    write LOCPOT, Hartree potential only
   LELF         =      F    write electronic localiz. function (ELF)
   LORBIT       =      0    0 simple, 1 ext, 2 COOP (PROOUT), +10 PAW based schemes


 Dipole corrections
   LMONO  =      F    monopole corrections only (constant potential shift)
   LDIPOL =      F    correct potential (dipole corrections)
   IDIPOL =      0    1-x, 2-y, 3-z, 4-all directions 
   EPSILON=  1.0000000 bulk dielectric constant

 Exchange correlation treatment:
   GGA     =    --    GGA type
   LEXCH   =     8    internal setting for exchange type
   VOSKOWN=      0    Vosko Wilk Nusair interpolation
   LHFCALC =     F    Hartree Fock is set to
   LHFONE  =     F    Hartree Fock one center treatment
   AEXX    =    0.0000 exact exchange contribution

 Linear response parameters
   LEPSILON=     F    determine dielectric tensor
   LRPA    =     F    only Hartree local field effects (RPA)
   LNABLA  =     F    use nabla operator in PAW spheres
   LVEL    =     F    velocity operator in full k-point grid
   LINTERFAST=   F  fast interpolation
   KINTER  =     0    interpolate to denser k-point grid
   CSHIFT  =0.1000    complex shift for real part using Kramers Kronig
   OMEGAMAX=  -1.0    maximum frequency
   DEG_THRESHOLD= 0.2000000E-02 threshold for treating states as degnerate
   RTIME   =   -0.100 relaxation time in fs
  (WPLASMAI=    0.000 imaginary part of plasma frequency in eV, 0.658/RTIME)
   DFIELD  = 0.0000000 0.0000000 0.0000000 field for delta impulse in time
 
 Orbital magnetization related:
   ORBITALMAG=     F  switch on orbital magnetization
   LCHIMAG   =     F  perturbation theory with respect to B field
   DQ        =  0.001000  dq finite difference perturbation B field
   LLRAUG    =     F  two centre corrections for induced B field



--------------------------------------------------------------------------------------------------------


 conjugate gradient relaxation of ions
   using selective dynamics as specified on POSCAR
   WARNING: If single coordinates had been selected the selection of coordinates
            is made according to the corresponding   d i r e c t   coordinates!
            Don't support selection of single cartesian coordinates -- sorry ...
  !
 charge density and potential will be updated during run
 non-spin polarized calculation
 Variant of blocked Davidson
 Davidson routine will perform the subspace rotation
 perform sub-space diagonalisation
    after iterative eigenvector-optimisation
 modified Broyden-mixing scheme, WC =      100.0
 initial mixing is a Kerker type mixing with AMIX =  0.4000 and BMIX =      1.0000
 Hartree-type preconditioning will be used
 using additional bands          107
 real space projection scheme for non local part
 use partial core corrections
 calculate Harris-corrections to forces 
   (improved forces if not selfconsistent)
 use gradient corrections 
 use of overlap-Matrix (Vanderbilt PP)
 Gauss-broadening in eV      SIGMA  =   0.10


--------------------------------------------------------------------------------------------------------


  energy-cutoff  :      400.00
  volume of cell :     7089.27
      direct lattice vectors                 reciprocal lattice vectors
    15.900000000  0.000000000  0.000000000     0.062893082  0.036311338  0.000000000
    -7.950000000 13.769803920  0.000000000     0.000000000  0.072622675  0.000000000
     0.000000000  0.000000000 32.380000000     0.000000000  0.000000000  0.030883261

  length of vectors
    15.900000000 15.900000000 32.380000000     0.072622675  0.072622675  0.030883261


 
 k-points in units of 2pi/SCALE and weight: Gamma-point only                        
   0.00000000  0.00000000  0.00000000       1.000
 
 k-points in reciprocal lattice and weights: Gamma-point only                        
   0.00000000  0.00000000  0.00000000       1.000
 
 position of ions in fractional coordinates (direct lattice) 
   0.38749812  0.39775414  0.50081061
   0.34008887  0.43095625  0.47356413
   0.48847557  0.46833743  0.50168822
   0.50425372  0.54694278  0.47468457
   0.41140320  0.52314929  0.45714069
   0.39290210  0.30727123  0.39510545
   0.53395102  0.45382423  0.38216486
   0.43095365  0.40019277  0.37479037
   0.55896294  0.39476574  0.40646236
   0.47286163  0.30500936  0.41459700
   0.45220791  0.42122734  0.43869440
   0.39765155  0.56774795  0.43581976
   0.38983010  0.42422047  0.35629573
   0.31777035  0.24863276  0.39491758
   0.58394713  0.52721186  0.37162922
   0.63083757  0.41673784  0.41865236
   0.26345261  0.39141356  0.46545041
   0.35322846  0.32807900  0.51666215
   0.54369553  0.46303596  0.51945661
   0.57292650  0.61336897  0.46954195
   0.46837586  0.24609727  0.43334125
   0.60000000  0.60000000  0.65735022
   0.20000000  0.80000000  0.21911674
   0.20000000  0.60000000  0.65735022
   0.60000000  0.80000000  0.21911674
   0.20000000  0.60000000  0.21911674
   0.60000000  0.80000000  0.65735022
   0.20000000  0.40000000  0.21911674
   0.80000000  0.00000000  0.21911674
   0.20000000  0.20000000  0.65735022
   0.80000000  0.00000000  0.65735022
   0.20000000  0.20000000  0.21911674
   0.20000000  0.80000000  0.65735022
   0.20000000  0.40000000  0.65735022
   0.60000000  0.60000000  0.21911674
   0.40000000  0.60000000  0.21911674
   0.40000000  0.00000000  0.65735022
   0.60000000  0.40000000  0.65735022
   0.40000000  0.20000000  0.21911674
   0.60000000  0.40000000  0.21911674
   0.40000000  0.20000000  0.65735022
   0.40000000  0.40000000  0.21911674
   0.60000000  0.20000000  0.65735022
   0.40000000  0.40000000  0.65735022
   0.60000000  0.20000000  0.21911674
   0.40000000  0.80000000  0.65735022
   0.40000000  0.60000000  0.65735022
   0.60000000  0.00000000  0.65735022
   0.40000000  0.80000000  0.21911674
   0.60000000  0.00000000  0.21911674
   0.40000000  0.00000000  0.21911674
   0.80000000  0.20000000  0.21911674
   0.20000000  0.00000000  0.65735022
   0.20000000  0.00000000  0.21911674
   0.00000000  0.00000000  0.21911674
   0.80000000  0.80000000  0.65735022
   0.00000000  0.00000000  0.65735022
   0.80000000  0.80000000  0.21911674
   0.00000000  0.20000000  0.21911674
   0.00000000  0.20000000  0.65735022
   0.80000000  0.60000000  0.65735022
   0.00000000  0.40000000  0.21911674
   0.00000000  0.40000000  0.65735022
   0.00000000  0.60000000  0.21911674
   0.80000000  0.40000000  0.65735022
   0.00000000  0.60000000  0.65735022
   0.80000000  0.60000000  0.21911674
   0.80000000  0.40000000  0.21911674
   0.00000000  0.80000000  0.65735022
   0.00000000  0.80000000  0.21911674
   0.80000000  0.20000000  0.65735022
   0.93333333  0.06666667  0.16985794
   0.73333333  0.26666667  0.60809141
   0.73333333  0.26666667  0.70660902
   0.93333333  0.66666667  0.70660902
   0.93333333  0.66666667  0.60809141
   0.73333333  0.26666667  0.16985794
   0.73333333  0.26666667  0.26837554
   0.93333333  0.46666667  0.26837554
   0.73333333  0.06666667  0.60809141
   0.73333333  0.06666667  0.70660902
   0.93333333  0.06666667  0.70660902
   0.93333333  0.86666667  0.16985794
   0.73333333  0.06666667  0.16985794
   0.93333333  0.06666667  0.60809141
   0.73333333  0.06666667  0.26837554
   0.93333333  0.26666667  0.16985794
   0.93333333  0.26666667  0.70660902
   0.93333333  0.86666667  0.26837554
   0.73333333  0.46666667  0.26837554
   0.73333333  0.46666667  0.16985794
   0.73333333  0.86666667  0.16985794
   0.73333333  0.86666667  0.70660902
   0.73333333  0.86666667  0.26837554
   0.93333333  0.46666667  0.16985794
   0.73333333  0.86666667  0.60809141
   0.73333333  0.66666667  0.60809141
   0.73333333  0.66666667  0.70660902
   0.93333333  0.46666667  0.70660902
   0.73333333  0.66666667  0.16985794
   0.93333333  0.46666667  0.60809141
   0.73333333  0.66666667  0.26837554
   0.93333333  0.26666667  0.60809141
   0.93333333  0.26666667  0.26837554
   0.73333333  0.46666667  0.60809141
   0.73333333  0.46666667  0.70660902
   0.93333333  0.66666667  0.26837554
   0.93333333  0.06666667  0.26837554
   0.93333333  0.66666667  0.16985794
   0.53333333  0.86666667  0.60809141
   0.53333333  0.06666667  0.70660902
   0.53333333  0.86666667  0.16985794
   0.33333333  0.26666667  0.16985794
   0.33333333  0.26666667  0.26837554
   0.33333333  0.06666667  0.60809141
   0.33333333  0.06666667  0.70660902
   0.33333333  0.06666667  0.16985794
   0.33333333  0.06666667  0.26837554
   0.13333333  0.86666667  0.60809141
   0.13333333  0.86666667  0.70660902
   0.13333333  0.86666667  0.16985794
   0.13333333  0.86666667  0.26837554
   0.13333333  0.66666667  0.60809141
   0.13333333  0.66666667  0.70660902
   0.33333333  0.26666667  0.70660902
   0.13333333  0.66666667  0.16985794
   0.13333333  0.46666667  0.60809141
   0.13333333  0.46666667  0.70660902
   0.13333333  0.46666667  0.16985794
   0.13333333  0.46666667  0.26837554
   0.13333333  0.26666667  0.60809141
   0.13333333  0.26666667  0.70660902
   0.13333333  0.26666667  0.16985794
   0.13333333  0.26666667  0.26837554
   0.13333333  0.06666667  0.60809141
   0.13333333  0.06666667  0.70660902
   0.13333333  0.06666667  0.16985794
   0.13333333  0.06666667  0.26837554
   0.13333333  0.66666667  0.26837554
   0.33333333  0.26666667  0.60809141
   0.33333333  0.46666667  0.26837554
   0.33333333  0.46666667  0.16985794
   0.53333333  0.86666667  0.26837554
   0.53333333  0.66666667  0.60809141
   0.53333333  0.66666667  0.70660902
   0.53333333  0.66666667  0.16985794
   0.53333333  0.66666667  0.26837554
   0.53333333  0.46666667  0.60809141
   0.53333333  0.46666667  0.70660902
   0.53333333  0.46666667  0.16985794
   0.53333333  0.46666667  0.26837554
   0.53333333  0.26666667  0.60809141
   0.53333333  0.26666667  0.70660902
   0.53333333  0.26666667  0.16985794
   0.53333333  0.26666667  0.26837554
   0.53333333  0.06666667  0.60809141
   0.93333333  0.86666667  0.70660902
   0.53333333  0.06666667  0.16985794
   0.53333333  0.06666667  0.26837554
   0.33333333  0.86666667  0.60809141
   0.33333333  0.86666667  0.70660902
   0.33333333  0.86666667  0.16985794
   0.33333333  0.86666667  0.26837554
   0.33333333  0.66666667  0.60809141
   0.33333333  0.66666667  0.70660902
   0.33333333  0.66666667  0.16985794
   0.33333333  0.66666667  0.26837554
   0.33333333  0.46666667  0.60809141
   0.33333333  0.46666667  0.70660902
   0.53333333  0.86666667  0.70660902
   0.93333333  0.86666667  0.60809141
 
 position of ions in cartesian coordinates  (Angst):
   2.99907475  5.47699650 16.21624769
   1.98131087  5.93418300 15.33400644
   4.04347904  6.44891454 16.24466460
   3.66943910  7.53129479 15.37028646
   2.38227403  7.20366319 14.80221552
   3.80433715  4.23106459 12.79351439
   4.88191849  6.24907070 12.37449803
   3.67063049  5.51057598 12.13571223
   5.74912313  5.43584681 13.16125137
   5.09367552  4.19991907 13.42465079
   3.84134848  5.80021790 14.20492480
   1.80906347  7.81777802 14.11184372
   2.82574584  5.84143267 11.53685560
   3.07591817  3.42362433 12.78743130
   5.09342509  7.25960399 12.03335402
   6.71725155  5.73839835 13.55596339
   1.07715865  5.38968798 15.07128428
   3.00810452  4.51758349 16.72952036
   4.96362297  6.37591439 16.82000501
   4.23324802  8.44597039 15.20376818
   5.49070283  3.38871116 14.03158963
   4.77000000  8.26188235 21.28500000
  -3.18000000 11.01584314  7.09500000
  -1.59000000  8.26188235 21.28500000
   3.18000000 11.01584314  7.09500000
  -1.59000000  8.26188235  7.09500000
   3.18000000 11.01584314 21.28500000
   0.00000000  5.50792157  7.09500000
  12.72000000  0.00000000  7.09500000
   1.59000000  2.75396078 21.28500000
  12.72000000  0.00000000 21.28500000
   1.59000000  2.75396078  7.09500000
  -3.18000000 11.01584314 21.28500000
   0.00000000  5.50792157 21.28500000
   4.77000000  8.26188235  7.09500000
   1.59000000  8.26188235  7.09500000
   6.36000000  0.00000000 21.28500000
   6.36000000  5.50792157 21.28500000
   4.77000000  2.75396078  7.09500000
   6.36000000  5.50792157  7.09500000
   4.77000000  2.75396078 21.28500000
   3.18000000  5.50792157  7.09500000
   7.95000000  2.75396078 21.28500000
   3.18000000  5.50792157 21.28500000
   7.95000000  2.75396078  7.09500000
  -0.00000000 11.01584314 21.28500000
   1.59000000  8.26188235 21.28500000
   9.54000000  0.00000000 21.28500000
  -0.00000000 11.01584314  7.09500000
   9.54000000  0.00000000  7.09500000
   6.36000000  0.00000000  7.09500000
  11.13000000  2.75396078  7.09500000
   3.18000000  0.00000000 21.28500000
   3.18000000  0.00000000  7.09500000
   0.00000000  0.00000000  7.09500000
   6.36000000 11.01584314 21.28500000
   0.00000000  0.00000000 21.28500000
   6.36000000 11.01584314  7.09500000
  -1.59000000  2.75396078  7.09500000
  -1.59000000  2.75396078 21.28500000
   7.95000000  8.26188235 21.28500000
  -3.18000000  5.50792157  7.09500000
  -3.18000000  5.50792157 21.28500000
  -4.77000000  8.26188235  7.09500000
   9.54000000  5.50792157 21.28500000
  -4.77000000  8.26188235 21.28500000
   7.95000000  8.26188235  7.09500000
   9.54000000  5.50792157  7.09500000
  -6.36000000 11.01584314 21.28500000
  -6.36000000 11.01584314  7.09500000
  11.13000000  2.75396078 21.28500000
  14.31000000  0.91798693  5.50000000
   9.54000000  3.67194771 19.69000000
   9.54000000  3.67194771 22.88000000
   9.54000000  9.17986928 22.88000000
   9.54000000  9.17986928 19.69000000
   9.54000000  3.67194771  5.50000000
   9.54000000  3.67194771  8.69000000
  11.13000000  6.42590850  8.69000000
  11.13000000  0.91798693 19.69000000
  11.13000000  0.91798693 22.88000000
  14.31000000  0.91798693 22.88000000
   7.95000000 11.93383006  5.50000000
  11.13000000  0.91798693  5.50000000
  14.31000000  0.91798693 19.69000000
  11.13000000  0.91798693  8.69000000
  12.72000000  3.67194771  5.50000000
  12.72000000  3.67194771 22.88000000
   7.95000000 11.93383006  8.69000000
   7.95000000  6.42590850  8.69000000
   7.95000000  6.42590850  5.50000000
   4.77000000 11.93383006  5.50000000
   4.77000000 11.93383006 22.88000000
   4.77000000 11.93383006  8.69000000
  11.13000000  6.42590850  5.50000000
   4.77000000 11.93383006 19.69000000
   6.36000000  9.17986928 19.69000000
   6.36000000  9.17986928 22.88000000
  11.13000000  6.42590850 22.88000000
   6.36000000  9.17986928  5.50000000
  11.13000000  6.42590850 19.69000000
   6.36000000  9.17986928  8.69000000
  12.72000000  3.67194771 19.69000000
  12.72000000  3.67194771  8.69000000
   7.95000000  6.42590850 19.69000000
   7.95000000  6.42590850 22.88000000
   9.54000000  9.17986928  8.69000000
  14.31000000  0.91798693  8.69000000
   9.54000000  9.17986928  5.50000000
   1.59000000 11.93383006 19.69000000
   7.95000000  0.91798693 22.88000000
   1.59000000 11.93383006  5.50000000
   3.18000000  3.67194771  5.50000000
   3.18000000  3.67194771  8.69000000
   4.77000000  0.91798693 19.69000000
   4.77000000  0.91798693 22.88000000
   4.77000000  0.91798693  5.50000000
   4.77000000  0.91798693  8.69000000
  -4.77000000 11.93383006 19.69000000
  -4.77000000 11.93383006 22.88000000
  -4.77000000 11.93383006  5.50000000
  -4.77000000 11.93383006  8.69000000
  -3.18000000  9.17986928 19.69000000
  -3.18000000  9.17986928 22.88000000
   3.18000000  3.67194771 22.88000000
  -3.18000000  9.17986928  5.50000000
  -1.59000000  6.42590850 19.69000000
  -1.59000000  6.42590850 22.88000000
  -1.59000000  6.42590850  5.50000000
  -1.59000000  6.42590850  8.69000000
  -0.00000000  3.67194771 19.69000000
  -0.00000000  3.67194771 22.88000000
  -0.00000000  3.67194771  5.50000000
  -0.00000000  3.67194771  8.69000000
   1.59000000  0.91798693 19.69000000
   1.59000000  0.91798693 22.88000000
   1.59000000  0.91798693  5.50000000
   1.59000000  0.91798693  8.69000000
  -3.18000000  9.17986928  8.69000000
   3.18000000  3.67194771 19.69000000
   1.59000000  6.42590850  8.69000000
   1.59000000  6.42590850  5.50000000
   1.59000000 11.93383006  8.69000000
   3.18000000  9.17986928 19.69000000
   3.18000000  9.17986928 22.88000000
   3.18000000  9.17986928  5.50000000
   3.18000000  9.17986928  8.69000000
   4.77000000  6.42590850 19.69000000
   4.77000000  6.42590850 22.88000000
   4.77000000  6.42590850  5.50000000
   4.77000000  6.42590850  8.69000000
   6.36000000  3.67194771 19.69000000
   6.36000000  3.67194771 22.88000000
   6.36000000  3.67194771  5.50000000
   6.36000000  3.67194771  8.69000000
   7.95000000  0.91798693 19.69000000
   7.95000000 11.93383006 22.88000000
   7.95000000  0.91798693  5.50000000
   7.95000000  0.91798693  8.69000000
  -1.59000000 11.93383006 19.69000000
  -1.59000000 11.93383006 22.88000000
  -1.59000000 11.93383006  5.50000000
  -1.59000000 11.93383006  8.69000000
   0.00000000  9.17986928 19.69000000
   0.00000000  9.17986928 22.88000000
   0.00000000  9.17986928  5.50000000
   0.00000000  9.17986928  8.69000000
   1.59000000  6.42590850 19.69000000
   1.59000000  6.42590850 22.88000000
   1.59000000 11.93383006 22.88000000
   7.95000000 11.93383006 19.69000000
 


--------------------------------------------------------------------------------------------------------


 use parallel FFT for orbitals z direction half grid
 k-point  1 :   0.0000 0.0000 0.0000  plane waves:   64319

 maximum and minimum number of plane-waves per node :     16081    16079

 maximum number of plane-waves:     64319
 maximum index in each direction: 
   IXMAX=   25   IYMAX=   25   IZMAX=   52
   IXMIN=  -25   IYMIN=  -25   IZMIN=    0


 real space projection operators:
  total allocation   :      76635.53 KBytes
  max/ min on nodes  :      19171.71      19145.52


 parallel 3D FFT for wavefunctions:
    minimum data exchange during FFTs selected (reduces bandwidth)
 parallel 3D FFT for charge:
    minimum data exchange during FFTs selected (reduces bandwidth)


 total amount of memory used by VASP MPI-rank0   156595. kBytes
=======================================================================

   base      :      30000. kBytes
   nonlr-proj:      23542. kBytes
   fftplans  :      28265. kBytes
   grid      :      62703. kBytes
   one-center:        334. kBytes
   wavefun   :      11751. kBytes
 
     INWAV:  cpu time    0.0000: real time    0.0000
 Broyden mixing: mesh for mixing (old mesh)
   NGX = 51   NGY = 51   NGZ =105
  (NGX  =216   NGY  =216   NGZ  =432)
  gives a total of 273105 points

 initial charge density was supplied:
 charge density of overlapping atoms calculated
 number of electron     956.0000000 magnetization 
 keeping initial charge density in first step


--------------------------------------------------------------------------------------------------------


 Maximum index for non-local projection operator         1630
 Maximum index for augmentation-charges         1579 (set IRDMAX)


--------------------------------------------------------------------------------------------------------


 First call to EWALD:  gamma=   0.092
 Maximum number of real-space cells 4x 4x 2
 Maximum number of reciprocal cells 2x 2x 4

    FEWALD:  cpu time    0.0069: real time    0.0069


--------------------------------------- Iteration      1(   1)  ---------------------------------------


    POTLOK:  cpu time    0.3887: real time    0.7049
    SETDIJ:  cpu time    0.0166: real time    0.0167
     EDDAV:  cpu time   11.0447: real time   11.1998
       DOS:  cpu time    0.0006: real time    0.0006
    --------------------------------------------
      LOOP:  cpu time   11.4506: real time   11.9220

 eigenvalue-minimisations  :  1196
 total energy-change (2. order) : 0.7691030E+04  (-0.3636596E+05)
 number of electron     956.0000000 magnetization 
 augmentation part      956.0000000 magnetization 

 Free energy of the ion-electron system (eV)
  ---------------------------------------------------
  alpha Z        PSCENC =      1150.89500911
  Ewald energy   TEWEN  =     87566.18791105
  -Hartree energ DENC   =   -125539.52533227
  -exchange      EXHF   =         0.00000000
  -V(xc)+E(xc)   XCENC  =     -1684.38781751
  PAW double counting   =     36411.78182824   -32520.45026120
  entropy T*S    EENTRO =        -0.28680078
  eigenvalues    EBANDS =      1876.27522836
  atomic energy  EATOM  =     40430.53995508
  Solvation  Ediel_sol  =         0.00000000
  ---------------------------------------------------
  free energy    TOTEN  =      7691.02972006 eV

  energy without entropy =     7691.31652084  energy(sigma->0) =     7691.17312045


--------------------------------------------------------------------------------------------------------




--------------------------------------- Iteration      1(   2)  ---------------------------------------


     EDDAV:  cpu time   13.5361: real time   13.7247
       DOS:  cpu time    0.0005: real time    0.0005
    --------------------------------------------
      LOOP:  cpu time   13.5366: real time   13.7253

 eigenvalue-minimisations  :  1586
 total energy-change (2. order) :-0.7937072E+04  (-0.7685987E+04)
 number of electron     956.0000000 magnetization 
 augmentation part      956.0000000 magnetization 

 Free energy of the ion-electron system (eV)
  ---------------------------------------------------
  alpha Z        PSCENC =      1150.89500911
  Ewald energy   TEWEN  =     87566.18791105
  -Hartree energ DENC   =   -125539.52533227
  -exchange      EXHF   =         0.00000000
  -V(xc)+E(xc)   XCENC  =     -1684.38781751
  PAW double counting   =     36411.78182824   -32520.45026120
  entropy T*S    EENTRO =        -0.11044766
  eigenvalues    EBANDS =     -6060.97355792
  atomic energy  EATOM  =     40430.53995508
  Solvation  Ediel_sol  =         0.00000000
  ---------------------------------------------------
  free energy    TOTEN  =      -246.04271310 eV

  energy without entropy =     -245.93226544  energy(sigma->0) =     -245.98748927


--------------------------------------------------------------------------------------------------------




--------------------------------------- Iteration      1(   3)  ---------------------------------------


     EDDAV:  cpu time   11.9458: real time   12.6423
       DOS:  cpu time    0.0004: real time    0.0004
    --------------------------------------------
      LOOP:  cpu time   11.9462: real time   12.6426

 eigenvalue-minimisations  :  1391
 total energy-change (2. order) :-0.1016140E+04  (-0.1001425E+04)
 number of electron     956.0000000 magnetization 
 augmentation part      956.0000000 magnetization 

 Free energy of the ion-electron system (eV)
  ---------------------------------------------------
  alpha Z        PSCENC =      1150.89500911
  Ewald energy   TEWEN  =     87566.18791105
  -Hartree energ DENC   =   -125539.52533227
  -exchange      EXHF   =         0.00000000
  -V(xc)+E(xc)   XCENC  =     -1684.38781751
  PAW double counting   =     36411.78182824   -32520.45026120
  entropy T*S    EENTRO =        -0.00000008
  eigenvalues    EBANDS =     -7077.22393001
  atomic energy  EATOM  =     40430.53995508
  Solvation  Ediel_sol  =         0.00000000
  ---------------------------------------------------
  free energy    TOTEN  =     -1262.18263761 eV

  energy without entropy =    -1262.18263753  energy(sigma->0) =    -1262.18263757


--------------------------------------------------------------------------------------------------------




--------------------------------------- Iteration      1(   4)  ---------------------------------------


     EDDAV:  cpu time   14.9987: real time   15.6162
       DOS:  cpu time    0.0003: real time    0.0003
    --------------------------------------------
      LOOP:  cpu time   14.9991: real time   15.6165

 eigenvalue-minimisations  :  1755
 total energy-change (2. order) :-0.5878269E+02  (-0.5843633E+02)
 number of electron     956.0000000 magnetization 
 augmentation part      956.0000000 magnetization 

 Free energy of the ion-electron system (eV)
  ---------------------------------------------------
  alpha Z        PSCENC =      1150.89500911
  Ewald energy   TEWEN  =     87566.18791105
  -Hartree energ DENC   =   -125539.52533227
  -exchange      EXHF   =         0.00000000
  -V(xc)+E(xc)   XCENC  =     -1684.38781751
  PAW double counting   =     36411.78182824   -32520.45026120
  entropy T*S    EENTRO =        -0.00000000
  eigenvalues    EBANDS =     -7136.00662468
  atomic energy  EATOM  =     40430.53995508
  Solvation  Ediel_sol  =         0.00000000
  ---------------------------------------------------
  free energy    TOTEN  =     -1320.96533219 eV

  energy without entropy =    -1320.96533219  energy(sigma->0) =    -1320.96533219


--------------------------------------------------------------------------------------------------------




--------------------------------------- Iteration      1(   5)  ---------------------------------------


     EDDAV:  cpu time   14.2893: real time   14.9055
       DOS:  cpu time    0.0003: real time    0.0003
    CHARGE:  cpu time    1.0313: real time    1.0389
    MIXING:  cpu time    0.0096: real time    0.0223
    --------------------------------------------
      LOOP:  cpu time   15.3306: real time   15.9670

 eigenvalue-minimisations  :  1729
 total energy-change (2. order) :-0.2107451E+01  (-0.2095689E+01)
 number of electron     955.9999991 magnetization 
 augmentation part      -44.8649677 magnetization 

 Broyden mixing:
  rms(total) = 0.16961E+02    rms(broyden)= 0.16961E+02
  rms(prec ) = 0.17064E+02
  weight for this iteration     100.00

 Free energy of the ion-electron system (eV)
  ---------------------------------------------------
  alpha Z        PSCENC =      1150.89500911
  Ewald energy   TEWEN  =     87566.18791105
  -Hartree energ DENC   =   -125539.52533227
  -exchange      EXHF   =         0.00000000
  -V(xc)+E(xc)   XCENC  =     -1684.38781751
  PAW double counting   =     36411.78182824   -32520.45026120
  entropy T*S    EENTRO =        -0.00000000
  eigenvalues    EBANDS =     -7138.11407521
  atomic energy  EATOM  =     40430.53995508
  Solvation  Ediel_sol  =         0.00000000
  ---------------------------------------------------
  free energy    TOTEN  =     -1323.07278273 eV

  energy without entropy =    -1323.07278273  energy(sigma->0) =    -1323.07278273


--------------------------------------------------------------------------------------------------------




--------------------------------------- Iteration      1(   6)  ---------------------------------------


    POTLOK:  cpu time    0.3805: real time    0.5919
    SETDIJ:  cpu time    0.0203: real time    0.0204
     EDDAV:  cpu time   13.4513: real time   13.6034
       DOS:  cpu time    0.0006: real time    0.0006
    CHARGE:  cpu time    1.0319: real time    1.0395
    MIXING:  cpu time    0.0098: real time    0.0385
    --------------------------------------------
      LOOP:  cpu time   14.8944: real time   15.2943

 eigenvalue-minimisations  :  1599
 total energy-change (2. order) : 0.4716238E+02  (-0.9346824E+02)
 number of electron     955.9999986 magnetization 
 augmentation part      -10.4200444 magnetization 

 Broyden mixing:
  rms(total) = 0.92600E+01    rms(broyden)= 0.92597E+01
  rms(prec ) = 0.94369E+01
  weight for this iteration     100.00

 eigenvalues of (default mixing * dielectric matrix)
  average eigenvalue GAMMA=   0.9537
  0.9537

 Free energy of the ion-electron system (eV)
  ---------------------------------------------------
  alpha Z        PSCENC =      1150.89500911
  Ewald energy   TEWEN  =     87566.18791105
  -Hartree energ DENC   =   -125553.80062887
  -exchange      EXHF   =         0.00000000
  -V(xc)+E(xc)   XCENC  =     -1635.00016440
  PAW double counting   =     51857.54222168   -48006.02787367
  entropy T*S    EENTRO =        -0.15264140
  eigenvalues    EBANDS =     -7086.09419226
  atomic energy  EATOM  =     40430.53995508
  Solvation  Ediel_sol  =         0.00000000
  ---------------------------------------------------
  free energy    TOTEN  =     -1275.91040368 eV

  energy without entropy =    -1275.75776228  energy(sigma->0) =    -1275.83408298


--------------------------------------------------------------------------------------------------------




--------------------------------------- Iteration      1(   7)  ---------------------------------------


    POTLOK:  cpu time    0.4030: real time    0.8173
    SETDIJ:  cpu time    0.0202: real time    0.0203
     EDDAV:  cpu time   14.6285: real time   14.7469
       DOS:  cpu time    0.0006: real time    0.0006
    CHARGE:  cpu time    1.1411: real time    1.1497
    MIXING:  cpu time    0.0098: real time    0.0099
    --------------------------------------------
      LOOP:  cpu time   16.2032: real time   16.7447

 eigenvalue-minimisations  :  1781
 total energy-change (2. order) :-0.2069959E+02  (-0.1178089E+03)
 number of electron     955.9999992 magnetization 
 augmentation part      -30.0329848 magnetization 

 Broyden mixing:
  rms(total) = 0.55052E+01    rms(broyden)= 0.55051E+01
  rms(prec ) = 0.56895E+01
  weight for this iteration     100.00

 eigenvalues of (default mixing * dielectric matrix)
  average eigenvalue GAMMA=   1.1126
  1.6895  0.5358

 Free energy of the ion-electron system (eV)
  ---------------------------------------------------
  alpha Z        PSCENC =      1150.89500911
  Ewald energy   TEWEN  =     87566.18791105
  -Hartree energ DENC   =   -125948.27020166
  -exchange      EXHF   =         0.00000000
  -V(xc)+E(xc)   XCENC  =     -1644.46566979
  PAW double counting   =     64590.75143469   -60771.50537613
  entropy T*S    EENTRO =        -0.43276332
  eigenvalues    EBANDS =     -6670.31029437
  atomic energy  EATOM  =     40430.53995508
  Solvation  Ediel_sol  =         0.00000000
  ---------------------------------------------------
  free energy    TOTEN  =     -1296.60999535 eV

  energy without entropy =    -1296.17723203  energy(sigma->0) =    -1296.39361369


--------------------------------------------------------------------------------------------------------




--------------------------------------- Iteration      1(   8)  ---------------------------------------


    POTLOK:  cpu time    1.1598: real time    1.8276
    SETDIJ:  cpu time    0.0216: real time    0.0216
     EDDAV:  cpu time   12.4095: real time   12.5074
       DOS:  cpu time    0.0006: real time    0.0006
    CHARGE:  cpu time    1.1245: real time    1.1328
    MIXING:  cpu time    0.0104: real time    0.0105
    --------------------------------------------
      LOOP:  cpu time   14.7264: real time   15.5005

 eigenvalue-minimisations  :  1456
 total energy-change (2. order) : 0.6463076E+02  (-0.6266982E+01)
 number of electron     955.9999992 magnetization 
 augmentation part      -30.0701028 magnetization 

 Broyden mixing:
  rms(total) = 0.31295E+01    rms(broyden)= 0.31295E+01
  rms(prec ) = 0.32563E+01
  weight for this iteration     100.00

 eigenvalues of (default mixing * dielectric matrix)
  average eigenvalue GAMMA=   1.1413
  2.0795  0.6722  0.6722

 Free energy of the ion-electron system (eV)
  ---------------------------------------------------
  alpha Z        PSCENC =      1150.89500911
  Ewald energy   TEWEN  =     87566.18791105
  -Hartree energ DENC   =   -125986.48439942
  -exchange      EXHF   =         0.00000000
  -V(xc)+E(xc)   XCENC  =     -1633.96373966
  PAW double counting   =     76778.73753732   -72968.45642766
  entropy T*S    EENTRO =        -0.24655424
  eigenvalues    EBANDS =     -6569.18852882
  atomic energy  EATOM  =     40430.53995508
  Solvation  Ediel_sol  =         0.00000000
  ---------------------------------------------------
  free energy    TOTEN  =     -1231.97923724 eV

  energy without entropy =    -1231.73268300  energy(sigma->0) =    -1231.85596012


--------------------------------------------------------------------------------------------------------




--------------------------------------- Iteration      1(   9)  ---------------------------------------


    POTLOK:  cpu time    0.3763: real time    2.8741
    SETDIJ:  cpu time    0.0207: real time    0.0208
     EDDAV:  cpu time   14.8228: real time   14.9397
       DOS:  cpu time    0.0006: real time    0.0006
    CHARGE:  cpu time    1.0220: real time    1.0293
    MIXING:  cpu time    0.0103: real time    0.0104
    --------------------------------------------
      LOOP:  cpu time   16.2528: real time   18.8749

 eigenvalue-minimisations  :  1768
 total energy-change (2. order) :-0.6515110E+01  (-0.1900519E+02)
 number of electron     955.9999987 magnetization 
 augmentation part      -20.8505900 magnetization 

 Broyden mixing:
  rms(total) = 0.37281E+01    rms(broyden)= 0.37279E+01
  rms(prec ) = 0.40078E+01
  weight for this iteration     100.00

 eigenvalues of (default mixing * dielectric matrix)
  average eigenvalue GAMMA=   0.9539
  2.1504  0.6526  0.5062  0.5062

 Free energy of the ion-electron system (eV)
  ---------------------------------------------------
  alpha Z        PSCENC =      1150.89500911
  Ewald energy   TEWEN  =     87566.18791105
  -Hartree energ DENC   =   -126036.61931533
  -exchange      EXHF   =         0.00000000
  -V(xc)+E(xc)   XCENC  =     -1623.87545885
  PAW double counting   =     81947.33304648   -78138.91660364
  entropy T*S    EENTRO =        -0.20690580
  eigenvalues    EBANDS =     -6533.83198505
  atomic energy  EATOM  =     40430.53995508
  Solvation  Ediel_sol  =         0.00000000
  ---------------------------------------------------
  free energy    TOTEN  =     -1238.49434696 eV

[...]
   -.295E+01 -.370E+01 0.715E+03   0.295E+01 0.370E+01 -.719E+03   -.262E-02 -.403E-03 0.510E+01   0.847E-03 0.126E-02 -.163E-01
   -.174E+02 -.228E+02 -.175E+03   0.175E+02 0.228E+02 0.180E+03   -.123E-01 -.143E-01 -.523E+01   0.812E-02 0.581E-02 -.825E-01
   -.357E+02 0.303E+02 0.243E+03   0.357E+02 -.303E+02 -.247E+03   0.497E-02 -.195E-02 0.504E+01   0.135E-01 -.122E-01 0.663E-01
   -.804E+01 0.675E+01 -.704E+03   0.804E+01 -.675E+01 0.708E+03   -.378E-02 -.180E-02 -.510E+01   0.223E-02 -.241E-02 0.124E-01
   -.755E+01 0.645E+01 0.707E+03   0.755E+01 -.645E+01 -.712E+03   -.197E-02 0.115E-02 0.510E+01   0.269E-02 -.208E-02 -.135E-01
   -.379E+02 0.325E+02 -.224E+03   0.379E+02 -.325E+02 0.229E+03   -.397E-02 0.412E-02 -.514E+01   0.137E-01 -.114E-01 -.628E-01
   -.119E+02 0.115E+02 0.284E+03   0.119E+02 -.115E+02 -.289E+03   -.166E-02 -.711E-03 0.508E+01   0.592E-02 -.580E-02 0.449E-01
   -.194E+01 -.153E+01 -.691E+03   0.193E+01 0.153E+01 0.696E+03   -.131E-03 0.116E-02 -.510E+01   0.152E-03 0.664E-03 0.698E-02
   -.443E+01 0.482E+01 0.694E+03   0.443E+01 -.481E+01 -.699E+03   -.350E-03 -.975E-03 0.510E+01   0.165E-02 -.190E-02 -.887E-02
   -.162E+02 0.180E+02 -.280E+03   0.162E+02 -.179E+02 0.285E+03   -.519E-03 -.246E-03 -.509E+01   0.582E-02 -.636E-02 -.430E-01
   0.540E+01 -.116E+00 0.289E+03   -.540E+01 0.115E+00 -.293E+03   -.112E-02 0.260E-02 0.508E+01   -.158E-02 -.116E-02 0.417E-01
   0.168E+01 -.564E-01 -.691E+03   -.168E+01 0.556E-01 0.695E+03   0.113E-02 0.354E-03 -.510E+01   -.588E-03 -.116E-03 0.705E-02
   0.822E+00 0.177E+01 0.691E+03   -.822E+00 -.177E+01 -.696E+03   0.510E-04 -.101E-02 0.510E+01   -.256E-03 -.595E-03 -.770E-02
   0.262E+01 0.555E+01 -.289E+03   -.262E+01 -.555E+01 0.293E+03   -.705E-03 -.199E-02 -.508E+01   -.125E-02 -.148E-02 -.404E-01
   0.302E+02 -.263E+02 0.264E+03   -.301E+02 0.263E+02 -.268E+03   -.744E-02 0.635E-02 0.510E+01   -.998E-02 0.873E-02 0.502E-01
   0.743E+01 -.640E+01 -.699E+03   -.743E+01 0.640E+01 0.703E+03   -.247E-03 -.735E-03 -.510E+01   -.255E-02 0.240E-02 0.949E-02
   0.640E+01 -.531E+01 0.696E+03   -.640E+01 0.530E+01 -.701E+03   0.204E-03 -.132E-03 0.510E+01   -.206E-02 0.197E-02 -.995E-02
   0.242E+02 -.204E+02 -.272E+03   -.242E+02 0.204E+02 0.277E+03   -.328E-02 0.165E-02 -.506E+01   -.102E-01 0.903E-02 -.492E-01
   0.449E+02 -.956E+01 0.196E+03   -.449E+02 0.958E+01 -.201E+03   0.261E-01 -.221E-01 0.519E+01   -.166E-01 0.462E-02 0.744E-01
   0.801E+01 -.158E+01 -.712E+03   -.802E+01 0.158E+01 0.716E+03   0.501E-02 -.369E-03 -.509E+01   -.210E-02 -.251E-03 0.139E-01
   0.157E+01 -.606E+01 -.693E+03   -.157E+01 0.606E+01 0.698E+03   -.153E-03 -.133E-02 -.510E+01   -.560E-03 0.244E-02 0.773E-02
   -.626E+01 -.558E+01 0.288E+03   0.626E+01 0.558E+01 -.293E+03   0.140E-02 0.151E-02 0.507E+01   0.195E-02 0.242E-02 0.431E-01
 -----------------------------------------------------------------------------------------------
   -.137E+01 0.173E+01 -.165E+01   0.243E-12 -.551E-12 -.455E-11   0.143E+01 -.181E+01 0.168E+01   -.586E-01 0.739E-01 -.238E-01
 
 
 POSITION                                       TOTAL-FORCE (eV/Angst)
 -----------------------------------------------------------------------------------
      2.99700      5.47874     16.21625         0.001148      0.005211      0.025746
      1.97935      5.93469     15.33401         0.014558     -0.004150      0.012522
      4.04012      6.45103     16.24466         0.010150     -0.001370     -0.030161
      3.66597      7.53228     15.37029        -0.004372     -0.007599      0.013736
      2.37941      7.20416     14.80222         0.005826     -0.012163      0.014482
      3.80593      4.23170     12.79351        -0.000824      0.005579     -0.011023
      4.88491      6.24750     12.37450         0.003959     -0.009032      0.013952
      3.67288      5.51093     12.13571        -0.004866      0.003357     -0.008184
      5.75120      5.43353     13.16125        -0.005407      0.006606     -0.009809
      5.09489      4.19885     13.42465        -0.009945      0.009251     -0.032892
      3.84084      5.80032     14.20492         0.000200      0.007021     -0.020890
      1.80642      7.81751     14.11184        -0.010008      0.002166     -0.017026
      2.82736      5.84374     11.53686         0.008822     -0.000560     -0.008878
      3.07587      3.42637     12.78743        -0.009129     -0.007621     -0.006595
      5.09516      7.25826     12.03335         0.011264      0.008097     -0.009323
      6.71915      5.73543     13.55596         0.001966     -0.007844     -0.003671
      1.07674      5.38814     15.07128        -0.011876     -0.003253     -0.000793
      3.01033      4.51957     16.72952        -0.004057     -0.009066      0.024225
      4.95972      6.37656     16.82001        -0.002624      0.009196     -0.023104
      4.23179      8.44543     15.20377        -0.006396      0.009974     -0.009016
      5.49002      3.38731     14.03159        -0.000982     -0.003509      0.001587
      4.76978      8.26137     21.28500         0.001202      0.002193     -0.006465
     -3.18000     11.01584      7.09500        -0.000703     -0.000267      0.002836
     -1.58959      8.26195     21.28500         0.000352      0.000210     -0.002119
      3.18000     11.01584      7.09500         0.001566      0.004890      0.001888
     -1.59000      8.26188      7.09500         0.001632     -0.000221      0.003463
      3.18023     11.01542     21.28500        -0.000571      0.000901      0.002294
      0.00000      5.50792      7.09500        -0.003528     -0.002983      0.002229
     12.72000      0.00000      7.09500        -0.001614      0.000332      0.002830
      1.58976      2.75393     21.28500         0.001105      0.000480     -0.003559
     12.72003     -0.00009     21.28500         0.000379     -0.000146     -0.001207
      1.59000      2.75396      7.09500         0.003709      0.005196     -0.004088
     -3.18009     11.01592     21.28500         0.000048     -0.000216     -0.001396
      0.00090      5.50810     21.28500        -0.002451     -0.000941      0.005722
      4.77000      8.26188      7.09500        -0.002255     -0.012791     -0.009666
      1.59000      8.26188      7.09500        -0.000755      0.001907      0.003310
      6.35978     -0.00010     21.28500         0.001145      0.000058     -0.003183
      6.35941      5.50823     21.28500         0.003820     -0.001810      0.015971
      4.77000      2.75396      7.09500        -0.000554      0.007493      0.007590
      6.36000      5.50792      7.09500        -0.008784     -0.001164      0.006374
      4.76960      2.75376     21.28500         0.001119      0.001927     -0.000834
      3.18000      5.50792      7.09500         0.010442      0.000758      0.013601
      7.95034      2.75404     21.28500        -0.001980     -0.001963     -0.003002
      3.18033      5.50851     21.28500        -0.000668     -0.003481     -0.030015
      7.95000      2.75396      7.09500        -0.001855      0.002380     -0.000365
      0.00017     11.01550     21.28500        -0.000314     -0.000353     -0.001759
      1.59051      8.26129     21.28500        -0.000170      0.001659      0.004895
      9.54049     -0.00028     21.28500        -0.001157      0.000482     -0.002055
     -0.00000     11.01584      7.09500        -0.000072     -0.000069      0.003085
      9.54000      0.00000      7.09500        -0.001731     -0.000907     -0.000411
      6.36000      0.00000      7.09500         0.001672     -0.002517     -0.000119
     11.13000      2.75396      7.09500         0.002164     -0.000121      0.003322
      3.17992      0.00012     21.28500        -0.000151     -0.000676     -0.000507
      3.18000      0.00000      7.09500         0.002256     -0.000711      0.002736
      0.00000      0.00000      7.09500        -0.000903      0.000394     -0.006490
      6.35985     11.01601     21.28500         0.000684     -0.000654     -0.002071
     -0.00020     -0.00003     21.28500        -0.000000      0.000311     -0.007754
      6.36000     11.01584      7.09500        -0.002692      0.002526      0.001631
     -1.59000      2.75396      7.09500        -0.003007      0.000085      0.001974
     -1.58988      2.75397     21.28500         0.000390     -0.000472     -0.001110
      7.94984      8.26235     21.28500        -0.001325     -0.001885     -0.001127
     -3.18000      5.50792      7.09500        -0.000823      0.000653      0.000599
     -3.17935      5.50760     21.28500        -0.001698      0.001289     -0.002018
     -4.77000      8.26188      7.09500         0.001853     -0.000817      0.000429
      9.53998      5.50762     21.28500         0.001599      0.002656     -0.003741
     -4.77017      8.26224     21.28500         0.000818     -0.001280     -0.001988
      7.95000      8.26188      7.09500         0.001238     -0.001196      0.005007
      9.54000      5.50792      7.09500         0.001681     -0.000195      0.000713
     -6.36013     11.01596     21.28500         0.000555      0.000118     -0.000589
     -6.36000     11.01584      7.09500         0.001502     -0.001246      0.002240
     11.13031      2.75371     21.28500        -0.000082      0.000368     -0.002820
     14.31000      0.91799      5.50000         0.000034     -0.000013      0.587851
      9.54038      3.67173     19.69000        -0.001142      0.000845      0.587433
      9.54024      3.67181     22.88000        -0.000468      0.000380     -0.588107
      9.53978      9.18009     22.88000         0.000492     -0.000217     -0.586090
      9.53991      9.18020     19.69000         0.000037     -0.000614      0.586967
      9.54000      3.67195      5.50000        -0.000326      0.000534      0.588101
      9.54000      3.67195      8.69000        -0.003138     -0.000127     -0.586036
     11.13000      6.42591      8.69000        -0.002039     -0.000433     -0.587340
     11.13031      0.91775     19.69000        -0.000689     -0.000214      0.585898
     11.13029      0.91786     22.88000        -0.000631     -0.000495     -0.585458
     14.30989      0.91804     22.88000         0.000504      0.000052     -0.587132
      7.95000     11.93383      5.50000        -0.000195      0.000229      0.587611
     11.13000      0.91799      5.50000        -0.000163     -0.000269      0.587558
     14.30972      0.91808     19.69000         0.001397     -0.000063      0.586830
     11.13000      0.91799      8.69000        -0.000715      0.000566     -0.587925
     12.72000      3.67195      5.50000         0.000505      0.000170      0.587449
     12.72021      3.67165     22.88000         0.000666      0.001259     -0.586279
      7.95000     11.93383      8.69000         0.000210      0.000023     -0.588010
      7.95000      6.42591      8.69000        -0.005824     -0.001626     -0.577433
      7.95000      6.42591      5.50000        -0.000516     -0.000759      0.587265
      4.77000     11.93383      5.50000         0.000208      0.000184      0.588192
      4.77014     11.93388     22.88000        -0.000979     -0.001128     -0.586926
      4.77000     11.93383      8.69000         0.000713      0.001213     -0.588078
     11.13000      6.42591      5.50000        -0.000748     -0.000270      0.587256
      4.76970     11.93350     19.69000         0.000821      0.000038      0.585450
      6.35937      9.17964     19.69000         0.001409      0.001602      0.578992
      6.35943      9.17989     22.88000         0.001429      0.000153     -0.586933
     11.13008      6.42582     22.88000         0.000527      0.000028     -0.591411
      6.36000      9.17987      5.50000        -0.000325     -0.000605      0.588243
     11.13036      6.42587     19.69000        -0.000246     -0.000154      0.591229
      6.36000      9.17987      8.69000        -0.000891     -0.006592     -0.578274
     12.72028      3.67173     19.69000         0.000511      0.001050      0.585734
     12.72000      3.67195      8.69000        -0.000573     -0.000760     -0.587629
      7.94950      6.42654     19.69000         0.002290     -0.001843      0.583270
      7.94968      6.42598     22.88000         0.000993      0.000558     -0.590907
      9.54000      9.17987      8.69000         0.000346     -0.000690     -0.587857
     14.31000      0.91799      8.69000        -0.000668      0.000255     -0.587913
      9.54000      9.17987      5.50000         0.000094     -0.000261      0.587647
      1.59036     11.93316     19.69000        -0.000467      0.000769      0.586637
      7.95012      0.91796     22.88000         0.000184     -0.000198     -0.590346
      1.59000     11.93383      5.50000         0.000498      0.000044      0.587386
      3.18000      3.67195      5.50000        -0.000350      0.001035      0.585476
      3.18000      3.67195      8.69000         0.002740      0.001490     -0.562814
      4.76983      0.91768     19.69000         0.000345      0.001047      0.585318
      4.76987      0.91810     22.88000         0.000079     -0.000511     -0.586315
      4.77000      0.91799      5.50000         0.000453      0.000010      0.587261
      4.77000      0.91799      8.69000        -0.000110      0.004445     -0.582869
     -4.77006     11.93390     19.69000        -0.000046     -0.000057      0.588447
     -4.77010     11.93399     22.88000         0.000030     -0.000268     -0.587343
     -4.77000     11.93383      5.50000        -0.000077      0.000476      0.587520
     -4.77000     11.93383      8.69000        -0.000072      0.001005     -0.588095
     -3.17979      9.17998     19.69000        -0.000003     -0.000720      0.589148
     -3.18003      9.18002     22.88000         0.000674     -0.000800     -0.588475
      3.17970      3.67253     22.88000         0.000763     -0.001984     -0.587097
     -3.18000      9.17987      5.50000        -0.000288     -0.000114      0.587589
     -1.58878      6.42604     19.69000        -0.002370     -0.000247      0.585159
     -1.58962      6.42586     22.88000         0.001151      0.000309     -0.588399
     -1.59000      6.42591      5.50000         0.000308     -0.000824      0.587242
     -1.59000      6.42591      8.69000        -0.001812      0.000272     -0.586956
      0.00035      3.67287     19.69000        -0.000296     -0.002995      0.579605
      0.00029      3.67178     22.88000        -0.000230      0.001428     -0.587538
     -0.00000      3.67195      5.50000         0.000234      0.001415      0.588504
     -0.00000      3.67195      8.69000         0.003303     -0.001253     -0.582872
      1.58987      0.91765     19.69000        -0.000466      0.001721      0.585926
      1.58985      0.91809     22.88000        -0.000139     -0.000223     -0.587115
      1.59000      0.91799      5.50000         0.000099     -0.000184      0.588140
      1.59000      0.91799      8.69000         0.003309      0.002728     -0.584803
     -3.18000      9.17987      8.69000        -0.000442      0.000184     -0.588496
      3.17963      3.67231     19.69000         0.000986     -0.000973      0.581078
      1.59000      6.42591      8.69000         0.009195     -0.004515     -0.568252
      1.59000      6.42591      5.50000         0.001601     -0.000970      0.586458
      1.59000     11.93383      8.69000         0.000337      0.001411     -0.587632
      3.17951      9.17899     19.69000         0.002776      0.001592      0.567286
      3.18043      9.17960     22.88000        -0.001109     -0.000616     -0.584746
      3.18000      9.17987      5.50000        -0.000798     -0.001386      0.588223
      3.18000      9.17987      8.69000         0.002148     -0.004532     -0.577304
      4.77103      6.42594     19.69000        -0.003147     -0.000361      0.654133
      4.76983      6.42589     22.88000         0.001932     -0.000087     -0.576111
      4.77000      6.42591      5.50000        -0.000316      0.000234      0.583111
      4.77000      6.42591      8.69000         0.003900      0.000484     -0.585586
      6.35942      3.67203     19.69000         0.001681     -0.000956      0.580117
      6.35970      3.67199     22.88000         0.000344     -0.000709     -0.591483
      6.36000      3.67195      5.50000        -0.000400      0.000555      0.587891
      6.36000      3.67195      8.69000        -0.004407      0.002769     -0.568044
      7.95029      0.91780     19.69000        -0.000372      0.000247      0.590106
      7.94991     11.93389     22.88000        -0.000670     -0.000080     -0.586600
      7.95000      0.91799      5.50000        -0.000219      0.000416      0.587595
      7.95000      0.91799      8.69000        -0.001648      0.003961     -0.586206
     -1.58999     11.93350     19.69000         0.001000      0.000324      0.588307
     -1.59015     11.93381     22.88000         0.001420     -0.000570     -0.587956
     -1.59000     11.93383      5.50000        -0.000317      0.000631      0.587147
     -1.59000     11.93383      8.69000        -0.001003      0.001346     -0.587597
      0.00103      9.17906     19.69000        -0.002766      0.002289      0.582500
      0.00043      9.17967     22.88000        -0.000295     -0.000141     -0.585559
      0.00000      9.17987      5.50000         0.000713     -0.000094      0.588280
      0.00000      9.17987      8.69000        -0.001639      0.001139     -0.586664
      1.59041      6.42631     19.69000         0.001499     -0.001887      0.555285
      1.59062      6.42551     22.88000         0.000096      0.001386     -0.579049
      1.59020     11.93372     22.88000         0.000296     -0.001381     -0.587871
      7.95000     11.93383     19.69000        -0.001223      0.000003      0.586918
 -----------------------------------------------------------------------------------
    total drift:                                0.000173     -0.003696     -0.002494


--------------------------------------------------------------------------------------------------------



  FREE ENERGIE OF THE ION-ELECTRON SYSTEM (eV)
  ---------------------------------------------------
  free  energy   TOTEN  =     -1253.26625847 eV

  energy  without entropy=    -1253.14182388  energy(sigma->0) =    -1253.20404117
 
 d Force = 0.1911243E-04[ 0.140E-05, 0.368E-04]  d Energy = 0.1086435E-03-0.895E-04
 d Force = 0.1457383E+00[ 0.146E+00, 0.146E+00]  d Ewald  = 0.1457384E+00-0.144E-06


--------------------------------------------------------------------------------------------------------


    POTLOK:  cpu time    0.4195: real time    0.4221


--------------------------------------------------------------------------------------------------------




--------------------------------------------------------------------------------------------------------


  
 reached required accuracy - stopping structural energy minimisation
     LOOP+:  cpu time   47.8490: real time   50.7402
    4ORBIT:  cpu time    0.0000: real time    0.0000

 total amount of memory used by VASP MPI-rank0   156595. kBytes
=======================================================================

   base      :      30000. kBytes
   nonlr-proj:      23542. kBytes
   fftplans  :      28265. kBytes
   grid      :      62703. kBytes
   one-center:        334. kBytes
   wavefun   :      11751. kBytes
 
  
  
 General timing and accounting informations for this job:
 ========================================================
  
                  Total CPU time used (sec):     1837.706
                            User time (sec):     1826.793
                          System time (sec):       10.913
                         Elapsed time (sec):     1962.920
  
                   Maximum memory used (kb):      316540.
                   Average memory used (kb):           0.
  
                          Minor page faults:      1425326
                          Major page faults:           63
                 Voluntary context switches:         1378
