<?xml version="1.0" encoding="ISO-8859-1"?>
<modeling>
 <generator>
  <i name="program" type="string">vasp </i>
  <i name="version" type="string">5.4.4.18Apr17-6-g9f103f2a35  </i>
  <i name="subversion" type="string">(build Oct 28 2020 13:00:36) gamma-only         parallel </i>
  <i name="platform" type="string">LinuxIFC </i>
  <i name="date" type="string">2020 12 03 </i>
  <i name="time" type="string">21:33:07 </i>
 </generator>
 <incar>
  <i type="string" name="SYSTEM"> basalPlane</i>
  <i type="int" name="ISTART">     0</i>
  <i type="string" name="PREC">accurate  !=accurate, max(enmax) no wra</i>
  <i type="string" name="ALGO"> Normal    !=Normal, blocked Davidson it</i>
  <i type="int" name="NSIM">     4</i>
  <i type="int" name="ISPIN">     1</i>
  <i type="int" name="ICHARG">     2</i>
  <i type="int" name="INIWAV">     1</i>
  <i type="int" name="NELM">   200</i>
  <i type="int" name="NELMDL">    -5</i>
  <i type="int" name="NELMIN">     2</i>
  <i type="int" name="IBRION">     2</i>
  <i name="EDIFF">      0.00010000</i>
  <i name="EDIFFG">     -0.02000000</i>
  <i type="int" name="NSW"> 10000</i>
  <i type="int" name="ISIF">     2</i>
  <i type="int" name="ISYM">     2</i>
  <i name="ENCUT">    400.00000000</i>
  <i name="ENAUG">    645.00000000</i>
  <i type="string" name="LREAL"> Auto     !=Auto projection operators ev</i>
  <i type="logical" name="LPLANE"> T  </i>
  <i type="int" name="ISMEAR">     0</i>
  <i name="SIGMA">      0.10000000</i>
  <i type="int" name="NWRITE">     2</i>
  <i type="logical" name="LWAVE"> F  </i>
  <i type="logical" name="LCHARG"> F  </i>
  <i type="int" name="LORBIT">     0</i>
  <i type="logical" name="LELF"> F  </i>
  <i type="logical" name="LSCALU"> F  </i>
  <v type="int" name="KPOINT_BSE">    -1     0     0     0</v>
  <i type="int" name="NELM">   200</i>
 </incar>
 <structure name="primitive_cell" >
  <crystal>
   <varray name="basis" >
    <v>      15.90000000       0.00000000       0.00000000 </v>
    <v>      -7.95000000      13.76980392       0.00000000 </v>
    <v>       0.00000000       0.00000000      32.38000000 </v>
   </varray>
   <i name="volume">   7089.27338987 </i>
   <varray name="rec_basis" >
    <v>       0.06289308       0.03631134       0.00000000 </v>
    <v>       0.00000000       0.07262268       0.00000000 </v>
    <v>       0.00000000       0.00000000       0.03088326 </v>
   </varray>
  </crystal>
  <varray name="positions" >
   <v>       0.38749812       0.39775414      -0.49918939 </v>
   <v>       0.35322846       0.32807900      -0.48333785 </v>
   <v>       0.34008887       0.43095625       0.47356413 </v>
   <v>       0.48847557       0.46833743      -0.49831178 </v>
   <v>       0.45220791       0.42122734       0.43869440 </v>
   <v>       0.26345261       0.39141356       0.46545041 </v>
   <v>      -0.45630447       0.46303596      -0.48054339 </v>
   <v>       0.41140320      -0.47685071       0.45714069 </v>
   <v>      -0.49574628      -0.45305722       0.47468457 </v>
   <v>       0.39765155      -0.43225205       0.43581976 </v>
   <v>      -0.42707350      -0.38663103       0.46954195 </v>
   <v>       0.47286163       0.30500936       0.41459700 </v>
   <v>       0.39290210       0.30727123       0.39510545 </v>
   <v>       0.33333333       0.46666667      -0.39190859 </v>
   <v>       0.46837586       0.24609727       0.43334125 </v>
   <v>       0.33333333       0.26666667      -0.39190859 </v>
   <v>       0.31777035       0.24863276       0.39491758 </v>
   <v>      -0.46666667       0.46666667      -0.39190859 </v>
   <v>      -0.44103706       0.39476574       0.40646236 </v>
   <v>       0.43095365       0.40019277       0.37479037 </v>
   <v>      -0.46604898       0.45382423       0.38216486 </v>
   <v>      -0.36916243       0.41673784       0.41865236 </v>
   <v>       0.38983010       0.42422047       0.35629573 </v>
   <v>       0.13333333       0.26666667      -0.39190859 </v>
   <v>      -0.41605287      -0.47278814       0.37162922 </v>
   <v>       0.40000000       0.40000000      -0.34264978 </v>
   <v>      -0.46666667      -0.33333333      -0.39190859 </v>
   <v>      -0.46666667       0.26666667      -0.39190859 </v>
   <v>       0.13333333       0.46666667      -0.39190859 </v>
   <v>       0.20000000       0.40000000      -0.34264978 </v>
   <v>       0.33333333      -0.33333333      -0.39190859 </v>
   <v>       0.13333333       0.06666667      -0.39190859 </v>
   <v>       0.20000000       0.20000000      -0.34264978 </v>
   <v>       0.40000000      -0.40000000      -0.34264978 </v>
   <v>       0.33333333       0.06666667      -0.39190859 </v>
   <v>       0.40000000       0.20000000      -0.34264978 </v>
   <v>      -0.40000000      -0.40000000      -0.34264978 </v>
   <v>      -0.40000000       0.40000000      -0.34264978 </v>
   <v>      -0.26666667      -0.33333333      -0.39190859 </v>
   <v>      -0.26666667       0.46666667      -0.39190859 </v>
   <v>       0.33333333       0.46666667      -0.29339098 </v>
   <v>       0.33333333       0.26666667      -0.29339098 </v>
   <v>      -0.46666667       0.46666667      -0.29339098 </v>
   <v>      -0.06666667       0.26666667      -0.39190859 </v>
   <v>      -0.06666667       0.06666667      -0.39190859 </v>
   <v>       0.00000000       0.20000000      -0.34264978 </v>
   <v>       0.20000000      -0.40000000      -0.34264978 </v>
   <v>       0.20000000       0.00000000      -0.34264978 </v>
   <v>      -0.46666667      -0.13333333      -0.39190859 </v>
   <v>      -0.40000000      -0.20000000      -0.34264978 </v>
   <v>       0.13333333       0.26666667      -0.29339098 </v>
   <v>      -0.26666667      -0.13333333      -0.39190859 </v>
   <v>      -0.46666667       0.06666667      -0.39190859 </v>
   <v>      -0.40000000       0.20000000      -0.34264978 </v>
   <v>      -0.20000000      -0.40000000      -0.34264978 </v>
   <v>      -0.26666667       0.26666667      -0.39190859 </v>
   <v>      -0.46666667      -0.33333333      -0.29339098 </v>
   <v>      -0.46666667       0.26666667      -0.29339098 </v>
   <v>       0.33333333       0.46666667       0.26837554 </v>
   <v>       0.33333333       0.26666667       0.26837554 </v>
   <v>      -0.46666667       0.46666667       0.26837554 </v>
   <v>       0.00000000       0.40000000      -0.34264978 </v>
   <v>       0.13333333      -0.33333333      -0.39190859 </v>
   <v>       0.00000000       0.00000000      -0.34264978 </v>
   <v>       0.40000000      -0.20000000      -0.34264978 </v>
   <v>       0.13333333      -0.13333333      -0.39190859 </v>
   <v>       0.13333333       0.46666667      -0.29339098 </v>
   <v>       0.40000000       0.00000000      -0.34264978 </v>
   <v>       0.33333333      -0.33333333      -0.29339098 </v>
   <v>       0.13333333       0.06666667      -0.29339098 </v>
   <v>      -0.20000000      -0.20000000      -0.34264978 </v>
   <v>       0.33333333       0.06666667      -0.29339098 </v>
   <v>      -0.20000000       0.40000000      -0.34264978 </v>
   <v>      -0.06666667      -0.33333333      -0.39190859 </v>
   <v>       0.13333333       0.26666667       0.26837554 </v>
   <v>      -0.26666667      -0.33333333      -0.29339098 </v>
   <v>      -0.26666667       0.46666667      -0.29339098 </v>
   <v>      -0.46666667      -0.33333333       0.26837554 </v>
   <v>      -0.46666667       0.26666667       0.26837554 </v>
   <v>      -0.06666667       0.46666667      -0.39190859 </v>
   <v>      -0.06666667      -0.13333333      -0.39190859 </v>
   <v>       0.33333333      -0.13333333      -0.39190859 </v>
   <v>       0.13333333       0.46666667       0.26837554 </v>
   <v>       0.33333333      -0.33333333       0.26837554 </v>
   <v>       0.13333333       0.06666667       0.26837554 </v>
   <v>       0.33333333       0.06666667       0.26837554 </v>
   <v>      -0.26666667      -0.33333333       0.26837554 </v>
   <v>      -0.26666667       0.46666667       0.26837554 </v>
   <v>       0.40000000       0.40000000       0.21911674 </v>
   <v>      -0.06666667       0.26666667      -0.29339098 </v>
   <v>      -0.06666667       0.06666667      -0.29339098 </v>
   <v>      -0.46666667      -0.13333333      -0.29339098 </v>
   <v>      -0.26666667      -0.13333333      -0.29339098 </v>
   <v>      -0.46666667       0.06666667      -0.29339098 </v>
   <v>      -0.26666667       0.26666667      -0.29339098 </v>
   <v>       0.20000000       0.40000000       0.21911674 </v>
   <v>       0.20000000       0.20000000       0.21911674 </v>
   <v>       0.40000000      -0.40000000       0.21911674 </v>
   <v>      -0.26666667       0.06666667      -0.39190859 </v>
   <v>      -0.20000000       0.20000000      -0.34264978 </v>
   <v>       0.40000000       0.20000000       0.21911674 </v>
   <v>       0.00000000      -0.40000000      -0.34264978 </v>
   <v>      -0.20000000       0.00000000      -0.34264978 </v>
   <v>      -0.40000000      -0.40000000       0.21911674 </v>
   <v>      -0.40000000       0.40000000       0.21911674 </v>
   <v>       0.20000000      -0.20000000      -0.34264978 </v>
   <v>       0.00000000      -0.20000000      -0.34264978 </v>
   <v>       0.13333333      -0.33333333      -0.29339098 </v>
   <v>      -0.40000000       0.00000000      -0.34264978 </v>
   <v>       0.13333333      -0.13333333      -0.29339098 </v>
   <v>      -0.06666667       0.26666667       0.26837554 </v>
   <v>      -0.06666667       0.06666667       0.26837554 </v>
   <v>      -0.46666667      -0.13333333       0.26837554 </v>
   <v>      -0.06666667      -0.33333333      -0.29339098 </v>
   <v>      -0.26666667      -0.13333333       0.26837554 </v>
   <v>      -0.46666667       0.06666667       0.26837554 </v>
   <v>      -0.26666667       0.26666667       0.26837554 </v>
   <v>      -0.06666667       0.46666667      -0.29339098 </v>
   <v>      -0.06666667      -0.13333333      -0.29339098 </v>
   <v>       0.33333333      -0.13333333      -0.29339098 </v>
   <v>       0.13333333      -0.33333333       0.26837554 </v>
   <v>       0.13333333      -0.13333333       0.26837554 </v>
   <v>       0.00000000       0.20000000       0.21911674 </v>
   <v>       0.20000000      -0.40000000       0.21911674 </v>
   <v>      -0.06666667      -0.33333333       0.26837554 </v>
   <v>       0.20000000       0.00000000       0.21911674 </v>
   <v>      -0.40000000      -0.20000000       0.21911674 </v>
   <v>      -0.40000000       0.20000000       0.21911674 </v>
   <v>      -0.20000000      -0.40000000       0.21911674 </v>
   <v>       0.33333333       0.46666667       0.16985794 </v>
   <v>      -0.06666667       0.46666667       0.26837554 </v>
   <v>       0.33333333       0.26666667       0.16985794 </v>
   <v>      -0.46666667       0.46666667       0.16985794 </v>
   <v>      -0.06666667      -0.13333333       0.26837554 </v>
   <v>       0.33333333      -0.13333333       0.26837554 </v>
   <v>       0.00000000       0.40000000       0.21911674 </v>
   <v>       0.00000000       0.00000000       0.21911674 </v>
   <v>       0.40000000      -0.20000000       0.21911674 </v>
   <v>       0.40000000       0.00000000       0.21911674 </v>
   <v>      -0.20000000      -0.20000000       0.21911674 </v>
   <v>      -0.26666667       0.06666667      -0.29339098 </v>
   <v>      -0.20000000       0.40000000       0.21911674 </v>
   <v>       0.13333333       0.26666667       0.16985794 </v>
   <v>      -0.46666667      -0.33333333       0.16985794 </v>
   <v>      -0.46666667       0.26666667       0.16985794 </v>
   <v>       0.13333333       0.46666667       0.16985794 </v>
   <v>       0.33333333      -0.33333333       0.16985794 </v>
   <v>       0.13333333       0.06666667       0.16985794 </v>
   <v>      -0.26666667       0.06666667       0.26837554 </v>
   <v>       0.33333333       0.06666667       0.16985794 </v>
   <v>      -0.26666667      -0.33333333       0.16985794 </v>
   <v>      -0.26666667       0.46666667       0.16985794 </v>
   <v>      -0.20000000       0.20000000       0.21911674 </v>
   <v>       0.00000000      -0.40000000       0.21911674 </v>
   <v>      -0.20000000       0.00000000       0.21911674 </v>
   <v>       0.20000000      -0.20000000       0.21911674 </v>
   <v>       0.00000000      -0.20000000       0.21911674 </v>
   <v>      -0.40000000       0.00000000       0.21911674 </v>
   <v>      -0.06666667       0.26666667       0.16985794 </v>
   <v>      -0.06666667       0.06666667       0.16985794 </v>
   <v>      -0.46666667      -0.13333333       0.16985794 </v>
   <v>      -0.26666667      -0.13333333       0.16985794 </v>
   <v>      -0.46666667       0.06666667       0.16985794 </v>
   <v>      -0.26666667       0.26666667       0.16985794 </v>
   <v>       0.13333333      -0.33333333       0.16985794 </v>
   <v>       0.13333333      -0.13333333       0.16985794 </v>
   <v>      -0.06666667      -0.33333333       0.16985794 </v>
   <v>      -0.06666667       0.46666667       0.16985794 </v>
   <v>      -0.06666667      -0.13333333       0.16985794 </v>
   <v>       0.33333333      -0.13333333       0.16985794 </v>
   <v>      -0.26666667       0.06666667       0.16985794 </v>
  </varray>
 </structure>
 <varray name="primitive_index" >
  <v type="int" >        1 </v>
  <v type="int" >       18 </v>
  <v type="int" >        2 </v>
  <v type="int" >        3 </v>
  <v type="int" >       11 </v>
  <v type="int" >       17 </v>
  <v type="int" >       19 </v>
  <v type="int" >        5 </v>
  <v type="int" >        4 </v>
  <v type="int" >       12 </v>
  <v type="int" >       20 </v>
  <v type="int" >       10 </v>
  <v type="int" >        6 </v>
  <v type="int" >      168 </v>
  <v type="int" >       21 </v>
  <v type="int" >      140 </v>
  <v type="int" >       14 </v>
  <v type="int" >      148 </v>
  <v type="int" >        9 </v>
  <v type="int" >        8 </v>
  <v type="int" >        7 </v>
  <v type="int" >       16 </v>
  <v type="int" >       13 </v>
  <v type="int" >      131 </v>
  <v type="int" >       15 </v>
  <v type="int" >       44 </v>
  <v type="int" >      144 </v>
  <v type="int" >      152 </v>
  <v type="int" >      127 </v>
  <v type="int" >       34 </v>
  <v type="int" >      164 </v>
  <v type="int" >      135 </v>
  <v type="int" >       30 </v>
  <v type="int" >       47 </v>
  <v type="int" >      115 </v>
  <v type="int" >       41 </v>
  <v type="int" >       22 </v>
  <v type="int" >       38 </v>
  <v type="int" >       97 </v>
  <v type="int" >      105 </v>
  <v type="int" >      169 </v>
  <v type="int" >      125 </v>
  <v type="int" >      149 </v>
  <v type="int" >      103 </v>
  <v type="int" >       85 </v>
  <v type="int" >       60 </v>
  <v type="int" >       24 </v>
  <v type="int" >       53 </v>
  <v type="int" >      110 </v>
  <v type="int" >       27 </v>
  <v type="int" >      132 </v>
  <v type="int" >       96 </v>
  <v type="int" >      156 </v>
  <v type="int" >       43 </v>
  <v type="int" >       61 </v>
  <v type="int" >       73 </v>
  <v type="int" >      145 </v>
  <v type="int" >      153 </v>
  <v type="int" >      141 </v>
  <v type="int" >      114 </v>
  <v type="int" >      151 </v>
  <v type="int" >       63 </v>
  <v type="int" >      123 </v>
  <v type="int" >       57 </v>
  <v type="int" >       46 </v>
  <v type="int" >      119 </v>
  <v type="int" >      128 </v>
  <v type="int" >       37 </v>
  <v type="int" >      165 </v>
  <v type="int" >      136 </v>
  <v type="int" >       56 </v>
  <v type="int" >      116 </v>
  <v type="int" >       65 </v>
  <v type="int" >       76 </v>
  <v type="int" >      134 </v>
  <v type="int" >       98 </v>
  <v type="int" >      106 </v>
  <v type="int" >      147 </v>
  <v type="int" >      155 </v>
  <v type="int" >      101 </v>
  <v type="int" >      171 </v>
  <v type="int" >      160 </v>
  <v type="int" >      130 </v>
  <v type="int" >      167 </v>
  <v type="int" >      138 </v>
  <v type="int" >      118 </v>
  <v type="int" >      102 </v>
  <v type="int" >       90 </v>
  <v type="int" >       42 </v>
  <v type="int" >       88 </v>
  <v type="int" >       82 </v>
  <v type="int" >      170 </v>
  <v type="int" >       93 </v>
  <v type="int" >      111 </v>
  <v type="int" >       74 </v>
  <v type="int" >       28 </v>
  <v type="int" >       32 </v>
  <v type="int" >       36 </v>
  <v type="int" >       80 </v>
  <v type="int" >       71 </v>
  <v type="int" >       39 </v>
  <v type="int" >       66 </v>
  <v type="int" >       31 </v>
  <v type="int" >       35 </v>
  <v type="int" >       40 </v>
  <v type="int" >       33 </v>
  <v type="int" >       69 </v>
  <v type="int" >      124 </v>
  <v type="int" >       48 </v>
  <v type="int" >      120 </v>
  <v type="int" >      104 </v>
  <v type="int" >      108 </v>
  <v type="int" >      143 </v>
  <v type="int" >       75 </v>
  <v type="int" >       94 </v>
  <v type="int" >      159 </v>
  <v type="int" >       78 </v>
  <v type="int" >       99 </v>
  <v type="int" >      157 </v>
  <v type="int" >      161 </v>
  <v type="int" >      139 </v>
  <v type="int" >      122 </v>
  <v type="int" >       59 </v>
  <v type="int" >       26 </v>
  <v type="int" >      107 </v>
  <v type="int" >       54 </v>
  <v type="int" >       25 </v>
  <v type="int" >       45 </v>
  <v type="int" >       67 </v>
  <v type="int" >      142 </v>
  <v type="int" >       79 </v>
  <v type="int" >      113 </v>
  <v type="int" >      150 </v>
  <v type="int" >       89 </v>
  <v type="int" >      163 </v>
  <v type="int" >       62 </v>
  <v type="int" >       55 </v>
  <v type="int" >       49 </v>
  <v type="int" >       51 </v>
  <v type="int" >       58 </v>
  <v type="int" >       81 </v>
  <v type="int" >       68 </v>
  <v type="int" >      133 </v>
  <v type="int" >      146 </v>
  <v type="int" >      154 </v>
  <v type="int" >      129 </v>
  <v type="int" >      166 </v>
  <v type="int" >      137 </v>
  <v type="int" >       86 </v>
  <v type="int" >      117 </v>
  <v type="int" >      100 </v>
  <v type="int" >       91 </v>
  <v type="int" >       52 </v>
  <v type="int" >       64 </v>
  <v type="int" >       29 </v>
  <v type="int" >       23 </v>
  <v type="int" >       70 </v>
  <v type="int" >       50 </v>
  <v type="int" >       87 </v>
  <v type="int" >       72 </v>
  <v type="int" >      112 </v>
  <v type="int" >       92 </v>
  <v type="int" >      158 </v>
  <v type="int" >       77 </v>
  <v type="int" >      126 </v>
  <v type="int" >      121 </v>
  <v type="int" >      109 </v>
  <v type="int" >       95 </v>
  <v type="int" >       83 </v>
  <v type="int" >      162 </v>
  <v type="int" >       84 </v>
 </varray>
 <kpoints>
  <varray name="kpointlist" >
   <v>       0.00000000       0.00000000       0.00000000 </v>
  </varray>
  <varray name="weights" >
   <v>       1.00000000 </v>
  </varray>
 </kpoints>
 <parameters>
  <separator name="general" >
   <i type="string" name="SYSTEM">basalPlane</i>
   <i type="logical" name="LCOMPAT"> F  </i>
  </separator>
  <separator name="electronic" >
   <i type="string" name="PREC">accura</i>
   <i name="ENMAX">    400.00000000</i>
   <i name="ENAUG">    645.00000000</i>
   <i name="EDIFF">      0.00010000</i>
   <i type="int" name="IALGO">    38</i>
   <i type="int" name="IWAVPR">    11</i>
   <i type="int" name="NBANDS">   585</i>
   <i name="NELECT">    956.00000000</i>
   <i type="int" name="TURBO">     0</i>
   <i type="int" name="IRESTART">     0</i>
   <i type="int" name="NREBOOT">     0</i>
   <i type="int" name="NMIN">     0</i>
   <i name="EREF">      0.00000000</i>
   <separator name="electronic smearing" >
    <i type="int" name="ISMEAR">     0</i>
    <i name="SIGMA">      0.10000000</i>
    <i name="KSPACING">      0.50000000</i>
    <i type="logical" name="KGAMMA"> T  </i>
   </separator>
   <separator name="electronic projectors" >
    <i type="logical" name="LREAL"> T  </i>
    <v name="ROPT">     -0.00025000     -0.00025000     -0.00025000     -0.00025000     -0.00025000</v>
    <i type="int" name="LMAXPAW">  -100</i>
    <i type="int" name="LMAXMIX">     2</i>
    <i type="logical" name="NLSPLINE"> F  </i>
   </separator>
   <separator name="electronic startup" >
    <i type="int" name="ISTART">     0</i>
    <i type="int" name="ICHARG">     2</i>
    <i type="int" name="INIWAV">     1</i>
   </separator>
   <separator name="electronic spin" >
    <i type="int" name="ISPIN">     1</i>
    <i type="logical" name="LNONCOLLINEAR"> F  </i>
    <v name="MAGMOM">      1.00000000      1.00000000      1.00000000      1.00000000      1.00000000      1.00000000      1.00000000      1.00000000      1.00000000      1.00000000      1.00000000      1.00000000      1.00000000      1.00000000      1.00000000      1.00000000      1.00000000      1.00000000      1.00000000      1.00000000
      1.00000000      1.00000000      1.00000000      1.00000000      1.00000000      1.00000000      1.00000000      1.00000000      1.00000000      1.00000000      1.00000000      1.00000000      1.00000000      1.00000000      1.00000000      1.00000000      1.00000000      1.00000000      1.00000000      1.00000000
      1.00000000      1.00000000      1.00000000      1.00000000      1.00000000      1.00000000      1.00000000      1.00000000      1.00000000      1.00000000      1.00000000      1.00000000      1.00000000      1.00000000      1.00000000      1.00000000      1.00000000      1.00000000      1.00000000      1.00000000
      1.00000000      1.00000000      1.00000000      1.00000000      1.00000000      1.00000000      1.00000000      1.00000000      1.00000000      1.00000000      1.00000000      1.00000000      1.00000000      1.00000000      1.00000000      1.00000000      1.00000000      1.00000000      1.00000000      1.00000000
      1.00000000      1.00000000      1.00000000      1.00000000      1.00000000      1.00000000      1.00000000      1.00000000      1.00000000      1.00000000      1.00000000      1.00000000      1.00000000      1.00000000      1.00000000      1.00000000      1.00000000      1.00000000      1.00000000      1.00000000
      1.00000000      1.00000000      1.00000000      1.00000000      1.00000000      1.00000000      1.00000000      1.00000000      1.00000000      1.00000000      1.00000000      1.00000000      1.00000000      1.00000000      1.00000000      1.00000000      1.00000000      1.00000000      1.00000000      1.00000000
      1.00000000      1.00000000      1.00000000      1.00000000      1.00000000      1.00000000      1.00000000      1.00000000      1.00000000      1.00000000      1.00000000      1.00000000      1.00000000      1.00000000      1.00000000      1.00000000      1.00000000      1.00000000      1.00000000      1.00000000
      1.00000000      1.00000000      1.00000000      1.00000000      1.00000000      1.00000000      1.00000000      1.00000000      1.00000000      1.00000000      1.00000000      1.00000000      1.00000000      1.00000000      1.00000000      1.00000000      1.00000000      1.00000000      1.00000000      1.00000000
      1.00000000      1.00000000      1.00000000      1.00000000      1.00000000      1.00000000      1.00000000      1.00000000      1.00000000      1.00000000      1.00000000</v>
    <i name="NUPDOWN">     -1.00000000</i>
    <i type="logical" name="LSORBIT"> F  </i>
    <v name="SAXIS">      0.00000000      0.00000000      1.00000000</v>
    <i type="logical" name="LSPIRAL"> F  </i>
    <v name="QSPIRAL">      0.00000000      0.00000000      0.00000000</v>
    <i type="logical" name="LZEROZ"> F  </i>
   </separator>
   <separator name="electronic exchange-correlation" >
    <i type="logical" name="LASPH"> F  </i>
    <i type="logical" name="LMETAGGA"> F  </i>
   </separator>
   <separator name="electronic convergence" >
    <i type="int" name="NELM">   200</i>
    <i type="int" name="NELMDL">    -5</i>
    <i type="int" name="NELMIN">     2</i>
    <i name="ENINI">    400.00000000</i>
    <separator name="electronic convergence detail" >
     <i type="logical" name="LDIAG"> T  </i>
     <i type="logical" name="LSUBROT"> F  </i>
     <i name="WEIMIN">      0.00100000</i>
     <i name="EBREAK">      0.00000004</i>
     <i name="DEPER">      0.30000000</i>
     <i type="int" name="NRMM">     4</i>
     <i name="TIME">      0.40000000</i>
    </separator>
   </separator>
   <separator name="electronic mixer" >
    <i name="AMIX">      0.40000000</i>
    <i name="BMIX">      1.00000000</i>
    <i name="AMIN">      0.10000000</i>
    <i name="AMIX_MAG">      1.60000000</i>
    <i name="BMIX_MAG">      1.00000000</i>
    <separator name="electronic mixer details" >
     <i type="int" name="IMIX">     4</i>
     <i type="logical" name="MIXFIRST"> F  </i>
     <i type="int" name="MAXMIX">   -45</i>
     <i name="WC">    100.00000000</i>
     <i type="int" name="INIMIX">     1</i>
     <i type="int" name="MIXPRE">     1</i>
     <i type="int" name="MREMOVE">     5</i>
    </separator>
   </separator>
   <separator name="electronic dipolcorrection" >
    <i type="logical" name="LDIPOL"> F  </i>
    <i type="logical" name="LMONO"> F  </i>
    <i type="int" name="IDIPOL">     0</i>
    <i name="EPSILON">      1.00000000</i>
    <v name="DIPOL">   -100.00000000   -100.00000000   -100.00000000</v>
    <i name="EFIELD">      0.00000000</i>
   </separator>
  </separator>
  <separator name="grids" >
   <i type="int" name="NGX">   108</i>
   <i type="int" name="NGY">   108</i>
   <i type="int" name="NGZ">   216</i>
   <i type="int" name="NGXF">   216</i>
   <i type="int" name="NGYF">   216</i>
   <i type="int" name="NGZF">   432</i>
   <i type="logical" name="ADDGRID"> F  </i>
  </separator>
  <separator name="ionic" >
   <i type="int" name="NSW"> 10000</i>
   <i type="int" name="IBRION">     2</i>
   <i type="int" name="MDALGO">     0</i>
   <i type="int" name="ISIF">     2</i>
   <i name="PSTRESS">      0.00000000</i>
   <i name="EDIFFG">     -0.02000000</i>
   <i type="int" name="NFREE">     1</i>
   <i name="POTIM">      0.50000000</i>
   <i name="SMASS">     -3.00000000</i>
   <i name="SCALEE">      1.00000000</i>
  </separator>
  <separator name="ionic md" >
   <i name="TEBEG">      0.00010000</i>
   <i name="TEEND">      0.00010000</i>
   <i type="int" name="NBLOCK">     1</i>
   <i type="int" name="KBLOCK"> 10000</i>
   <i type="int" name="NPACO">   256</i>
   <i name="APACO">     16.00000000</i>
  </separator>
  <separator name="symmetry" >
   <i type="int" name="ISYM">     2</i>
   <i name="SYMPREC">      0.00001000</i>
  </separator>
  <separator name="dos" >
   <i type="int" name="LORBIT">     0</i>
   <v name="RWIGS">     -1.00000000     -1.00000000     -1.00000000     -1.00000000     -1.00000000</v>
   <i type="int" name="NEDOS">   301</i>
   <i name="EMIN">     10.00000000</i>
   <i name="EMAX">    -10.00000000</i>
   <i name="EFERMI">      0.00000000</i>
  </separator>
  <separator name="writing" >
   <i type="int" name="NWRITE">     2</i>
   <i type="logical" name="LWAVE"> F  </i>
   <i type="logical" name="LDOWNSAMPLE"> F  </i>
   <i type="logical" name="LCHARG"> F  </i>
   <i type="logical" name="LPARD"> F  </i>
   <i type="logical" name="LVTOT"> F  </i>
   <i type="logical" name="LVHAR"> F  </i>
   <i type="logical" name="LELF"> F  </i>
   <i type="logical" name="LOPTICS"> F  </i>
   <v name="STM">      0.00000000      0.00000000      0.00000000      0.00000000      0.00000000      0.00000000      0.00000000</v>
  </separator>
  <separator name="performance" >
   <i type="int" name="NPAR">    13</i>
   <i type="int" name="NSIM">     4</i>
   <i type="int" name="NBLK">    -1</i>
   <i type="logical" name="LPLANE"> T  </i>
   <i type="logical" name="LSCALAPACK"> T  </i>
   <i type="logical" name="LSCAAWARE"> F  </i>
   <i type="logical" name="LSCALU"> F  </i>
   <i type="logical" name="LASYNC"> F  </i>
   <i type="logical" name="LORBITALREAL"> F  </i>
  </separator>
  <separator name="miscellaneous" >
   <i type="int" name="IDIOT">     3</i>
   <i type="int" name="ISPECIAL">     0</i>
   <i type="logical" name="LMUSIC"> F  </i>
   <v name="POMASS">     12.01100000     51.99600000      1.00000000     95.94000000     32.06600000</v>
   <v name="DARWINR">      0.00000000      0.00000000      0.00000000      0.00000000      0.00000000</v>
   <v name="DARWINV">      1.00000000      1.00000000      1.00000000      1.00000000      1.00000000</v>
   <i type="logical" name="LCORR"> T  </i>
  </separator>
  <i type="logical" name="GGA_COMPAT"> T  </i>
  <i type="logical" name="LBERRY"> F  </i>
  <i type="int" name="ICORELEVEL">     0</i>
  <i type="logical" name="LDAU"> F  </i>
  <i type="int" name="I_CONSTRAINED_M">     0</i>
  <separator name="electronic exchange-correlation" >
   <i type="string" name="GGA">--</i>
   <i type="int" name="VOSKOWN">     0</i>
   <i type="logical" name="LHFCALC"> F  </i>
   <i type="string" name="PRECFOCK"></i>
   <i type="logical" name="LSYMGRAD"> F  </i>
   <i type="logical" name="LHFONE"> F  </i>
   <i type="logical" name="LRHFCALC"> F  </i>
   <i type="logical" name="LTHOMAS"> F  </i>
   <i type="logical" name="LMODELHF"> F  </i>
   <i name="ENCUT4O">     -1.00000000</i>
   <i type="int" name="EXXOEP">     0</i>
   <i type="int" name="FOURORBIT">     0</i>
   <i name="AEXX">      0.00000000</i>
   <i name="HFALPHA">      0.00000000</i>
   <i name="MCALPHA">      0.00000000</i>
   <i name="ALDAX">      1.00000000</i>
   <i name="AGGAX">      1.00000000</i>
   <i name="ALDAC">      1.00000000</i>
   <i name="AGGAC">      1.00000000</i>
   <i type="int" name="NKREDX">     1</i>
   <i type="int" name="NKREDY">     1</i>
   <i type="int" name="NKREDZ">     1</i>
   <i type="logical" name="SHIFTRED"> F  </i>
   <i type="logical" name="ODDONLY"> F  </i>
   <i type="logical" name="EVENONLY"> F  </i>
   <i type="int" name="LMAXFOCK">     0</i>
   <i type="int" name="NMAXFOCKAE">     0</i>
   <i type="logical" name="LFOCKAEDFT"> F  </i>
   <i name="HFSCREEN">      0.00000000</i>
   <i name="HFSCREENC">      0.00000000</i>
   <i type="int" name="NBANDSGWLOW">     0</i>
  </separator>
  <separator name="vdW DFT" >
   <i type="logical" name="LUSE_VDW"> F  </i>
   <i name="Zab_VDW">     -0.84910000</i>
   <i name="PARAM1">      0.12340000</i>
   <i name="PARAM2">      1.00000000</i>
   <i name="PARAM3">      0.00000000</i>
  </separator>
  <separator name="model GW" >
   <i type="int" name="MODEL_GW">     0</i>
   <i name="MODEL_EPS0">     24.87464347</i>
   <i name="MODEL_ALPHA">      1.00000000</i>
  </separator>
  <separator name="linear response parameters" >
   <i type="logical" name="LEPSILON"> F  </i>
   <i type="logical" name="LRPA"> F  </i>
   <i type="logical" name="LNABLA"> F  </i>
   <i type="logical" name="LVEL"> F  </i>
   <i type="int" name="KINTER">     0</i>
   <i name="CSHIFT">      0.10000000</i>
   <i name="OMEGAMAX">     -1.00000000</i>
   <i name="DEG_THRESHOLD">      0.00200000</i>
   <i name="RTIME">     -0.10000000</i>
   <i name="WPLASMAI">      0.00000000</i>
   <v name="DFIELD">      0.00000000      0.00000000      0.00000000</v>
   <v name="WPLASMA">      0.00000000      0.00000000      0.00000000      0.00000000      0.00000000      0.00000000      0.00000000      0.00000000      0.00000000</v>
  </separator>
  <separator name="orbital magnetization" >
   <i type="logical" name="NUCIND"> F  </i>
   <v name="MAGPOS">      0.00000000      0.00000000      0.00000000</v>
   <i type="logical" name="LNICSALL"> T  </i>
   <i type="logical" name="ORBITALMAG"> F  </i>
   <i type="logical" name="LMAGBLOCH"> F  </i>
   <i type="logical" name="LCHIMAG"> F  </i>
   <i type="logical" name="LGAUGE"> T  </i>
   <i type="int" name="MAGATOM">     0</i>
   <v name="MAGDIPOL">      0.00000000      0.00000000      0.00000000</v>
   <v name="AVECCONST">      0.00000000      0.00000000      0.00000000</v>
  </separator>
  <separator name="response functions" >
   <i type="logical" name="LADDER"> F  </i>
   <i type="logical" name="LRPAFORCE"> F  </i>
   <i type="logical" name="LFXC"> F  </i>
   <i type="logical" name="LHARTREE"> T  </i>
   <i type="int" name="IBSE">     0</i>
   <v type="int" name="KPOINT">    -1     0     0     0</v>
   <i type="logical" name="LTCTE"> F  </i>
   <i type="logical" name="LTETE"> F  </i>
   <i type="logical" name="LTRIPLET"> F  </i>
   <i type="logical" name="LFXCEPS"> F  </i>
   <i type="logical" name="LFXHEG"> F  </i>
   <i type="int" name="NATURALO">     2</i>
   <i type="logical" name="L2ORDER"> F  </i>
   <i type="logical" name="LMP2LT"> F  </i>
   <i type="logical" name="LUSEW"> F  </i>
   <i name="ENCUTGW">     -2.00000000</i>
   <i name="ENCUTGWSOFT">     -2.00000000</i>
   <i name="ENCUTLF">     -1.00000000</i>
   <i type="int" name="LMAXMP2">    -1</i>
   <i name="SCISSOR">      0.00000000</i>
   <i type="int" name="NOMEGA">     0</i>
   <i type="int" name="NOMEGAR">     0</i>
   <i type="int" name="NBANDSGW">    -1</i>
   <i type="int" name="NBANDSO">    -1</i>
   <i type="int" name="NBANDSV">    -1</i>
   <i type="int" name="NELM">   200</i>
   <i type="int" name="NELMHF">     1</i>
   <i type="int" name="DIM">     3</i>
   <i type="int" name="ANTIRES">     0</i>
   <i name="OMEGAMAX">    -30.00000000</i>
   <i name="OMEGAMIN">    -30.00000000</i>
   <i name="OMEGATL">   -200.00000000</i>
   <i type="int" name="OMEGAGRID">   140</i>
   <i name="CSHIFT">     -0.10000000</i>
   <i type="logical" name="SELFENERGY"> F  </i>
   <i type="logical" name="LSPECTRAL"> F  </i>
   <i type="logical" name="LSPECTRALGW"> F  </i>
   <i type="logical" name="LSINGLES"> F  </i>
   <i type="logical" name="LFERMIGW"> F  </i>
   <i type="logical" name="ODDONLYGW"> F  </i>
   <i type="logical" name="EVENONLYGW"> F  </i>
   <i type="int" name="NKREDLFX">     1</i>
   <i type="int" name="NKREDLFY">     1</i>
   <i type="int" name="NKREDLFZ">     1</i>
   <i type="int" name="MAXMEM">  2800</i>
   <i type="int" name="TELESCOPE">     0</i>
   <i type="int" name="TAUPAR">     1</i>
   <i type="int" name="OMEGAPAR">    -1</i>
   <i name="LAMBDA">      1.00000000</i>
  </separator>
  <separator name="External order field" >
   <i name="OFIELD_KAPPA">      0.00000000</i>
   <v name="OFIELD_K">      0.00000000      0.00000000      0.00000000</v>
   <i name="OFIELD_Q6_NEAR">      0.00000000</i>
   <i name="OFIELD_Q6_FAR">      0.00000000</i>
   <i name="OFIELD_A">      0.00000000</i>
  </separator>
 </parameters>
 <atominfo>
  <atoms>     171 </atoms>
  <types>       5 </types>
  <array name="atoms" >
   <dimension dim="1">ion</dimension>
   <field type="string">element</field>
   <field type="int">atomtype</field>
   <set>
    <rc><c>C </c><c>   1</c></rc>
    <rc><c>C </c><c>   1</c></rc>
    <rc><c>C </c><c>   1</c></rc>
    <rc><c>C </c><c>   1</c></rc>
    <rc><c>C </c><c>   1</c></rc>
    <rc><c>C </c><c>   1</c></rc>
    <rc><c>C </c><c>   1</c></rc>
    <rc><c>C </c><c>   1</c></rc>
    <rc><c>C </c><c>   1</c></rc>
    <rc><c>C </c><c>   1</c></rc>
    <rc><c>Cr</c><c>   2</c></rc>
    <rc><c>H </c><c>   3</c></rc>
    <rc><c>H </c><c>   3</c></rc>
    <rc><c>H </c><c>   3</c></rc>
    <rc><c>H </c><c>   3</c></rc>
    <rc><c>H </c><c>   3</c></rc>
    <rc><c>H </c><c>   3</c></rc>
    <rc><c>H </c><c>   3</c></rc>
    <rc><c>H </c><c>   3</c></rc>
    <rc><c>H </c><c>   3</c></rc>
    <rc><c>H </c><c>   3</c></rc>
    <rc><c>Mo</c><c>   4</c></rc>
    <rc><c>Mo</c><c>   4</c></rc>
    <rc><c>Mo</c><c>   4</c></rc>
    <rc><c>Mo</c><c>   4</c></rc>
    <rc><c>Mo</c><c>   4</c></rc>
    <rc><c>Mo</c><c>   4</c></rc>
    <rc><c>Mo</c><c>   4</c></rc>
    <rc><c>Mo</c><c>   4</c></rc>
    <rc><c>Mo</c><c>   4</c></rc>
    <rc><c>Mo</c><c>   4</c></rc>
    <rc><c>Mo</c><c>   4</c></rc>
    <rc><c>Mo</c><c>   4</c></rc>
    <rc><c>Mo</c><c>   4</c></rc>
    <rc><c>Mo</c><c>   4</c></rc>
    <rc><c>Mo</c><c>   4</c></rc>
    <rc><c>Mo</c><c>   4</c></rc>
    <rc><c>Mo</c><c>   4</c></rc>
    <rc><c>Mo</c><c>   4</c></rc>
    <rc><c>Mo</c><c>   4</c></rc>
    <rc><c>Mo</c><c>   4</c></rc>
    <rc><c>Mo</c><c>   4</c></rc>
    <rc><c>Mo</c><c>   4</c></rc>
    <rc><c>Mo</c><c>   4</c></rc>
    <rc><c>Mo</c><c>   4</c></rc>
    <rc><c>Mo</c><c>   4</c></rc>
    <rc><c>Mo</c><c>   4</c></rc>
    <rc><c>Mo</c><c>   4</c></rc>
    <rc><c>Mo</c><c>   4</c></rc>
    <rc><c>Mo</c><c>   4</c></rc>
    <rc><c>Mo</c><c>   4</c></rc>
    <rc><c>Mo</c><c>   4</c></rc>
    <rc><c>Mo</c><c>   4</c></rc>
    <rc><c>Mo</c><c>   4</c></rc>
    <rc><c>Mo</c><c>   4</c></rc>
    <rc><c>Mo</c><c>   4</c></rc>
    <rc><c>Mo</c><c>   4</c></rc>
    <rc><c>Mo</c><c>   4</c></rc>
    <rc><c>Mo</c><c>   4</c></rc>
    <rc><c>Mo</c><c>   4</c></rc>
    <rc><c>Mo</c><c>   4</c></rc>
    <rc><c>Mo</c><c>   4</c></rc>
    <rc><c>Mo</c><c>   4</c></rc>
    <rc><c>Mo</c><c>   4</c></rc>
    <rc><c>Mo</c><c>   4</c></rc>
    <rc><c>Mo</c><c>   4</c></rc>
    <rc><c>Mo</c><c>   4</c></rc>
    <rc><c>Mo</c><c>   4</c></rc>
    <rc><c>Mo</c><c>   4</c></rc>
    <rc><c>Mo</c><c>   4</c></rc>
    <rc><c>Mo</c><c>   4</c></rc>
    <rc><c>S </c><c>   5</c></rc>
    <rc><c>S </c><c>   5</c></rc>
    <rc><c>S </c><c>   5</c></rc>
    <rc><c>S </c><c>   5</c></rc>
    <rc><c>S </c><c>   5</c></rc>
    <rc><c>S </c><c>   5</c></rc>
    <rc><c>S </c><c>   5</c></rc>
    <rc><c>S </c><c>   5</c></rc>
    <rc><c>S </c><c>   5</c></rc>
    <rc><c>S </c><c>   5</c></rc>
    <rc><c>S </c><c>   5</c></rc>
    <rc><c>S </c><c>   5</c></rc>
    <rc><c>S </c><c>   5</c></rc>
    <rc><c>S </c><c>   5</c></rc>
    <rc><c>S </c><c>   5</c></rc>
    <rc><c>S </c><c>   5</c></rc>
    <rc><c>S </c><c>   5</c></rc>
    <rc><c>S </c><c>   5</c></rc>
    <rc><c>S </c><c>   5</c></rc>
    <rc><c>S </c><c>   5</c></rc>
    <rc><c>S </c><c>   5</c></rc>
    <rc><c>S </c><c>   5</c></rc>
    <rc><c>S </c><c>   5</c></rc>
    <rc><c>S </c><c>   5</c></rc>
    <rc><c>S </c><c>   5</c></rc>
    <rc><c>S </c><c>   5</c></rc>
    <rc><c>S </c><c>   5</c></rc>
    <rc><c>S </c><c>   5</c></rc>
    <rc><c>S </c><c>   5</c></rc>
    <rc><c>S </c><c>   5</c></rc>
    <rc><c>S </c><c>   5</c></rc>
    <rc><c>S </c><c>   5</c></rc>
    <rc><c>S </c><c>   5</c></rc>
    <rc><c>S </c><c>   5</c></rc>
    <rc><c>S </c><c>   5</c></rc>
    <rc><c>S </c><c>   5</c></rc>
    <rc><c>S </c><c>   5</c></rc>
    <rc><c>S </c><c>   5</c></rc>
    <rc><c>S </c><c>   5</c></rc>
    <rc><c>S </c><c>   5</c></rc>
    <rc><c>S </c><c>   5</c></rc>
    <rc><c>S </c><c>   5</c></rc>
    <rc><c>S </c><c>   5</c></rc>
    <rc><c>S </c><c>   5</c></rc>
    <rc><c>S </c><c>   5</c></rc>
    <rc><c>S </c><c>   5</c></rc>
    <rc><c>S </c><c>   5</c></rc>
    <rc><c>S </c><c>   5</c></rc>
    <rc><c>S </c><c>   5</c></rc>
    <rc><c>S </c><c>   5</c></rc>
    <rc><c>S </c><c>   5</c></rc>
    <rc><c>S </c><c>   5</c></rc>
    <rc><c>S </c><c>   5</c></rc>
    <rc><c>S </c><c>   5</c></rc>
    <rc><c>S </c><c>   5</c></rc>
    <rc><c>S </c><c>   5</c></rc>
    <rc><c>S </c><c>   5</c></rc>
    <rc><c>S </c><c>   5</c></rc>
    <rc><c>S </c><c>   5</c></rc>
    <rc><c>S </c><c>   5</c></rc>
    <rc><c>S </c><c>   5</c></rc>
    <rc><c>S </c><c>   5</c></rc>
    <rc><c>S </c><c>   5</c></rc>
    <rc><c>S </c><c>   5</c></rc>
    <rc><c>S </c><c>   5</c></rc>
    <rc><c>S </c><c>   5</c></rc>
    <rc><c>S </c><c>   5</c></rc>
    <rc><c>S </c><c>   5</c></rc>
    <rc><c>S </c><c>   5</c></rc>
    <rc><c>S </c><c>   5</c></rc>
    <rc><c>S </c><c>   5</c></rc>
    <rc><c>S </c><c>   5</c></rc>
    <rc><c>S </c><c>   5</c></rc>
    <rc><c>S </c><c>   5</c></rc>
    <rc><c>S </c><c>   5</c></rc>
    <rc><c>S </c><c>   5</c></rc>
    <rc><c>S </c><c>   5</c></rc>
    <rc><c>S </c><c>   5</c></rc>
    <rc><c>S </c><c>   5</c></rc>
    <rc><c>S </c><c>   5</c></rc>
    <rc><c>S </c><c>   5</c></rc>
    <rc><c>S </c><c>   5</c></rc>
    <rc><c>S </c><c>   5</c></rc>
    <rc><c>S </c><c>   5</c></rc>
    <rc><c>S </c><c>   5</c></rc>
    <rc><c>S </c><c>   5</c></rc>
    <rc><c>S </c><c>   5</c></rc>
    <rc><c>S </c><c>   5</c></rc>
    <rc><c>S </c><c>   5</c></rc>
    <rc><c>S </c><c>   5</c></rc>
    <rc><c>S </c><c>   5</c></rc>
    <rc><c>S </c><c>   5</c></rc>
    <rc><c>S </c><c>   5</c></rc>
    <rc><c>S </c><c>   5</c></rc>
    <rc><c>S </c><c>   5</c></rc>
    <rc><c>S </c><c>   5</c></rc>
    <rc><c>S </c><c>   5</c></rc>
    <rc><c>S </c><c>   5</c></rc>
    <rc><c>S </c><c>   5</c></rc>
    <rc><c>S </c><c>   5</c></rc>
   </set>
  </array>
  <array name="atomtypes" >
   <dimension dim="1">type</dimension>
   <field type="int">atomspertype</field>
   <field type="string">element</field>
   <field>mass</field>
   <field>valence</field>
   <field type="string">pseudopotential</field>
   <set>
    <rc><c>  10</c><c>C </c><c>     12.01100000</c><c>      4.00000000</c><c>  PAW_PBE C 08Apr2002                   </c></rc>
    <rc><c>   1</c><c>Cr</c><c>     51.99600000</c><c>      6.00000000</c><c>  PAW_PBE Cr 06Sep2000                  </c></rc>
    <rc><c>  10</c><c>H </c><c>      1.00000000</c><c>      1.00000000</c><c>  PAW_PBE H 15Jun2001                   </c></rc>
    <rc><c>  50</c><c>Mo</c><c>     95.94000000</c><c>      6.00000000</c><c>  PAW_PBE Mo 08Apr2002                  </c></rc>
    <rc><c> 100</c><c>S </c><c>     32.06600000</c><c>      6.00000000</c><c>  PAW_PBE S 06Sep2000                   </c></rc>
   </set>
  </array>
 </atominfo>
 <structure name="initialpos" >
  <crystal>
   <varray name="basis" >
    <v>      15.90000000       0.00000000       0.00000000 </v>
    <v>      -7.95000000      13.76980392       0.00000000 </v>
    <v>       0.00000000       0.00000000      32.38000000 </v>
   </varray>
   <i name="volume">   7089.27338987 </i>
   <varray name="rec_basis" >
    <v>       0.06289308       0.03631134       0.00000000 </v>
    <v>       0.00000000       0.07262268       0.00000000 </v>
    <v>       0.00000000       0.00000000       0.03088326 </v>
   </varray>
  </crystal>
  <varray name="positions" >
   <v>       0.38749812       0.39775414       0.50081061 </v>
   <v>       0.34008887       0.43095625       0.47356413 </v>
   <v>       0.48847557       0.46833743       0.50168822 </v>
   <v>       0.50425372       0.54694278       0.47468457 </v>
   <v>       0.41140320       0.52314929       0.45714069 </v>
   <v>       0.39290210       0.30727123       0.39510545 </v>
   <v>       0.53395102       0.45382423       0.38216486 </v>
   <v>       0.43095365       0.40019277       0.37479037 </v>
   <v>       0.55896294       0.39476574       0.40646236 </v>
   <v>       0.47286163       0.30500936       0.41459700 </v>
   <v>       0.45220791       0.42122734       0.43869440 </v>
   <v>       0.39765155       0.56774795       0.43581976 </v>
   <v>       0.38983010       0.42422047       0.35629573 </v>
   <v>       0.31777035       0.24863276       0.39491758 </v>
   <v>       0.58394713       0.52721186       0.37162922 </v>
   <v>       0.63083757       0.41673784       0.41865236 </v>
   <v>       0.26345261       0.39141356       0.46545041 </v>
   <v>       0.35322846       0.32807900       0.51666215 </v>
   <v>       0.54369553       0.46303596       0.51945661 </v>
   <v>       0.57292650       0.61336897       0.46954195 </v>
   <v>       0.46837586       0.24609727       0.43334125 </v>
   <v>       0.60000000       0.60000000       0.65735022 </v>
   <v>       0.20000000       0.80000000       0.21911674 </v>
   <v>       0.20000000       0.60000000       0.65735022 </v>
   <v>       0.60000000       0.80000000       0.21911674 </v>
   <v>       0.20000000       0.60000000       0.21911674 </v>
   <v>       0.60000000       0.80000000       0.65735022 </v>
   <v>       0.20000000       0.40000000       0.21911674 </v>
   <v>       0.80000000       0.00000000       0.21911674 </v>
   <v>       0.20000000       0.20000000       0.65735022 </v>
   <v>       0.80000000       0.00000000       0.65735022 </v>
   <v>       0.20000000       0.20000000       0.21911674 </v>
   <v>       0.20000000       0.80000000       0.65735022 </v>
   <v>       0.20000000       0.40000000       0.65735022 </v>
   <v>       0.60000000       0.60000000       0.21911674 </v>
   <v>       0.40000000       0.60000000       0.21911674 </v>
   <v>       0.40000000       0.00000000       0.65735022 </v>
   <v>       0.60000000       0.40000000       0.65735022 </v>
   <v>       0.40000000       0.20000000       0.21911674 </v>
   <v>       0.60000000       0.40000000       0.21911674 </v>
   <v>       0.40000000       0.20000000       0.65735022 </v>
   <v>       0.40000000       0.40000000       0.21911674 </v>
   <v>       0.60000000       0.20000000       0.65735022 </v>
   <v>       0.40000000       0.40000000       0.65735022 </v>
   <v>       0.60000000       0.20000000       0.21911674 </v>
   <v>       0.40000000       0.80000000       0.65735022 </v>
   <v>       0.40000000       0.60000000       0.65735022 </v>
   <v>       0.60000000       0.00000000       0.65735022 </v>
   <v>       0.40000000       0.80000000       0.21911674 </v>
   <v>       0.60000000       0.00000000       0.21911674 </v>
   <v>       0.40000000       0.00000000       0.21911674 </v>
   <v>       0.80000000       0.20000000       0.21911674 </v>
   <v>       0.20000000       0.00000000       0.65735022 </v>
   <v>       0.20000000       0.00000000       0.21911674 </v>
   <v>       0.00000000       0.00000000       0.21911674 </v>
   <v>       0.80000000       0.80000000       0.65735022 </v>
   <v>       0.00000000       0.00000000       0.65735022 </v>
   <v>       0.80000000       0.80000000       0.21911674 </v>
   <v>       0.00000000       0.20000000       0.21911674 </v>
   <v>       0.00000000       0.20000000       0.65735022 </v>
   <v>       0.80000000       0.60000000       0.65735022 </v>
   <v>       0.00000000       0.40000000       0.21911674 </v>
   <v>       0.00000000       0.40000000       0.65735022 </v>
   <v>       0.00000000       0.60000000       0.21911674 </v>
   <v>       0.80000000       0.40000000       0.65735022 </v>
   <v>       0.00000000       0.60000000       0.65735022 </v>
   <v>       0.80000000       0.60000000       0.21911674 </v>
   <v>       0.80000000       0.40000000       0.21911674 </v>
   <v>       0.00000000       0.80000000       0.65735022 </v>
   <v>       0.00000000       0.80000000       0.21911674 </v>
   <v>       0.80000000       0.20000000       0.65735022 </v>
   <v>       0.93333333       0.06666667       0.16985794 </v>
   <v>       0.73333333       0.26666667       0.60809141 </v>
   <v>       0.73333333       0.26666667       0.70660902 </v>
   <v>       0.93333333       0.66666667       0.70660902 </v>
   <v>       0.93333333       0.66666667       0.60809141 </v>
   <v>       0.73333333       0.26666667       0.16985794 </v>
   <v>       0.73333333       0.26666667       0.26837554 </v>
   <v>       0.93333333       0.46666667       0.26837554 </v>
   <v>       0.73333333       0.06666667       0.60809141 </v>
   <v>       0.73333333       0.06666667       0.70660902 </v>
   <v>       0.93333333       0.06666667       0.70660902 </v>
   <v>       0.93333333       0.86666667       0.16985794 </v>
   <v>       0.73333333       0.06666667       0.16985794 </v>
   <v>       0.93333333       0.06666667       0.60809141 </v>
   <v>       0.73333333       0.06666667       0.26837554 </v>
   <v>       0.93333333       0.26666667       0.16985794 </v>
   <v>       0.93333333       0.26666667       0.70660902 </v>
   <v>       0.93333333       0.86666667       0.26837554 </v>
   <v>       0.73333333       0.46666667       0.26837554 </v>
   <v>       0.73333333       0.46666667       0.16985794 </v>
   <v>       0.73333333       0.86666667       0.16985794 </v>
   <v>       0.73333333       0.86666667       0.70660902 </v>
   <v>       0.73333333       0.86666667       0.26837554 </v>
   <v>       0.93333333       0.46666667       0.16985794 </v>
   <v>       0.73333333       0.86666667       0.60809141 </v>
   <v>       0.73333333       0.66666667       0.60809141 </v>
   <v>       0.73333333       0.66666667       0.70660902 </v>
   <v>       0.93333333       0.46666667       0.70660902 </v>
   <v>       0.73333333       0.66666667       0.16985794 </v>
   <v>       0.93333333       0.46666667       0.60809141 </v>
   <v>       0.73333333       0.66666667       0.26837554 </v>
   <v>       0.93333333       0.26666667       0.60809141 </v>
   <v>       0.93333333       0.26666667       0.26837554 </v>
   <v>       0.73333333       0.46666667       0.60809141 </v>
   <v>       0.73333333       0.46666667       0.70660902 </v>
   <v>       0.93333333       0.66666667       0.26837554 </v>
   <v>       0.93333333       0.06666667       0.26837554 </v>
   <v>       0.93333333       0.66666667       0.16985794 </v>
   <v>       0.53333333       0.86666667       0.60809141 </v>
   <v>       0.53333333       0.06666667       0.70660902 </v>
   <v>       0.53333333       0.86666667       0.16985794 </v>
   <v>       0.33333333       0.26666667       0.16985794 </v>
   <v>       0.33333333       0.26666667       0.26837554 </v>
   <v>       0.33333333       0.06666667       0.60809141 </v>
   <v>       0.33333333       0.06666667       0.70660902 </v>
   <v>       0.33333333       0.06666667       0.16985794 </v>
   <v>       0.33333333       0.06666667       0.26837554 </v>
   <v>       0.13333333       0.86666667       0.60809141 </v>
   <v>       0.13333333       0.86666667       0.70660902 </v>
   <v>       0.13333333       0.86666667       0.16985794 </v>
   <v>       0.13333333       0.86666667       0.26837554 </v>
   <v>       0.13333333       0.66666667       0.60809141 </v>
   <v>       0.13333333       0.66666667       0.70660902 </v>
   <v>       0.33333333       0.26666667       0.70660902 </v>
   <v>       0.13333333       0.66666667       0.16985794 </v>
   <v>       0.13333333       0.46666667       0.60809141 </v>
   <v>       0.13333333       0.46666667       0.70660902 </v>
   <v>       0.13333333       0.46666667       0.16985794 </v>
   <v>       0.13333333       0.46666667       0.26837554 </v>
   <v>       0.13333333       0.26666667       0.60809141 </v>
   <v>       0.13333333       0.26666667       0.70660902 </v>
   <v>       0.13333333       0.26666667       0.16985794 </v>
   <v>       0.13333333       0.26666667       0.26837554 </v>
   <v>       0.13333333       0.06666667       0.60809141 </v>
   <v>       0.13333333       0.06666667       0.70660902 </v>
   <v>       0.13333333       0.06666667       0.16985794 </v>
   <v>       0.13333333       0.06666667       0.26837554 </v>
   <v>       0.13333333       0.66666667       0.26837554 </v>
   <v>       0.33333333       0.26666667       0.60809141 </v>
   <v>       0.33333333       0.46666667       0.26837554 </v>
   <v>       0.33333333       0.46666667       0.16985794 </v>
   <v>       0.53333333       0.86666667       0.26837554 </v>
   <v>       0.53333333       0.66666667       0.60809141 </v>
   <v>       0.53333333       0.66666667       0.70660902 </v>
   <v>       0.53333333       0.66666667       0.16985794 </v>
   <v>       0.53333333       0.66666667       0.26837554 </v>
   <v>       0.53333333       0.46666667       0.60809141 </v>
   <v>       0.53333333       0.46666667       0.70660902 </v>
   <v>       0.53333333       0.46666667       0.16985794 </v>
   <v>       0.53333333       0.46666667       0.26837554 </v>
   <v>       0.53333333       0.26666667       0.60809141 </v>
   <v>       0.53333333       0.26666667       0.70660902 </v>
   <v>       0.53333333       0.26666667       0.16985794 </v>
   <v>       0.53333333       0.26666667       0.26837554 </v>
   <v>       0.53333333       0.06666667       0.60809141 </v>
   <v>       0.93333333       0.86666667       0.70660902 </v>
   <v>       0.53333333       0.06666667       0.16985794 </v>
   <v>       0.53333333       0.06666667       0.26837554 </v>
   <v>       0.33333333       0.86666667       0.60809141 </v>
   <v>       0.33333333       0.86666667       0.70660902 </v>
   <v>       0.33333333       0.86666667       0.16985794 </v>
   <v>       0.33333333       0.86666667       0.26837554 </v>
   <v>       0.33333333       0.66666667       0.60809141 </v>
   <v>       0.33333333       0.66666667       0.70660902 </v>
   <v>       0.33333333       0.66666667       0.16985794 </v>
   <v>       0.33333333       0.66666667       0.26837554 </v>
   <v>       0.33333333       0.46666667       0.60809141 </v>
   <v>       0.33333333       0.46666667       0.70660902 </v>
   <v>       0.53333333       0.86666667       0.70660902 </v>
   <v>       0.93333333       0.86666667       0.60809141 </v>
  </varray>
  <varray name="selective"  type="logical" >
   <v type="logical" >  T  T  F </v>
   <v type="logical" >  T  T  F </v>
   <v type="logical" >  T  T  F </v>
   <v type="logical" >  T  T  F </v>
   <v type="logical" >  T  T  F </v>
   <v type="logical" >  T  T  F </v>
   <v type="logical" >  T  T  F </v>
   <v type="logical" >  T  T  F </v>
   <v type="logical" >  T  T  F </v>
   <v type="logical" >  T  T  F </v>
   <v type="logical" >  T  T  F </v>
   <v type="logical" >  T  T  F </v>
   <v type="logical" >  T  T  F </v>
   <v type="logical" >  T  T  F </v>
   <v type="logical" >  T  T  F </v>
   <v type="logical" >  T  T  F </v>
   <v type="logical" >  T  T  F </v>
   <v type="logical" >  T  T  F </v>
   <v type="logical" >  T  T  F </v>
   <v type="logical" >  T  T  F </v>
   <v type="logical" >  T  T  F </v>
   <v type="logical" >  T  T  F </v>
   <v type="logical" >  F  F  F </v>
   <v type="logical" >  T  T  F </v>
   <v type="logical" >  F  F  F </v>
   <v type="logical" >  F  F  F </v>
   <v type="logical" >  T  T  F </v>
   <v type="logical" >  F  F  F </v>
   <v type="logical" >  F  F  F </v>
   <v type="logical" >  T  T  F </v>
   <v type="logical" >  T  T  F </v>
   <v type="logical" >  F  F  F </v>
   <v type="logical" >  T  T  F </v>
   <v type="logical" >  T  T  F </v>
   <v type="logical" >  F  F  F </v>
   <v type="logical" >  F  F  F </v>
   <v type="logical" >  T  T  F </v>
   <v type="logical" >  T  T  F </v>
   <v type="logical" >  F  F  F </v>
   <v type="logical" >  F  F  F </v>
   <v type="logical" >  T  T  F </v>
   <v type="logical" >  F  F  F </v>
   <v type="logical" >  T  T  F </v>
   <v type="logical" >  T  T  F </v>
   <v type="logical" >  F  F  F </v>
   <v type="logical" >  T  T  F </v>
   <v type="logical" >  T  T  F </v>
   <v type="logical" >  T  T  F </v>
   <v type="logical" >  F  F  F </v>
   <v type="logical" >  F  F  F </v>
   <v type="logical" >  F  F  F </v>
   <v type="logical" >  F  F  F </v>
   <v type="logical" >  T  T  F </v>
   <v type="logical" >  F  F  F </v>
   <v type="logical" >  F  F  F </v>
   <v type="logical" >  T  T  F </v>
   <v type="logical" >  T  T  F </v>
   <v type="logical" >  F  F  F </v>
   <v type="logical" >  F  F  F </v>
   <v type="logical" >  T  T  F </v>
   <v type="logical" >  T  T  F </v>
   <v type="logical" >  F  F  F </v>
   <v type="logical" >  T  T  F </v>
   <v type="logical" >  F  F  F </v>
   <v type="logical" >  T  T  F </v>
   <v type="logical" >  T  T  F </v>
   <v type="logical" >  F  F  F </v>
   <v type="logical" >  F  F  F </v>
   <v type="logical" >  T  T  F </v>
   <v type="logical" >  F  F  F </v>
   <v type="logical" >  T  T  F </v>
   <v type="logical" >  F  F  F </v>
   <v type="logical" >  T  T  F </v>
   <v type="logical" >  T  T  F </v>
   <v type="logical" >  T  T  F </v>
   <v type="logical" >  T  T  F </v>
   <v type="logical" >  F  F  F </v>
   <v type="logical" >  F  F  F </v>
   <v type="logical" >  F  F  F </v>
   <v type="logical" >  T  T  F </v>
   <v type="logical" >  T  T  F </v>
   <v type="logical" >  T  T  F </v>
   <v type="logical" >  F  F  F </v>
   <v type="logical" >  F  F  F </v>
   <v type="logical" >  T  T  F </v>
   <v type="logical" >  F  F  F </v>
   <v type="logical" >  F  F  F </v>
   <v type="logical" >  T  T  F </v>
   <v type="logical" >  F  F  F </v>
   <v type="logical" >  F  F  F </v>
   <v type="logical" >  F  F  F </v>
   <v type="logical" >  F  F  F </v>
   <v type="logical" >  T  T  F </v>
   <v type="logical" >  F  F  F </v>
   <v type="logical" >  F  F  F </v>
   <v type="logical" >  T  T  F </v>
   <v type="logical" >  T  T  F </v>
   <v type="logical" >  T  T  F </v>
   <v type="logical" >  T  T  F </v>
   <v type="logical" >  F  F  F </v>
   <v type="logical" >  T  T  F </v>
   <v type="logical" >  F  F  F </v>
   <v type="logical" >  T  T  F </v>
   <v type="logical" >  F  F  F </v>
   <v type="logical" >  T  T  F </v>
   <v type="logical" >  T  T  F </v>
   <v type="logical" >  F  F  F </v>
   <v type="logical" >  F  F  F </v>
   <v type="logical" >  F  F  F </v>
   <v type="logical" >  T  T  F </v>
   <v type="logical" >  T  T  F </v>
   <v type="logical" >  F  F  F </v>
   <v type="logical" >  F  F  F </v>
   <v type="logical" >  F  F  F </v>
   <v type="logical" >  T  T  F </v>
   <v type="logical" >  T  T  F </v>
   <v type="logical" >  F  F  F </v>
   <v type="logical" >  F  F  F </v>
   <v type="logical" >  T  T  F </v>
   <v type="logical" >  T  T  F </v>
   <v type="logical" >  F  F  F </v>
   <v type="logical" >  F  F  F </v>
   <v type="logical" >  T  T  F </v>
   <v type="logical" >  T  T  F </v>
   <v type="logical" >  T  T  F </v>
   <v type="logical" >  F  F  F </v>
   <v type="logical" >  T  T  F </v>
   <v type="logical" >  T  T  F </v>
   <v type="logical" >  F  F  F </v>
   <v type="logical" >  F  F  F </v>
   <v type="logical" >  T  T  F </v>
   <v type="logical" >  T  T  F </v>
   <v type="logical" >  F  F  F </v>
   <v type="logical" >  F  F  F </v>
   <v type="logical" >  T  T  F </v>
   <v type="logical" >  T  T  F </v>
   <v type="logical" >  F  F  F </v>
   <v type="logical" >  F  F  F </v>
   <v type="logical" >  F  F  F </v>
   <v type="logical" >  T  T  F </v>
   <v type="logical" >  F  F  F </v>
   <v type="logical" >  F  F  F </v>
   <v type="logical" >  F  F  F </v>
   <v type="logical" >  T  T  F </v>
   <v type="logical" >  T  T  F </v>
   <v type="logical" >  F  F  F </v>
   <v type="logical" >  F  F  F </v>
   <v type="logical" >  T  T  F </v>
   <v type="logical" >  T  T  F </v>
   <v type="logical" >  F  F  F </v>
   <v type="logical" >  F  F  F </v>
   <v type="logical" >  T  T  F </v>
   <v type="logical" >  T  T  F </v>
   <v type="logical" >  F  F  F </v>
   <v type="logical" >  F  F  F </v>
   <v type="logical" >  T  T  F </v>
   <v type="logical" >  T  T  F </v>
   <v type="logical" >  F  F  F </v>
   <v type="logical" >  F  F  F </v>
   <v type="logical" >  T  T  F </v>
   <v type="logical" >  T  T  F </v>
   <v type="logical" >  F  F  F </v>
   <v type="logical" >  F  F  F </v>
   <v type="logical" >  T  T  F </v>
   <v type="logical" >  T  T  F </v>
   <v type="logical" >  F  F  F </v>
   <v type="logical" >  F  F  F </v>
   <v type="logical" >  T  T  F </v>
   <v type="logical" >  T  T  F </v>
   <v type="logical" >  T  T  F </v>
   <v type="logical" >  T  T  F </v>
  </varray>
  <nose>
   <v>      -3.00000000       0.00000000       0.00010000       0.00010000 </v>
  </nose>
 </structure>
 <calculation>
  <scstep>
   <time name="dav">   11.04   11.20</time>
   <time name="total">   11.45   11.92</time>
   <energy>
    <i name="alphaZ">   1150.89500911 </i>
    <i name="ewald">  87566.18791105 </i>
    <i name="hartreedc">-125539.52533227 </i>
    <i name="XCdc">  -1684.38781751 </i>
    <i name="pawpsdc">  36411.78182824 </i>
    <i name="pawaedc"> -32520.45026120 </i>
    <i name="eentropy">     -0.28680078 </i>
    <i name="bandstr">   1876.27522836 </i>
    <i name="atom">  40430.53995508 </i>
    <i name="e_fr_energy">   7691.02972006 </i>
    <i name="e_wo_entrp">   7691.31652084 </i>
    <i name="e_0_energy">   7691.17312045 </i>
   </energy>
  </scstep>
  <scstep>
   <time name="dav">   13.54   13.72</time>
   <time name="total">   13.54   13.73</time>
   <energy>
    <i name="e_fr_energy">   -246.04271310 </i>
    <i name="e_wo_entrp">   -245.93226544 </i>
    <i name="e_0_energy">   -245.98748927 </i>
   </energy>
  </scstep>
  <scstep>
   <time name="dav">   11.95   12.64</time>
   <time name="total">   11.95   12.64</time>
   <energy>
    <i name="e_fr_energy">  -1262.18263761 </i>
    <i name="e_wo_entrp">  -1262.18263753 </i>
    <i name="e_0_energy">  -1262.18263757 </i>
   </energy>
  </scstep>
  <scstep>
   <time name="dav">   15.00   15.62</time>
   <time name="total">   15.00   15.62</time>
   <energy>
    <i name="e_fr_energy">  -1320.96533219 </i>
    <i name="e_wo_entrp">  -1320.96533219 </i>
    <i name="e_0_energy">  -1320.96533219 </i>
   </energy>
  </scstep>
  <scstep>
   <time name="dav">   14.29   14.91</time>
   <time name="total">   15.33   15.97</time>
   <energy>
    <i name="e_fr_energy">  -1323.07278273 </i>
    <i name="e_wo_entrp">  -1323.07278273 </i>
    <i name="e_0_energy">  -1323.07278273 </i>
   </energy>
  </scstep>
  <scstep>
   <time name="dav">   13.45   13.60</time>
   <time name="total">   14.89   15.29</time>
   <energy>
    <i name="e_fr_energy">  -1275.91040368 </i>
    <i name="e_wo_entrp">  -1275.75776228 </i>
    <i name="e_0_energy">  -1275.83408298 </i>
   </energy>
  </scstep>
  <scstep>
   <time name="dav">   14.63   14.75</time>
   <time name="total">   16.20   16.74</time>
   <energy>
    <i name="e_fr_energy">  -1296.60999535 </i>
    <i name="e_wo_entrp">  -1296.17723203 </i>
    <i name="e_0_energy">  -1296.39361369 </i>
   </energy>
  </scstep>
  <scstep>
   <time name="dav">   12.41   12.51</time>
   <time name="total">   14.73   15.50</time>
   <energy>
    <i name="e_fr_energy">  -1231.97923724 </i>
    <i name="e_wo_entrp">  -1231.73268300 </i>
    <i name="e_0_energy">  -1231.85596012 </i>
   </energy>
  </scstep>
  <scstep>
   <time name="dav">   14.82   14.94</time>
   <time name="total">   16.25   18.87</time>
   <energy>
    <i name="e_fr_energy">  -1238.49434696 </i>
    <i name="e_wo_entrp">  -1238.28744116 </i>
    <i name="e_0_energy">  -1238.39089406 </i>
   </energy>
  </scstep>
  <scstep>
   <time name="dav">   15.48   15.61</time>
   <time name="total">   17.08   18.18</time>
   <energy>
    <i name="e_fr_energy">  -1221.82011935 </i>
    <i name="e_wo_entrp">  -1221.57214877 </i>
    <i name="e_0_energy">  -1221.69613406 </i>
   </energy>
  </scstep>
  <scstep>
   <time name="dav">   14.19   14.31</time>
   <time name="total">   15.62   15.85</time>
   <energy>
    <i name="e_fr_energy">  -1224.33216907 </i>
    <i name="e_wo_entrp">  -1224.29238165 </i>
    <i name="e_0_energy">  -1224.31227536 </i>
   </energy>
  </scstep>
  <scstep>
   <time name="dav">   13.34   13.45</time>
   <time name="total">   14.85   15.39</time>
   <energy>
    <i name="e_fr_energy">  -1224.20745777 </i>
    <i name="e_wo_entrp">  -1224.11605957 </i>
    <i name="e_0_energy">  -1224.16175867 </i>
   </energy>
  </scstep>
  <scstep>
   <time name="dav">   15.73   15.95</time>
   <time name="total">   17.29   18.37</time>
   <energy>
    <i name="e_fr_energy">  -1224.12704834 </i>
    <i name="e_wo_entrp">  -1223.89665586 </i>
    <i name="e_0_energy">  -1224.01185210 </i>
   </energy>
  </scstep>
  <scstep>
   <time name="dav">   14.11   14.23</time>
   <time name="total">   15.84   16.42</time>
   <energy>
    <i name="e_fr_energy">  -1223.95476027 </i>
    <i name="e_wo_entrp">  -1223.88322617 </i>
    <i name="e_0_energy">  -1223.91899322 </i>
   </energy>
  </scstep>
  <scstep>
   <time name="dav">   14.52   14.64</time>
   <time name="total">   15.96   16.12</time>
   <energy>
    <i name="e_fr_energy">  -1227.02255452 </i>
    <i name="e_wo_entrp">  -1226.81576015 </i>
    <i name="e_0_energy">  -1226.91915734 </i>
   </energy>
  </scstep>
  <scstep>
   <time name="dav">   14.64   14.76</time>
   <time name="total">   16.08   16.52</time>
   <energy>
    <i name="e_fr_energy">  -1224.88675310 </i>
    <i name="e_wo_entrp">  -1224.85923822 </i>
    <i name="e_0_energy">  -1224.87299566 </i>
   </energy>
  </scstep>
  <scstep>
   <time name="dav">   13.10   13.22</time>
   <time name="total">   14.77   15.97</time>
   <energy>
    <i name="e_fr_energy">  -1225.08207379 </i>
    <i name="e_wo_entrp">  -1224.97750786 </i>
    <i name="e_0_energy">  -1225.02979082 </i>
   </energy>
  </scstep>
  <scstep>
   <time name="dav">   13.43   13.54</time>
   <time name="total">   14.87   15.35</time>
   <energy>
    <i name="e_fr_energy">  -1225.66955375 </i>
    <i name="e_wo_entrp">  -1225.65632745 </i>
    <i name="e_0_energy">  -1225.66294060 </i>
   </energy>
  </scstep>
  <scstep>
   <time name="dav">   14.36   14.48</time>
   <time name="total">   15.89   16.26</time>
   <energy>
    <i name="e_fr_energy">  -1225.21233903 </i>
    <i name="e_wo_entrp">  -1224.94972320 </i>
    <i name="e_0_energy">  -1225.08103112 </i>
   </energy>
  </scstep>
  <scstep>
   <time name="dav">   12.32   12.43</time>
   <time name="total">   13.86   14.11</time>
   <energy>
    <i name="e_fr_energy">  -1224.53613564 </i>
    <i name="e_wo_entrp">  -1224.36817198 </i>
    <i name="e_0_energy">  -1224.45215381 </i>
   </energy>
  </scstep>
  <scstep>
   <time name="dav">   14.49   14.61</time>
   <time name="total">   16.13   18.12</time>
   <energy>
    <i name="e_fr_energy">  -1224.16341148 </i>
    <i name="e_wo_entrp">  -1223.91521176 </i>
    <i name="e_0_energy">  -1224.03931162 </i>
   </energy>
  </scstep>
  <scstep>
   <time name="dav">   13.38   13.49</time>
   <time name="total">   14.92   15.79</time>
   <energy>
    <i name="e_fr_energy">  -1223.73041804 </i>
    <i name="e_wo_entrp">  -1223.48408470 </i>
    <i name="e_0_energy">  -1223.60725137 </i>
   </energy>
  </scstep>
  <scstep>
   <time name="dav">   13.96   14.07</time>
   <time name="total">   15.84   17.76</time>
   <energy>
    <i name="e_fr_energy">  -1223.63321587 </i>
    <i name="e_wo_entrp">  -1223.45591341 </i>
    <i name="e_0_energy">  -1223.54456464 </i>
   </energy>
  </scstep>
  <scstep>
   <time name="dav">   12.72   12.82</time>
   <time name="total">   14.25   14.86</time>
   <energy>
    <i name="e_fr_energy">  -1223.58369514 </i>
    <i name="e_wo_entrp">  -1223.37405446 </i>
    <i name="e_0_energy">  -1223.47887480 </i>
   </energy>
  </scstep>
  <scstep>
   <time name="dav">   12.63   12.74</time>
   <time name="total">   14.19   14.35</time>
   <energy>
    <i name="e_fr_energy">  -1223.39615253 </i>
    <i name="e_wo_entrp">  -1223.30857951 </i>
    <i name="e_0_energy">  -1223.35236602 </i>
   </energy>
  </scstep>
  <scstep>
   <time name="dav">   13.65   13.75</time>
   <time name="total">   15.20   15.50</time>
   <energy>
    <i name="e_fr_energy">  -1223.28681333 </i>
    <i name="e_wo_entrp">  -1223.14474868 </i>
    <i name="e_0_energy">  -1223.21578100 </i>
   </energy>
  </scstep>
  <scstep>
   <time name="dav">   13.53   13.65</time>
   <time name="total">   15.61   16.47</time>
   <energy>
    <i name="e_fr_energy">  -1223.28773172 </i>
    <i name="e_wo_entrp">  -1223.19861834 </i>
    <i name="e_0_energy">  -1223.24317503 </i>
   </energy>
  </scstep>
  <scstep>
   <time name="dav">   12.42   12.53</time>
   <time name="total">   13.95   14.65</time>
   <energy>
    <i name="e_fr_energy">  -1223.26690505 </i>
    <i name="e_wo_entrp">  -1223.11887018 </i>
    <i name="e_0_energy">  -1223.19288761 </i>
   </energy>
  </scstep>
  <scstep>
   <time name="dav">   12.37   12.47</time>
   <time name="total">   14.26   16.26</time>
   <energy>
    <i name="e_fr_energy">  -1223.26610129 </i>
    <i name="e_wo_entrp">  -1223.18173273 </i>
    <i name="e_0_energy">  -1223.22391701 </i>
   </energy>
  </scstep>
  <scstep>
   <time name="dav">   13.41   13.52</time>
   <time name="total">   14.94   15.27</time>
   <energy>
    <i name="e_fr_energy">  -1223.19785258 </i>
    <i name="e_wo_entrp">  -1223.04736526 </i>
    <i name="e_0_energy">  -1223.12260892 </i>
   </energy>
  </scstep>
  <scstep>
   <time name="dav">   13.14   13.25</time>
   <time name="total">   14.66   15.15</time>
   <energy>
    <i name="e_fr_energy">  -1223.22260489 </i>
    <i name="e_wo_entrp">  -1223.14119782 </i>
    <i name="e_0_energy">  -1223.18190136 </i>
   </energy>
  </scstep>
  <scstep>
   <time name="dav">   14.14   14.27</time>
   <time name="total">   15.88   17.32</time>
   <energy>
    <i name="e_fr_energy">  -1223.04070540 </i>
    <i name="e_wo_entrp">  -1222.89620613 </i>
    <i name="e_0_energy">  -1222.96845577 </i>
   </energy>
  </scstep>
  <scstep>
   <time name="dav">   14.12   14.24</time>
   <time name="total">   15.67   16.30</time>
   <energy>
    <i name="e_fr_energy">  -1222.99525583 </i>
    <i name="e_wo_entrp">  -1222.90321757 </i>
    <i name="e_0_energy">  -1222.94923670 </i>
   </energy>
  </scstep>
  <scstep>
   <time name="dav">   14.04   14.19</time>
   <time name="total">   15.58   16.26</time>
   <energy>
    <i name="e_fr_energy">  -1222.88715752 </i>
    <i name="e_wo_entrp">  -1222.72339447 </i>
    <i name="e_0_energy">  -1222.80527599 </i>
   </energy>
  </scstep>
  <scstep>
   <time name="dav">   13.54   13.65</time>
   <time name="total">   15.09   16.05</time>
   <energy>
    <i name="e_fr_energy">  -1222.88116860 </i>
    <i name="e_wo_entrp">  -1222.75241929 </i>
    <i name="e_0_energy">  -1222.81679394 </i>
   </energy>
  </scstep>
  <scstep>
   <time name="dav">   12.73   12.87</time>
   <time name="total">   14.30   14.93</time>
   <energy>
    <i name="e_fr_energy">  -1222.83683727 </i>
    <i name="e_wo_entrp">  -1222.61074788 </i>
    <i name="e_0_energy">  -1222.72379257 </i>
   </energy>
  </scstep>
  <scstep>
   <time name="dav">   12.33   12.43</time>
   <time name="total">   13.88   15.16</time>
   <energy>
    <i name="e_fr_energy">  -1222.83113355 </i>
    <i name="e_wo_entrp">  -1222.68692128 </i>
    <i name="e_0_energy">  -1222.75902742 </i>
   </energy>
  </scstep>
  <scstep>
   <time name="dav">   12.99   13.09</time>
   <time name="total">   14.53   14.81</time>
   <energy>
    <i name="e_fr_energy">  -1222.79654979 </i>
    <i name="e_wo_entrp">  -1222.61800817 </i>
    <i name="e_0_energy">  -1222.70727898 </i>
   </energy>
  </scstep>
  <scstep>
   <time name="dav">   12.78   12.89</time>
   <time name="total">   14.34   14.46</time>
   <energy>
    <i name="e_fr_energy">  -1222.78617410 </i>
    <i name="e_wo_entrp">  -1222.62356668 </i>
    <i name="e_0_energy">  -1222.70487039 </i>
   </energy>
  </scstep>
  <scstep>
   <time name="dav">   12.76   12.87</time>
   <time name="total">   14.30   15.37</time>
   <energy>
    <i name="e_fr_energy">  -1222.76323263 </i>
    <i name="e_wo_entrp">  -1222.59478664 </i>
    <i name="e_0_energy">  -1222.67900963 </i>
   </energy>
  </scstep>
  <scstep>
   <time name="dav">   12.94   13.05</time>
   <time name="total">   14.49   14.61</time>
   <energy>
    <i name="e_fr_energy">  -1222.76256014 </i>
    <i name="e_wo_entrp">  -1222.63857761 </i>
    <i name="e_0_energy">  -1222.70056887 </i>
   </energy>
  </scstep>
  <scstep>
   <time name="dav">   12.64   12.74</time>
   <time name="total">   14.19   14.58</time>
   <energy>
    <i name="e_fr_energy">  -1222.75330033 </i>
    <i name="e_wo_entrp">  -1222.61707934 </i>
    <i name="e_0_energy">  -1222.68518984 </i>
   </energy>
  </scstep>
  <scstep>
   <time name="dav">   11.00   11.08</time>
   <time name="total">   12.55   14.79</time>
   <energy>
    <i name="e_fr_energy">  -1222.75734034 </i>
    <i name="e_wo_entrp">  -1222.63387902 </i>
    <i name="e_0_energy">  -1222.69560968 </i>
   </energy>
  </scstep>
  <scstep>
   <time name="dav">    9.54    9.62</time>
   <time name="total">   11.11   11.19</time>
   <energy>
    <i name="e_fr_energy">  -1222.75315840 </i>
    <i name="e_wo_entrp">  -1222.62062113 </i>
    <i name="e_0_energy">  -1222.68688977 </i>
   </energy>
  </scstep>
  <scstep>
   <time name="dav">    9.72    9.81</time>
   <time name="total">   11.33   12.33</time>
   <energy>
    <i name="e_fr_energy">  -1222.75765373 </i>
    <i name="e_wo_entrp">  -1222.63430645 </i>
    <i name="e_0_energy">  -1222.69598009 </i>
   </energy>
  </scstep>
  <scstep>
   <time name="dav">   11.73   11.83</time>
   <time name="total">   13.70   15.57</time>
   <energy>
    <i name="e_fr_energy">  -1222.75831297 </i>
    <i name="e_wo_entrp">  -1222.63222732 </i>
    <i name="e_0_energy">  -1222.69527014 </i>
   </energy>
  </scstep>
  <scstep>
   <time name="dav">   12.62   12.72</time>
   <time name="total">   14.17   14.32</time>
   <energy>
    <i name="e_fr_energy">  -1222.76544687 </i>
    <i name="e_wo_entrp">  -1222.64359291 </i>
    <i name="e_0_energy">  -1222.70451989 </i>
   </energy>
  </scstep>
  <scstep>
   <time name="dav">   11.96   12.06</time>
   <time name="total">   13.52   13.66</time>
   <energy>
    <i name="e_fr_energy">  -1222.76702047 </i>
    <i name="e_wo_entrp">  -1222.64316798 </i>
    <i name="e_0_energy">  -1222.70509422 </i>
   </energy>
  </scstep>
  <scstep>
   <time name="dav">   10.77   10.86</time>
   <time name="total">   12.33   12.80</time>
   <energy>
    <i name="e_fr_energy">  -1222.76888528 </i>
    <i name="e_wo_entrp">  -1222.64193031 </i>
    <i name="e_0_energy">  -1222.70540780 </i>
   </energy>
  </scstep>
  <scstep>
   <time name="dav">    9.59    9.67</time>
   <time name="total">   11.19   12.13</time>
   <energy>
    <i name="e_fr_energy">  -1222.76926348 </i>
    <i name="e_wo_entrp">  -1222.63911285 </i>
    <i name="e_0_energy">  -1222.70418817 </i>
   </energy>
  </scstep>
  <scstep>
   <time name="dav">    9.27    9.35</time>
   <time name="total">   11.18   11.69</time>
   <energy>
    <i name="e_fr_energy">  -1222.76809325 </i>
    <i name="e_wo_entrp">  -1222.63615297 </i>
    <i name="e_0_energy">  -1222.70212311 </i>
   </energy>
  </scstep>
  <scstep>
   <time name="dav">    8.48    8.55</time>
   <time name="total">   10.05   10.39</time>
   <energy>
    <i name="e_fr_energy">  -1222.76820789 </i>
    <i name="e_wo_entrp">  -1222.63517880 </i>
    <i name="e_0_energy">  -1222.70169334 </i>
   </energy>
  </scstep>
  <scstep>
   <time name="dav">    7.53    7.59</time>
   <time name="total">    9.10    9.17</time>
   <energy>
    <i name="e_fr_energy">  -1222.76855113 </i>
    <i name="e_wo_entrp">  -1222.63555278 </i>
    <i name="e_0_energy">  -1222.70205195 </i>
   </energy>
  </scstep>
  <scstep>
   <time name="dav">    9.22    9.30</time>
   <time name="total">   10.86   10.94</time>
   <energy>
    <i name="e_fr_energy">  -1222.76984069 </i>
    <i name="e_wo_entrp">  -1222.63874337 </i>
    <i name="e_0_energy">  -1222.70429203 </i>
   </energy>
  </scstep>
  <scstep>
   <time name="dav">    9.01    9.08</time>
   <time name="total">   10.81   11.98</time>
   <energy>
    <i name="e_fr_energy">  -1222.77061849 </i>
    <i name="e_wo_entrp">  -1222.63775018 </i>
    <i name="e_0_energy">  -1222.70418434 </i>
   </energy>
  </scstep>
  <scstep>
   <time name="dav">   10.39   10.47</time>
   <time name="total">   12.28   12.89</time>
   <energy>
    <i name="e_fr_energy">  -1222.77287374 </i>
    <i name="e_wo_entrp">  -1222.63980113 </i>
    <i name="e_0_energy">  -1222.70633743 </i>
   </energy>
  </scstep>
  <scstep>
   <time name="dav">    9.09    9.16</time>
   <time name="total">   10.66   10.75</time>
   <energy>
    <i name="e_fr_energy">  -1222.77253276 </i>
    <i name="e_wo_entrp">  -1222.63980460 </i>
    <i name="e_0_energy">  -1222.70616868 </i>
   </energy>
  </scstep>
  <scstep>
   <time name="dav">    7.19    7.26</time>
   <time name="total">    8.76    9.86</time>
   <energy>
    <i name="e_fr_energy">  -1222.77211999 </i>
    <i name="e_wo_entrp">  -1222.64083151 </i>
    <i name="e_0_energy">  -1222.70647575 </i>
   </energy>
  </scstep>
  <scstep>
   <time name="dav">    7.62    7.70</time>
   <time name="total">    9.18    9.39</time>
   <energy>
    <i name="e_fr_energy">  -1222.77126255 </i>
    <i name="e_wo_entrp">  -1222.63880374 </i>
    <i name="e_0_energy">  -1222.70503315 </i>
   </energy>
  </scstep>
  <scstep>
   <time name="dav">    7.43    7.49</time>
   <time name="total">    8.99    9.06</time>
   <energy>
    <i name="e_fr_energy">  -1222.77112348 </i>
    <i name="e_wo_entrp">  -1222.64020027 </i>
    <i name="e_0_energy">  -1222.70566187 </i>
   </energy>
  </scstep>
  <scstep>
   <time name="dav">    7.38    7.44</time>
   <time name="total">    8.95    9.02</time>
   <energy>
    <i name="e_fr_energy">  -1222.77144114 </i>
    <i name="e_wo_entrp">  -1222.64250564 </i>
    <i name="e_0_energy">  -1222.70697339 </i>
   </energy>
  </scstep>
  <scstep>
   <time name="dav">    7.09    7.15</time>
   <time name="total">    7.52   10.11</time>
   <energy>
    <i name="alphaZ">   1150.89500911 </i>
    <i name="ewald">  87566.18791105 </i>
    <i name="hartreedc">-126289.10183871 </i>
    <i name="XCdc">  -1619.33759838 </i>
    <i name="pawpsdc">  82479.63660909 </i>
    <i name="pawaedc"> -78673.86155627 </i>
    <i name="eentropy">     -0.12887732 </i>
    <i name="bandstr">  -6267.60115388 </i>
    <i name="atom">  40430.53995508 </i>
    <i name="e_fr_energy">  -1222.77154024 </i>
    <i name="e_wo_entrp">  -1222.64266292 </i>
    <i name="e_0_energy">  -1222.70710158 </i>
   </energy>
  </scstep>
  <structure>
   <crystal>
    <varray name="basis" >
     <v>      15.90000000       0.00000000       0.00000000 </v>
     <v>      -7.95000000      13.76980392       0.00000000 </v>
     <v>       0.00000000       0.00000000      32.38000000 </v>
    </varray>
    <i name="volume">   7089.27338987 </i>
    <varray name="rec_basis" >
     <v>       0.06289308       0.03631134       0.00000000 </v>
     <v>       0.00000000       0.07262268       0.00000000 </v>
     <v>       0.00000000       0.00000000       0.03088326 </v>
    </varray>
   </crystal>
   <varray name="positions" >
    <v>       0.38749812       0.39775414       0.50081061 </v>
    <v>       0.34008887       0.43095625       0.47356413 </v>
    <v>       0.48847557       0.46833743       0.50168822 </v>
    <v>       0.50425372       0.54694278       0.47468457 </v>
    <v>       0.41140320       0.52314929       0.45714069 </v>
    <v>       0.39290210       0.30727123       0.39510545 </v>
    <v>       0.53395102       0.45382423       0.38216486 </v>
    <v>       0.43095365       0.40019277       0.37479037 </v>
    <v>       0.55896294       0.39476574       0.40646236 </v>
    <v>       0.47286163       0.30500936       0.41459700 </v>
    <v>       0.45220791       0.42122734       0.43869440 </v>
    <v>       0.39765155       0.56774795       0.43581976 </v>
    <v>       0.38983010       0.42422047       0.35629573 </v>
    <v>       0.31777035       0.24863276       0.39491758 </v>
    <v>       0.58394713       0.52721186       0.37162922 </v>
    <v>       0.63083757       0.41673784       0.41865236 </v>
    <v>       0.26345261       0.39141356       0.46545041 </v>
    <v>       0.35322846       0.32807900       0.51666215 </v>
    <v>       0.54369553       0.46303596       0.51945661 </v>
    <v>       0.57292650       0.61336897       0.46954195 </v>
    <v>       0.46837586       0.24609727       0.43334125 </v>
    <v>       0.60000000       0.60000000       0.65735022 </v>
    <v>       0.20000000       0.80000000       0.21911674 </v>
    <v>       0.20000000       0.60000000       0.65735022 </v>
    <v>       0.60000000       0.80000000       0.21911674 </v>
    <v>       0.20000000       0.60000000       0.21911674 </v>
    <v>       0.60000000       0.80000000       0.65735022 </v>
    <v>       0.20000000       0.40000000       0.21911674 </v>
    <v>       0.80000000       0.00000000       0.21911674 </v>
[...]
       <r>    -0.5924     0.0000   952.0000 </r>
       <r>    -0.5212     0.0000   952.0000 </r>
       <r>    -0.4499     0.0000   952.0000 </r>
       <r>    -0.3787     0.0000   952.0000 </r>
       <r>    -0.3075     0.0014   952.0001 </r>
       <r>    -0.2363     0.0533   952.0039 </r>
       <r>    -0.1651     0.7903   952.0602 </r>
       <r>    -0.0939     4.5405   952.3835 </r>
       <r>    -0.0226    10.3840   953.1230 </r>
       <r>     0.0486    11.3818   953.9336 </r>
       <r>     0.1198    14.1222   954.9393 </r>
       <r>     0.1910    23.2470   956.5949 </r>
       <r>     0.2622    38.8422   959.3610 </r>
       <r>     0.3334    94.6159   966.0992 </r>
       <r>     0.4046   162.3763   977.6629 </r>
       <r>     0.4759   218.7346   993.2402 </r>
       <r>     0.5471   297.7456  1014.4443 </r>
       <r>     0.6183   289.0423  1035.0286 </r>
       <r>     0.6895   184.8548  1048.1932 </r>
       <r>     0.7607    80.9628  1053.9590 </r>
       <r>     0.8319    98.8588  1060.9993 </r>
       <r>     0.9032   271.0314  1080.3009 </r>
       <r>     0.9744   385.2423  1107.7362 </r>
       <r>     1.0456   305.8845  1129.5199 </r>
       <r>     1.1168   198.5873  1143.6624 </r>
       <r>     1.1880   135.8035  1153.3338 </r>
       <r>     1.2592   120.6982  1161.9294 </r>
       <r>     1.3304    83.1617  1167.8518 </r>
       <r>     1.4017    26.5175  1169.7402 </r>
       <r>     1.4729     3.4644  1169.9870 </r>
       <r>     1.5441     0.1796  1169.9997 </r>
       <r>     1.6153     0.0036  1170.0000 </r>
       <r>     1.6865     0.0000  1170.0000 </r>
       <r>     1.7577     0.0000  1170.0000 </r>
       <r>     1.8290     0.0000  1170.0000 </r>
       <r>     1.9002     0.0000  1170.0000 </r>
       <r>     1.9714     0.0000  1170.0000 </r>
       <r>     2.0426     0.0000  1170.0000 </r>
       <r>     2.1138     0.0000  1170.0000 </r>
       <r>     2.1850     0.0000  1170.0000 </r>
       <r>     2.2563     0.0000  1170.0000 </r>
      </set>
     </set>
    </array>
   </total>
  </dos>
 </calculation>
 <structure name="finalpos" >
  <crystal>
   <varray name="basis" >
    <v>      15.90000000       0.00000000       0.00000000 </v>
    <v>      -7.95000000      13.76980392       0.00000000 </v>
    <v>       0.00000000       0.00000000      32.38000000 </v>
   </varray>
   <i name="volume">   7089.27338987 </i>
   <varray name="rec_basis" >
    <v>       0.06289308       0.03631134       0.00000000 </v>
    <v>       0.00000000       0.07262268       0.00000000 </v>
    <v>       0.00000000       0.00000000       0.03088326 </v>
   </varray>
  </crystal>
  <varray name="positions" >
   <v>       0.38743088       0.39788068       0.50081061 </v>
   <v>       0.33998383       0.43099284       0.47356413 </v>
   <v>       0.48834109       0.46849136       0.50168822 </v>
   <v>       0.50407135       0.54701400       0.47468457 </v>
   <v>       0.41124126       0.52318569       0.45714069 </v>
   <v>       0.39302526       0.30731721       0.39510545 </v>
   <v>       0.53408247       0.45371034       0.38216486 </v>
   <v>       0.43110832       0.40021854       0.37479037 </v>
   <v>       0.55900916       0.39459731       0.40646236 </v>
   <v>       0.47289939       0.30493187       0.41459700 </v>
   <v>       0.45217972       0.42123461       0.43869440 </v>
   <v>       0.39747525       0.56772818       0.43581976 </v>
   <v>       0.39001549       0.42438822       0.35629573 </v>
   <v>       0.31786714       0.24883212       0.39491758 </v>
   <v>       0.58400740       0.52711404       0.37162922 </v>
   <v>       0.63084937       0.41652242       0.41865236 </v>
   <v>       0.26337040       0.39130129       0.46545041 </v>
   <v>       0.35344102       0.32822356       0.51666215 </v>
   <v>       0.54347373       0.46308321       0.51945661 </v>
   <v>       0.57281524       0.61332981       0.46954195 </v>
   <v>       0.46828199       0.24599557       0.43334125 </v>
   <v>       0.59996739       0.59996256       0.65735022 </v>
   <v>       0.20000000       0.80000000       0.21911674 </v>
   <v>       0.20002834       0.60000475       0.65735022 </v>
   <v>       0.60000000       0.80000000       0.21911674 </v>
   <v>       0.20000000       0.60000000       0.21911674 </v>
   <v>       0.59999923       0.79996951       0.65735022 </v>
   <v>       0.20000000       0.40000000       0.21911674 </v>
   <v>       0.80000000       0.00000000       0.21911674 </v>
   <v>       0.19998373       0.19999755       0.65735022 </v>
   <v>       0.79999847      -0.00000628       0.65735022 </v>
   <v>       0.20000000       0.20000000       0.21911674 </v>
   <v>       0.19999713       0.80000553       0.65735022 </v>
   <v>       0.20006334       0.40001321       0.65735022 </v>
   <v>       0.60000000       0.60000000       0.21911674 </v>
   <v>       0.40000000       0.60000000       0.21911674 </v>
   <v>       0.39998217      -0.00000748       0.65735022 </v>
   <v>       0.59997429       0.40002247       0.65735022 </v>
   <v>       0.40000000       0.20000000       0.21911674 </v>
   <v>       0.60000000       0.40000000       0.21911674 </v>
   <v>       0.39996717       0.19998521       0.65735022 </v>
   <v>       0.40000000       0.40000000       0.21911674 </v>
   <v>       0.60002465       0.20000602       0.65735022 </v>
   <v>       0.40004205       0.40004273       0.65735022 </v>
   <v>       0.60000000       0.20000000       0.21911674 </v>
   <v>       0.39999864       0.79997536       0.65735022 </v>
   <v>       0.40001049       0.59995708       0.65735022 </v>
   <v>       0.60002057      -0.00002015       0.65735022 </v>
   <v>       0.40000000       0.80000000       0.21911674 </v>
   <v>       0.60000000       0.00000000       0.21911674 </v>
   <v>       0.40000000       0.00000000       0.21911674 </v>
   <v>       0.80000000       0.20000000       0.21911674 </v>
   <v>       0.19999965       0.00000877       0.65735022 </v>
   <v>       0.20000000       0.00000000       0.21911674 </v>
   <v>       0.00000000       0.00000000       0.21911674 </v>
   <v>       0.79999699       0.80001223       0.65735022 </v>
   <v>      -0.00001335      -0.00000205       0.65735022 </v>
   <v>       0.80000000       0.80000000       0.21911674 </v>
   <v>       0.00000000       0.20000000       0.21911674 </v>
   <v>       0.00000796       0.20000092       0.65735022 </v>
   <v>       0.80000689       0.60003405       0.65735022 </v>
   <v>       0.00000000       0.40000000       0.21911674 </v>
   <v>       0.00002895       0.39997639       0.65735022 </v>
   <v>       0.00000000       0.60000000       0.21911674 </v>
   <v>       0.79998765       0.39997837       0.65735022 </v>
   <v>       0.00000219       0.60002596       0.65735022 </v>
   <v>       0.80000000       0.60000000       0.21911674 </v>
   <v>       0.80000000       0.40000000       0.21911674 </v>
   <v>      -0.00000412       0.80000833       0.65735022 </v>
   <v>       0.00000000       0.80000000       0.21911674 </v>
   <v>       0.80001042       0.19998192       0.65735022 </v>
   <v>       0.93333333       0.06666667       0.16985794 </v>
   <v>       0.73334921       0.26665101       0.60809141 </v>
   <v>       0.73334370       0.26665661       0.70660902 </v>
   <v>       0.93332793       0.66668306       0.70660902 </v>
   <v>       0.93333967       0.66669102       0.60809141 </v>
   <v>       0.73333333       0.26666667       0.16985794 </v>
   <v>       0.73333333       0.26666667       0.26837554 </v>
   <v>       0.93333333       0.46666667       0.26837554 </v>
   <v>       0.73334417       0.06664949       0.60809141 </v>
   <v>       0.73334671       0.06665741       0.70660902 </v>
   <v>       0.93332849       0.06667064       0.70660902 </v>
   <v>       0.93333333       0.86666667       0.16985794 </v>
   <v>       0.73333333       0.06666667       0.16985794 </v>
   <v>       0.93331902       0.06667353       0.60809141 </v>
   <v>       0.73333333       0.06666667       0.26837554 </v>
   <v>       0.93333333       0.26666667       0.16985794 </v>
   <v>       0.93333575       0.26664485       0.70660902 </v>
   <v>       0.93333333       0.86666667       0.26837554 </v>
   <v>       0.73333333       0.46666667       0.26837554 </v>
   <v>       0.73333333       0.46666667       0.16985794 </v>
   <v>       0.73333333       0.86666667       0.16985794 </v>
   <v>       0.73334407       0.86666998       0.70660902 </v>
   <v>       0.73333333       0.86666667       0.26837554 </v>
   <v>       0.93333333       0.46666667       0.16985794 </v>
   <v>       0.73330274       0.86664298       0.60809141 </v>
   <v>       0.73328560       0.66664997       0.60809141 </v>
   <v>       0.73329837       0.66666815       0.70660902 </v>
   <v>       0.93333529       0.46665998       0.70660902 </v>
   <v>       0.73333333       0.66666667       0.16985794 </v>
   <v>       0.93335435       0.46666366       0.60809141 </v>
   <v>       0.73333333       0.66666667       0.26837554 </v>
   <v>       0.93334285       0.26665051       0.60809141 </v>
   <v>       0.93333333       0.26666667       0.26837554 </v>
   <v>       0.73332443       0.46671223       0.60809141 </v>
   <v>       0.73331627       0.46667219       0.70660902 </v>
   <v>       0.93333333       0.66666667       0.26837554 </v>
   <v>       0.93333333       0.06666667       0.26837554 </v>
   <v>       0.93333333       0.66666667       0.16985794 </v>
   <v>       0.53333179       0.86661834       0.60809141 </v>
   <v>       0.53334009       0.06666490       0.70660902 </v>
   <v>       0.53333333       0.86666667       0.16985794 </v>
   <v>       0.33333333       0.26666667       0.16985794 </v>
   <v>       0.33333333       0.26666667       0.26837554 </v>
   <v>       0.33331159       0.06664452       0.60809141 </v>
   <v>       0.33332961       0.06667513       0.70660902 </v>
   <v>       0.33333333       0.06666667       0.16985794 </v>
   <v>       0.33333333       0.06666667       0.26837554 </v>
   <v>       0.13333213       0.86667195       0.60809141 </v>
   <v>       0.13333285       0.86667794       0.70660902 </v>
   <v>       0.13333333       0.86666667       0.16985794 </v>
   <v>       0.13333333       0.86666667       0.26837554 </v>
   <v>       0.13335044       0.66667440       0.60809141 </v>
   <v>       0.13333680       0.66667759       0.70660902 </v>
   <v>       0.33333523       0.26670881       0.70660902 </v>
   <v>       0.13333333       0.66666667       0.16985794 </v>
   <v>       0.13341500       0.46667635       0.60809141 </v>
   <v>       0.13335504       0.46666287       0.70660902 </v>
   <v>       0.13333333       0.46666667       0.16985794 </v>
   <v>       0.13333333       0.46666667       0.26837554 </v>
   <v>       0.13338892       0.26673388       0.60809141 </v>
   <v>       0.13334559       0.26665459       0.70660902 </v>
   <v>       0.13333333       0.26666667       0.16985794 </v>
   <v>       0.13333333       0.26666667       0.26837554 </v>
   <v>       0.13331300       0.06664223       0.60809141 </v>
   <v>       0.13332739       0.06667424       0.70660902 </v>
   <v>       0.13333333       0.06666667       0.16985794 </v>
   <v>       0.13333333       0.06666667       0.26837554 </v>
   <v>       0.13333333       0.66666667       0.26837554 </v>
   <v>       0.33332319       0.26669304       0.60809141 </v>
   <v>       0.33333333       0.46666667       0.26837554 </v>
   <v>       0.33333333       0.46666667       0.16985794 </v>
   <v>       0.53333333       0.86666667       0.26837554 </v>
   <v>       0.53327077       0.66660305       0.60809141 </v>
   <v>       0.53335032       0.66664704       0.70660902 </v>
   <v>       0.53333333       0.66666667       0.16985794 </v>
   <v>       0.53333333       0.66666667       0.26837554 </v>
   <v>       0.53339945       0.46666903       0.60809141 </v>
   <v>       0.53332168       0.46666503       0.70660902 </v>
   <v>       0.53333333       0.46666667       0.16985794 </v>
   <v>       0.53333333       0.46666667       0.26837554 </v>
   <v>       0.53329993       0.26667273       0.60809141 </v>
   <v>       0.53331617       0.26666990       0.70660902 </v>
   <v>       0.53333333       0.26666667       0.16985794 </v>
   <v>       0.53333333       0.26666667       0.26837554 </v>
   <v>       0.53334491       0.06665294       0.60809141 </v>
   <v>       0.93332988       0.86667070       0.70660902 </v>
   <v>       0.53333333       0.06666667       0.16985794 </v>
   <v>       0.53333333       0.06666667       0.26837554 </v>
   <v>       0.33332194       0.86664275       0.60809141 </v>
   <v>       0.33332306       0.86666485       0.70660902 </v>
   <v>       0.33333333       0.86666667       0.16985794 </v>
   <v>       0.33333333       0.86666667       0.26837554 </v>
   <v>       0.33336919       0.66660821       0.60809141 </v>
   <v>       0.33335306       0.66665213       0.70660902 </v>
   <v>       0.33333333       0.66666667       0.16985794 </v>
   <v>       0.33333333       0.66666667       0.26837554 </v>
   <v>       0.33337373       0.46669590       0.60809141 </v>
   <v>       0.33335805       0.46663768       0.70660902 </v>
   <v>       0.53334168       0.86665847       0.70660902 </v>
   <v>       0.93333300       0.86666645       0.60809141 </v>
  </varray>
  <varray name="selective"  type="logical" >
   <v type="logical" >  T  T  F </v>
   <v type="logical" >  T  T  F </v>
   <v type="logical" >  T  T  F </v>
   <v type="logical" >  T  T  F </v>
   <v type="logical" >  T  T  F </v>
   <v type="logical" >  T  T  F </v>
   <v type="logical" >  T  T  F </v>
   <v type="logical" >  T  T  F </v>
   <v type="logical" >  T  T  F </v>
   <v type="logical" >  T  T  F </v>
   <v type="logical" >  T  T  F </v>
   <v type="logical" >  T  T  F </v>
   <v type="logical" >  T  T  F </v>
   <v type="logical" >  T  T  F </v>
   <v type="logical" >  T  T  F </v>
   <v type="logical" >  T  T  F </v>
   <v type="logical" >  T  T  F </v>
   <v type="logical" >  T  T  F </v>
   <v type="logical" >  T  T  F </v>
   <v type="logical" >  T  T  F </v>
   <v type="logical" >  T  T  F </v>
   <v type="logical" >  T  T  F </v>
   <v type="logical" >  F  F  F </v>
   <v type="logical" >  T  T  F </v>
   <v type="logical" >  F  F  F </v>
   <v type="logical" >  F  F  F </v>
   <v type="logical" >  T  T  F </v>
   <v type="logical" >  F  F  F </v>
   <v type="logical" >  F  F  F </v>
   <v type="logical" >  T  T  F </v>
   <v type="logical" >  T  T  F </v>
   <v type="logical" >  F  F  F </v>
   <v type="logical" >  T  T  F </v>
   <v type="logical" >  T  T  F </v>
   <v type="logical" >  F  F  F </v>
   <v type="logical" >  F  F  F </v>
   <v type="logical" >  T  T  F </v>
   <v type="logical" >  T  T  F </v>
   <v type="logical" >  F  F  F </v>
   <v type="logical" >  F  F  F </v>
   <v type="logical" >  T  T  F </v>
   <v type="logical" >  F  F  F </v>
   <v type="logical" >  T  T  F </v>
   <v type="logical" >  T  T  F </v>
   <v type="logical" >  F  F  F </v>
   <v type="logical" >  T  T  F </v>
   <v type="logical" >  T  T  F </v>
   <v type="logical" >  T  T  F </v>
   <v type="logical" >  F  F  F </v>
   <v type="logical" >  F  F  F </v>
   <v type="logical" >  F  F  F </v>
   <v type="logical" >  F  F  F </v>
   <v type="logical" >  T  T  F </v>
   <v type="logical" >  F  F  F </v>
   <v type="logical" >  F  F  F </v>
   <v type="logical" >  T  T  F </v>
   <v type="logical" >  T  T  F </v>
   <v type="logical" >  F  F  F </v>
   <v type="logical" >  F  F  F </v>
   <v type="logical" >  T  T  F </v>
   <v type="logical" >  T  T  F </v>
   <v type="logical" >  F  F  F </v>
   <v type="logical" >  T  T  F </v>
   <v type="logical" >  F  F  F </v>
   <v type="logical" >  T  T  F </v>
   <v type="logical" >  T  T  F </v>
   <v type="logical" >  F  F  F </v>
   <v type="logical" >  F  F  F </v>
   <v type="logical" >  T  T  F </v>
   <v type="logical" >  F  F  F </v>
   <v type="logical" >  T  T  F </v>
   <v type="logical" >  F  F  F </v>
   <v type="logical" >  T  T  F </v>
   <v type="logical" >  T  T  F </v>
   <v type="logical" >  T  T  F </v>
   <v type="logical" >  T  T  F </v>
   <v type="logical" >  F  F  F </v>
   <v type="logical" >  F  F  F </v>
   <v type="logical" >  F  F  F </v>
   <v type="logical" >  T  T  F </v>
   <v type="logical" >  T  T  F </v>
   <v type="logical" >  T  T  F </v>
   <v type="logical" >  F  F  F </v>
   <v type="logical" >  F  F  F </v>
   <v type="logical" >  T  T  F </v>
   <v type="logical" >  F  F  F </v>
   <v type="logical" >  F  F  F </v>
   <v type="logical" >  T  T  F </v>
   <v type="logical" >  F  F  F </v>
   <v type="logical" >  F  F  F </v>
   <v type="logical" >  F  F  F </v>
   <v type="logical" >  F  F  F </v>
   <v type="logical" >  T  T  F </v>
   <v type="logical" >  F  F  F </v>
   <v type="logical" >  F  F  F </v>
   <v type="logical" >  T  T  F </v>
   <v type="logical" >  T  T  F </v>
   <v type="logical" >  T  T  F </v>
   <v type="logical" >  T  T  F </v>
   <v type="logical" >  F  F  F </v>
   <v type="logical" >  T  T  F </v>
   <v type="logical" >  F  F  F </v>
   <v type="logical" >  T  T  F </v>
   <v type="logical" >  F  F  F </v>
   <v type="logical" >  T  T  F </v>
   <v type="logical" >  T  T  F </v>
   <v type="logical" >  F  F  F </v>
   <v type="logical" >  F  F  F </v>
   <v type="logical" >  F  F  F </v>
   <v type="logical" >  T  T  F </v>
   <v type="logical" >  T  T  F </v>
   <v type="logical" >  F  F  F </v>
   <v type="logical" >  F  F  F </v>
   <v type="logical" >  F  F  F </v>
   <v type="logical" >  T  T  F </v>
   <v type="logical" >  T  T  F </v>
   <v type="logical" >  F  F  F </v>
   <v type="logical" >  F  F  F </v>
   <v type="logical" >  T  T  F </v>
   <v type="logical" >  T  T  F </v>
   <v type="logical" >  F  F  F </v>
   <v type="logical" >  F  F  F </v>
   <v type="logical" >  T  T  F </v>
   <v type="logical" >  T  T  F </v>
   <v type="logical" >  T  T  F </v>
   <v type="logical" >  F  F  F </v>
   <v type="logical" >  T  T  F </v>
   <v type="logical" >  T  T  F </v>
   <v type="logical" >  F  F  F </v>
   <v type="logical" >  F  F  F </v>
   <v type="logical" >  T  T  F </v>
   <v type="logical" >  T  T  F </v>
   <v type="logical" >  F  F  F </v>
   <v type="logical" >  F  F  F </v>
   <v type="logical" >  T  T  F </v>
   <v type="logical" >  T  T  F </v>
   <v type="logical" >  F  F  F </v>
   <v type="logical" >  F  F  F </v>
   <v type="logical" >  F  F  F </v>
   <v type="logical" >  T  T  F </v>
   <v type="logical" >  F  F  F </v>
   <v type="logical" >  F  F  F </v>
   <v type="logical" >  F  F  F </v>
   <v type="logical" >  T  T  F </v>
   <v type="logical" >  T  T  F </v>
   <v type="logical" >  F  F  F </v>
   <v type="logical" >  F  F  F </v>
   <v type="logical" >  T  T  F </v>
   <v type="logical" >  T  T  F </v>
   <v type="logical" >  F  F  F </v>
   <v type="logical" >  F  F  F </v>
   <v type="logical" >  T  T  F </v>
   <v type="logical" >  T  T  F </v>
   <v type="logical" >  F  F  F </v>
   <v type="logical" >  F  F  F </v>
   <v type="logical" >  T  T  F </v>
   <v type="logical" >  T  T  F </v>
   <v type="logical" >  F  F  F </v>
   <v type="logical" >  F  F  F </v>
   <v type="logical" >  T  T  F </v>
   <v type="logical" >  T  T  F </v>
   <v type="logical" >  F  F  F </v>
   <v type="logical" >  F  F  F </v>
   <v type="logical" >  T  T  F </v>
   <v type="logical" >  T  T  F </v>
   <v type="logical" >  F  F  F </v>
   <v type="logical" >  F  F  F </v>
   <v type="logical" >  T  T  F </v>
   <v type="logical" >  T  T  F </v>
   <v type="logical" >  T  T  F </v>
   <v type="logical" >  T  T  F </v>
  </varray>
  <nose>
   <v>      -3.00000000       0.00000000       0.00010000       0.00010000 </v>
  </nose>
 </structure>
</modeling>
