basalPlane                              
           1
    15.900000    0.000000    0.000000
    -7.950000   13.769804    0.000000
     0.000000    0.000000   32.380000
   C    Cr   H    Mo   S 
  10   1  10  50 100
Direct configuration=     1
   0.38749812  0.39775414  0.50081061
   0.34008887  0.43095625  0.47356413
   0.48847557  0.46833743  0.50168822
   0.50425372  0.54694278  0.47468457
   0.41140320  0.52314929  0.45714069
   0.39290210  0.30727123  0.39510545
   0.53395102  0.45382423  0.38216486
   0.43095365  0.40019277  0.37479037
   0.55896294  0.39476574  0.40646236
   0.47286163  0.30500936  0.41459700
   0.45220791  0.42122734  0.43869440
   0.39765155  0.56774795  0.43581976
   0.38983010  0.42422047  0.35629573
   0.31777035  0.24863276  0.39491758
   0.58394713  0.52721186  0.37162922
   0.63083757  0.41673784  0.41865236
   0.26345261  0.39141356  0.46545041
   0.35322846  0.32807900  0.51666215
   0.54369553  0.46303596  0.51945661
   0.57292650  0.61336897  0.46954195
   0.46837586  0.24609727  0.43334125
   0.60000000  0.60000000  0.65735022
   0.20000000  0.80000000  0.21911674
   0.20000000  0.60000000  0.65735022
   0.60000000  0.80000000  0.21911674
   0.20000000  0.60000000  0.21911674
   0.60000000  0.80000000  0.65735022
   0.20000000  0.40000000  0.21911674
   0.80000000  0.00000000  0.21911674
   0.20000000  0.20000000  0.65735022
   0.80000000  0.00000000  0.65735022
   0.20000000  0.20000000  0.21911674
   0.20000000  0.80000000  0.65735022
   0.20000000  0.40000000  0.65735022
   0.60000000  0.60000000  0.21911674
   0.40000000  0.60000000  0.21911674
   0.40000000  0.00000000  0.65735022
   0.60000000  0.40000000  0.65735022
   0.40000000  0.20000000  0.21911674
   0.60000000  0.40000000  0.21911674
   0.40000000  0.20000000  0.65735022
   0.40000000  0.40000000  0.21911674
   0.60000000  0.20000000  0.65735022
   0.40000000  0.40000000  0.65735022
   0.60000000  0.20000000  0.21911674
   0.40000000  0.80000000  0.65735022
   0.40000000  0.60000000  0.65735022
   0.60000000  0.00000000  0.65735022
   0.40000000  0.80000000  0.21911674
   0.60000000  0.00000000  0.21911674
   0.40000000  0.00000000  0.21911674
   0.80000000  0.20000000  0.21911674
   0.20000000  0.00000000  0.65735022
   0.20000000  0.00000000  0.21911674
   0.00000000  0.00000000  0.21911674
   0.80000000  0.80000000  0.65735022
   0.00000000  0.00000000  0.65735022
   0.80000000  0.80000000  0.21911674
   0.00000000  0.20000000  0.21911674
   0.00000000  0.20000000  0.65735022
   0.80000000  0.60000000  0.65735022
   0.00000000  0.40000000  0.21911674
   0.00000000  0.40000000  0.65735022
   0.00000000  0.60000000  0.21911674
   0.80000000  0.40000000  0.65735022
   0.00000000  0.60000000  0.65735022
   0.80000000  0.60000000  0.21911674
   0.80000000  0.40000000  0.21911674
   0.00000000  0.80000000  0.65735022
   0.00000000  0.80000000  0.21911674
   0.80000000  0.20000000  0.65735022
   0.93333333  0.06666667  0.16985794
   0.73333333  0.26666667  0.60809141
   0.73333333  0.26666667  0.70660902
   0.93333333  0.66666667  0.70660902
   0.93333333  0.66666667  0.60809141
   0.73333333  0.26666667  0.16985794
   0.73333333  0.26666667  0.26837554
   0.93333333  0.46666667  0.26837554
   0.73333333  0.06666667  0.60809141
   0.73333333  0.06666667  0.70660902
   0.93333333  0.06666667  0.70660902
   0.93333333  0.86666667  0.16985794
   0.73333333  0.06666667  0.16985794
   0.93333333  0.06666667  0.60809141
   0.73333333  0.06666667  0.26837554
   0.93333333  0.26666667  0.16985794
   0.93333333  0.26666667  0.70660902
   0.93333333  0.86666667  0.26837554
   0.73333333  0.46666667  0.26837554
   0.73333333  0.46666667  0.16985794
   0.73333333  0.86666667  0.16985794
   0.73333333  0.86666667  0.70660902
   0.73333333  0.86666667  0.26837554
   0.93333333  0.46666667  0.16985794
   0.73333333  0.86666667  0.60809141
   0.73333333  0.66666667  0.60809141
   0.73333333  0.66666667  0.70660902
   0.93333333  0.46666667  0.70660902
   0.73333333  0.66666667  0.16985794
   0.93333333  0.46666667  0.60809141
   0.73333333  0.66666667  0.26837554
   0.93333333  0.26666667  0.60809141
   0.93333333  0.26666667  0.26837554
   0.73333333  0.46666667  0.60809141
   0.73333333  0.46666667  0.70660902
   0.93333333  0.66666667  0.26837554
   0.93333333  0.06666667  0.26837554
   0.93333333  0.66666667  0.16985794
   0.53333333  0.86666667  0.60809141
   0.53333333  0.06666667  0.70660902
   0.53333333  0.86666667  0.16985794
   0.33333333  0.26666667  0.16985794
   0.33333333  0.26666667  0.26837554
   0.33333333  0.06666667  0.60809141
   0.33333333  0.06666667  0.70660902
   0.33333333  0.06666667  0.16985794
   0.33333333  0.06666667  0.26837554
   0.13333333  0.86666667  0.60809141
   0.13333333  0.86666667  0.70660902
   0.13333333  0.86666667  0.16985794
   0.13333333  0.86666667  0.26837554
   0.13333333  0.66666667  0.60809141
   0.13333333  0.66666667  0.70660902
   0.33333333  0.26666667  0.70660902
   0.13333333  0.66666667  0.16985794
   0.13333333  0.46666667  0.60809141
   0.13333333  0.46666667  0.70660902
   0.13333333  0.46666667  0.16985794
   0.13333333  0.46666667  0.26837554
   0.13333333  0.26666667  0.60809141
   0.13333333  0.26666667  0.70660902
   0.13333333  0.26666667  0.16985794
   0.13333333  0.26666667  0.26837554
   0.13333333  0.06666667  0.60809141
   0.13333333  0.06666667  0.70660902
   0.13333333  0.06666667  0.16985794
   0.13333333  0.06666667  0.26837554
   0.13333333  0.66666667  0.26837554
   0.33333333  0.26666667  0.60809141
   0.33333333  0.46666667  0.26837554
   0.33333333  0.46666667  0.16985794
   0.53333333  0.86666667  0.26837554
   0.53333333  0.66666667  0.60809141
   0.53333333  0.66666667  0.70660902
   0.53333333  0.66666667  0.16985794
   0.53333333  0.66666667  0.26837554
   0.53333333  0.46666667  0.60809141
   0.53333333  0.46666667  0.70660902
   0.53333333  0.46666667  0.16985794
   0.53333333  0.46666667  0.26837554
   0.53333333  0.26666667  0.60809141
   0.53333333  0.26666667  0.70660902
   0.53333333  0.26666667  0.16985794
   0.53333333  0.26666667  0.26837554
   0.53333333  0.06666667  0.60809141
   0.93333333  0.86666667  0.70660902
   0.53333333  0.06666667  0.16985794
   0.53333333  0.06666667  0.26837554
   0.33333333  0.86666667  0.60809141
   0.33333333  0.86666667  0.70660902
   0.33333333  0.86666667  0.16985794
   0.33333333  0.86666667  0.26837554
   0.33333333  0.66666667  0.60809141
   0.33333333  0.66666667  0.70660902
   0.33333333  0.66666667  0.16985794
   0.33333333  0.66666667  0.26837554
   0.33333333  0.46666667  0.60809141
   0.33333333  0.46666667  0.70660902
   0.53333333  0.86666667  0.70660902
   0.93333333  0.86666667  0.60809141
Direct configuration=     2
   0.38749024  0.39790334  0.50081061
   0.34019261  0.43100135  0.47356413
   0.48844650  0.46833399  0.50168822
   0.50416164  0.54685652  0.47468457
   0.41135066  0.52312371  0.45714069
   0.39300750  0.30731157  0.39510545
   0.53399645  0.45366608  0.38216486
   0.43101422  0.40023259  0.37479037
   0.55889552  0.39466996  0.40646236
   0.47297044  0.30506057  0.41459700
   0.45212054  0.42128003  0.43869440
   0.39763057  0.56772010  0.43581976
   0.38980898  0.42427286  0.35629573
   0.31777961  0.24866797  0.39491758
   0.58396509  0.52724161  0.37162922
   0.63080317  0.41670159  0.41865236
   0.26342735  0.39138468  0.46545041
   0.35325125  0.32806140  0.51666215
   0.54363706  0.46303060  0.51945661
   0.57291673  0.61335567  0.46954195
   0.46837167  0.24611726  0.43334125
   0.59998030  0.59997802  0.65735022
   0.20000000  0.80000000  0.21911674
   0.20001232  0.60000768  0.65735022
   0.60000000  0.80000000  0.21911674
   0.20000000  0.60000000  0.21911674
   0.60000905  0.80000406  0.65735022
   0.20000000  0.40000000  0.21911674
   0.80000000  0.00000000  0.21911674
   0.19998594  0.19999281  0.65735022
   0.80000194  0.00000226  0.65735022
   0.20000000  0.20000000  0.21911674
   0.19999756  0.80000401  0.65735022
   0.20001754  0.40000051  0.65735022
   0.60000000  0.60000000  0.21911674
   0.40000000  0.60000000  0.21911674
   0.39998196 -0.00000253  0.65735022
   0.59998126  0.40001934  0.65735022
   0.40000000  0.20000000  0.21911674
   0.60000000  0.40000000  0.21911674
   0.39998837  0.19998843  0.65735022
   0.40000000  0.40000000  0.21911674
   0.60001791  0.19999857  0.65735022
   0.40001529  0.40002555  0.65735022
   0.60000000  0.20000000  0.21911674
   0.39999236  0.79999265  0.65735022
   0.40000607  0.59998179  0.65735022
   0.60001680 -0.00000200  0.65735022
   0.40000000  0.80000000  0.21911674
   0.60000000  0.00000000  0.21911674
   0.40000000  0.00000000  0.21911674
   0.80000000  0.20000000  0.21911674
   0.20000616  0.00000711  0.65735022
   0.20000000  0.00000000  0.21911674
   0.00000000  0.00000000  0.21911674
   0.80001116  0.80001690  0.65735022
  -0.00000548 -0.00000159  0.65735022
   0.80000000  0.80000000  0.21911674
   0.00000000  0.20000000  0.21911674
  -0.00000945  0.19999160  0.65735022
   0.80000560  0.60001303  0.65735022
   0.00000000  0.40000000  0.21911674
   0.00000234  0.39998115  0.65735022
   0.00000000  0.60000000  0.21911674
   0.79999699  0.39998281  0.65735022
  -0.00000033  0.60002242  0.65735022
   0.80000000  0.60000000  0.21911674
   0.80000000  0.40000000  0.21911674
  -0.00000309  0.79999791  0.65735022
   0.00000000  0.80000000  0.21911674
   0.80000302  0.19999266  0.65735022
   0.93333333  0.06666667  0.16985794
   0.73333475  0.26666538  0.60809141
   0.73333308  0.26666736  0.70660902
   0.93333292  0.66666651  0.70660902
   0.93333571  0.66666838  0.60809141
   0.73333333  0.26666667  0.16985794
   0.73333333  0.26666667  0.26837554
   0.93333333  0.46666667  0.26837554
   0.73333354  0.06666426  0.60809141
   0.73333392  0.06666578  0.70660902
   0.93333318  0.06666835  0.70660902
   0.93333333  0.86666667  0.16985794
   0.73333333  0.06666667  0.16985794
   0.93333014  0.06666900  0.60809141
   0.73333333  0.06666667  0.26837554
   0.93333333  0.26666667  0.16985794
   0.93333339  0.26666542  0.70660902
   0.93333333  0.86666667  0.26837554
   0.73333333  0.46666667  0.26837554
   0.73333333  0.46666667  0.16985794
   0.73333333  0.86666667  0.16985794
   0.73333403  0.86666581  0.70660902
   0.73333333  0.86666667  0.26837554
   0.93333333  0.46666667  0.16985794
   0.73332454  0.86666030  0.60809141
   0.73332416  0.66665936  0.60809141
   0.73332692  0.66666485  0.70660902
   0.93333172  0.46666551  0.70660902
   0.73333333  0.66666667  0.16985794
   0.93333573  0.46666611  0.60809141
   0.73333333  0.66666667  0.26837554
   0.93333471  0.26666644  0.60809141
   0.93333333  0.26666667  0.26837554
   0.73333207  0.46667721  0.60809141
   0.73333046  0.46666626  0.70660902
   0.93333333  0.66666667  0.26837554
   0.93333333  0.06666667  0.26837554
   0.93333333  0.66666667  0.16985794
   0.53333277  0.86665782  0.60809141
   0.53333396  0.06666854  0.70660902
   0.53333333  0.86666667  0.16985794
   0.33333333  0.26666667  0.16985794
   0.33333333  0.26666667  0.26837554
   0.33333060  0.06666145  0.60809141
   0.33333497  0.06666868  0.70660902
   0.33333333  0.06666667  0.16985794
   0.33333333  0.06666667  0.26837554
   0.13333344  0.86666602  0.60809141
   0.13333364  0.86666707  0.70660902
   0.13333333  0.86666667  0.16985794
   0.13333333  0.86666667  0.26837554
   0.13333590  0.66666658  0.60809141
   0.13333321  0.66666700  0.70660902
   0.33333513  0.26667443  0.70660902
   0.13333333  0.66666667  0.16985794
   0.13334799  0.46666937  0.60809141
   0.13333290  0.46666623  0.70660902
   0.13333333  0.46666667  0.16985794
   0.13333333  0.46666667  0.26837554
   0.13334734  0.26668422  0.60809141
   0.13333725  0.26666455  0.70660902
   0.13333333  0.26666667  0.16985794
   0.13333333  0.26666667  0.26837554
   0.13333108  0.06666102  0.60809141
   0.13333446  0.06666951  0.70660902
   0.13333333  0.06666667  0.16985794
   0.13333333  0.06666667  0.26837554
   0.13333333  0.66666667  0.26837554
   0.33333184  0.26666951  0.60809141
   0.33333333  0.46666667  0.26837554
   0.33333333  0.46666667  0.16985794
   0.53333333  0.86666667  0.26837554
   0.53331644  0.66665483  0.60809141
   0.53333665  0.66666471  0.70660902
   0.53333333  0.66666667  0.16985794
   0.53333333  0.66666667  0.26837554
   0.53335248  0.46666586  0.60809141
   0.53333302  0.46666447  0.70660902
   0.53333333  0.46666667  0.16985794
   0.53333333  0.46666667  0.26837554
   0.53332583  0.26666799  0.60809141
   0.53333068  0.26666765  0.70660902
   0.53333333  0.26666667  0.16985794
   0.53333333  0.26666667  0.26837554
   0.53333541  0.06666608  0.60809141
   0.93333187  0.86666595  0.70660902
   0.53333333  0.06666667  0.16985794
   0.53333333  0.06666667  0.26837554
   0.33333247  0.86666278  0.60809141
   0.33333284  0.86666737  0.70660902
   0.33333333  0.86666667  0.16985794
   0.33333333  0.86666667  0.26837554
   0.33333894  0.66665487  0.60809141
   0.33333452  0.66666657  0.70660902
   0.33333333  0.66666667  0.16985794
   0.33333333  0.66666667  0.26837554
   0.33333700  0.46667525  0.60809141
   0.33333435  0.46666019  0.70660902
   0.53333493  0.86666754  0.70660902
   0.93333335  0.86666527  0.60809141
Direct configuration=     3
   0.38749512  0.39781100  0.50081061
   0.34012840  0.43097343  0.47356413
   0.48846449  0.46833612  0.50168822
   0.50421863  0.54690991  0.47468457
   0.41138318  0.52313954  0.45714069
   0.39294227  0.30728660  0.39510545
   0.53396833  0.45376396  0.38216486
   0.43097673  0.40020794  0.37479037
   0.55893725  0.39472924  0.40646236
   0.47290310  0.30502887  0.41459700
   0.45217462  0.42124742  0.43869440
   0.39764356  0.56773734  0.43581976
   0.38982205  0.42424044  0.35629573
   0.31777388  0.24864618  0.39491758
   0.58395397  0.52722320  0.37162922
   0.63082446  0.41672402  0.41865236
   0.26344298  0.39140255  0.46545041
   0.35323715  0.32807229  0.51666215
   0.54367325  0.46303392  0.51945661
   0.57292277  0.61336390  0.46954195
   0.46837426  0.24610489  0.43334125
   0.59999249  0.59999162  0.65735022
   0.20000000  0.80000000  0.21911674
   0.20000469  0.60000293  0.65735022
   0.60000000  0.80000000  0.21911674
   0.20000000  0.60000000  0.21911674
   0.60000345  0.80000155  0.65735022
   0.20000000  0.40000000  0.21911674
   0.80000000  0.00000000  0.21911674
   0.19999464  0.19999726  0.65735022
   0.80000074  0.00000086  0.65735022
   0.20000000  0.20000000  0.21911674
   0.19999907  0.80000153  0.65735022
   0.20000668  0.40000019  0.65735022
   0.60000000  0.60000000  0.21911674
   0.40000000  0.60000000  0.21911674
   0.39999313 -0.00000096  0.65735022
   0.59999286  0.40000737  0.65735022
   0.40000000  0.20000000  0.21911674
   0.60000000  0.40000000  0.21911674
   0.39999557  0.19999559  0.65735022
   0.40000000  0.40000000  0.21911674
   0.60000682  0.19999945  0.65735022
   0.40000583  0.40000974  0.65735022
   0.60000000  0.20000000  0.21911674
   0.39999709  0.79999720  0.65735022
   0.40000231  0.59999306  0.65735022
   0.60000640 -0.00000076  0.65735022
   0.40000000  0.80000000  0.21911674
   0.60000000  0.00000000  0.21911674
   0.40000000  0.00000000  0.21911674
   0.80000000  0.20000000  0.21911674
   0.20000235  0.00000271  0.65735022
   0.20000000  0.00000000  0.21911674
   0.00000000  0.00000000  0.21911674
   0.80000425  0.80000644  0.65735022
  -0.00000209 -0.00000061  0.65735022
   0.80000000  0.80000000  0.21911674
   0.00000000  0.20000000  0.21911674
  -0.00000360  0.19999680  0.65735022
   0.80000214  0.60000497  0.65735022
   0.00000000  0.40000000  0.21911674
   0.00000089  0.39999282  0.65735022
   0.00000000  0.60000000  0.21911674
   0.79999885  0.39999345  0.65735022
  -0.00000012  0.60000854  0.65735022
   0.80000000  0.60000000  0.21911674
   0.80000000  0.40000000  0.21911674
  -0.00000118  0.79999920  0.65735022
   0.00000000  0.80000000  0.21911674
   0.80000115  0.19999720  0.65735022
   0.93333333  0.06666667  0.16985794
   0.73333387  0.26666618  0.60809141
   0.73333323  0.26666693  0.70660902
   0.93333318  0.66666661  0.70660902
   0.93333424  0.66666732  0.60809141
   0.73333333  0.26666667  0.16985794
   0.73333333  0.26666667  0.26837554
   0.93333333  0.46666667  0.26837554
   0.73333341  0.06666575  0.60809141
   0.73333356  0.06666633  0.70660902
   0.93333328  0.06666731  0.70660902
   0.93333333  0.86666667  0.16985794
   0.73333333  0.06666667  0.16985794
   0.93333211  0.06666756  0.60809141
   0.73333333  0.06666667  0.26837554
   0.93333333  0.26666667  0.16985794
   0.93333335  0.26666619  0.70660902
   0.93333333  0.86666667  0.26837554
   0.73333333  0.46666667  0.26837554
   0.73333333  0.46666667  0.16985794
   0.73333333  0.86666667  0.16985794
   0.73333360  0.86666634  0.70660902
   0.73333333  0.86666667  0.26837554
   0.93333333  0.46666667  0.16985794
   0.73332998  0.86666424  0.60809141
   0.73332984  0.66666388  0.60809141
   0.73333089  0.66666597  0.70660902
   0.93333272  0.46666623  0.70660902
   0.73333333  0.66666667  0.16985794
   0.93333425  0.46666645  0.60809141
   0.73333333  0.66666667  0.26837554
   0.93333386  0.26666658  0.60809141
   0.93333333  0.26666667  0.26837554
   0.73333285  0.46667069  0.60809141
   0.73333224  0.46666651  0.70660902
   0.93333333  0.66666667  0.26837554
   0.93333333  0.06666667  0.26837554
   0.93333333  0.66666667  0.16985794
   0.53333312  0.86666330  0.60809141
   0.53333357  0.06666738  0.70660902
   0.53333333  0.86666667  0.16985794
   0.33333333  0.26666667  0.16985794
   0.33333333  0.26666667  0.26837554
   0.33333229  0.06666468  0.60809141
   0.33333396  0.06666744  0.70660902
   0.33333333  0.06666667  0.16985794
   0.33333333  0.06666667  0.26837554
   0.13333337  0.86666642  0.60809141
   0.13333345  0.86666682  0.70660902
   0.13333333  0.86666667  0.16985794
   0.13333333  0.86666667  0.26837554
   0.13333431  0.66666663  0.60809141
   0.13333329  0.66666680  0.70660902
   0.33333402  0.26666963  0.70660902
   0.13333333  0.66666667  0.16985794
   0.13333892  0.46666770  0.60809141
   0.13333317  0.46666650  0.70660902
   0.13333333  0.46666667  0.16985794
   0.13333333  0.46666667  0.26837554
   0.13333867  0.26667335  0.60809141
   0.13333482  0.26666586  0.70660902
   0.13333333  0.26666667  0.16985794
   0.13333333  0.26666667  0.26837554
   0.13333248  0.06666451  0.60809141
   0.13333376  0.06666775  0.70660902
   0.13333333  0.06666667  0.16985794
   0.13333333  0.06666667  0.26837554
   0.13333333  0.66666667  0.26837554
   0.33333276  0.26666775  0.60809141
   0.33333333  0.46666667  0.26837554
   0.33333333  0.46666667  0.16985794
   0.53333333  0.86666667  0.26837554
   0.53332690  0.66666216  0.60809141
   0.53333460  0.66666592  0.70660902
   0.53333333  0.66666667  0.16985794
   0.53333333  0.66666667  0.26837554
   0.53334063  0.46666636  0.60809141
   0.53333321  0.46666583  0.70660902
   0.53333333  0.46666667  0.16985794
   0.53333333  0.46666667  0.26837554
   0.53333047  0.26666717  0.60809141
   0.53333232  0.26666704  0.70660902
   0.53333333  0.26666667  0.16985794
   0.53333333  0.26666667  0.26837554
   0.53333412  0.06666644  0.60809141
   0.93333278  0.86666639  0.70660902
   0.53333333  0.06666667  0.16985794
   0.53333333  0.06666667  0.26837554
   0.33333300  0.86666519  0.60809141
   0.33333315  0.86666693  0.70660902
   0.33333333  0.86666667  0.16985794
   0.33333333  0.86666667  0.26837554
   0.33333547  0.66666217  0.60809141
   0.33333378  0.66666663  0.70660902
   0.33333333  0.66666667  0.16985794
   0.33333333  0.66666667  0.26837554
   0.33333473  0.46666994  0.60809141
   0.33333372  0.46666420  0.70660902
   0.53333394  0.86666700  0.70660902
   0.93333334  0.86666613  0.60809141
Direct configuration=     4
   0.38749577  0.39779875  0.50081061
   0.34011989  0.43096973  0.47356413
   0.48846688  0.46833640  0.50168822
   0.50422619  0.54691699  0.47468457
   0.41138749  0.52314164  0.45714069
   0.39293361  0.30728329  0.39510545
   0.53396460  0.45377695  0.38216486
   0.43097176  0.40020467  0.37479037
   0.55894278  0.39473710  0.40646236
   0.47289416  0.30502467  0.41459700
   0.45218179  0.42124309  0.43869440
   0.39764528  0.56773963  0.43581976
   0.38982378  0.42423613  0.35629573
   0.31777312  0.24864329  0.39491758
   0.58395250  0.52722076  0.37162922
   0.63082729  0.41672700  0.41865236
   0.26344505  0.39140492  0.46545041
   0.35323527  0.32807374  0.51666215
   0.54367805  0.46303436  0.51945661
   0.57292358  0.61336499  0.46954195
   0.46837460  0.24610325  0.43334125
   0.59999411  0.59999343  0.65735022
   0.20000000  0.80000000  0.21911674
   0.20000368  0.60000230  0.65735022
   0.60000000  0.80000000  0.21911674
   0.20000000  0.60000000  0.21911674
   0.60000271  0.80000121  0.65735022
   0.20000000  0.40000000  0.21911674
   0.80000000  0.00000000  0.21911674
   0.19999579  0.19999785  0.65735022
   0.80000058  0.00000067  0.65735022
   0.20000000  0.20000000  0.21911674
   0.19999927  0.80000120  0.65735022
   0.20000524  0.40000015  0.65735022
   0.60000000  0.60000000  0.21911674
   0.40000000  0.60000000  0.21911674
   0.39999461 -0.00000076  0.65735022
   0.59999440  0.40000578  0.65735022
   0.40000000  0.20000000  0.21911674
   0.60000000  0.40000000  0.21911674
   0.39999652  0.19999654  0.65735022
   0.40000000  0.40000000  0.21911674
   0.60000535  0.19999957  0.65735022
   0.40000457  0.40000764  0.65735022
   0.60000000  0.20000000  0.21911674
   0.39999772  0.79999780  0.65735022
   0.40000181  0.59999456  0.65735022
   0.60000502 -0.00000060  0.65735022
   0.40000000  0.80000000  0.21911674
   0.60000000  0.00000000  0.21911674
   0.40000000  0.00000000  0.21911674
   0.80000000  0.20000000  0.21911674
   0.20000184  0.00000213  0.65735022
   0.20000000  0.00000000  0.21911674
   0.00000000  0.00000000  0.21911674
   0.80000334  0.80000505  0.65735022
  -0.00000164 -0.00000047  0.65735022
   0.80000000  0.80000000  0.21911674
   0.00000000  0.20000000  0.21911674
  -0.00000283  0.19999749  0.65735022
   0.80000168  0.60000390  0.65735022
   0.00000000  0.40000000  0.21911674
   0.00000070  0.39999437  0.65735022
   0.00000000  0.60000000  0.21911674
   0.79999910  0.39999486  0.65735022
  -0.00000010  0.60000670  0.65735022
   0.80000000  0.60000000  0.21911674
   0.80000000  0.40000000  0.21911674
  -0.00000092  0.79999937  0.65735022
   0.00000000  0.80000000  0.21911674
   0.80000090  0.19999781  0.65735022
   0.93333333  0.06666667  0.16985794
   0.73333376  0.26666628  0.60809141
   0.73333326  0.26666687  0.70660902
   0.93333321  0.66666662  0.70660902
   0.93333404  0.66666718  0.60809141
   0.73333333  0.26666667  0.16985794
   0.73333333  0.26666667  0.26837554
   0.93333333  0.46666667  0.26837554
   0.73333340  0.06666595  0.60809141
   0.73333351  0.06666640  0.70660902
   0.93333329  0.06666717  0.70660902
   0.93333333  0.86666667  0.16985794
   0.73333333  0.06666667  0.16985794
   0.93333238  0.06666736  0.60809141
   0.73333333  0.06666667  0.26837554
   0.93333333  0.26666667  0.16985794
   0.93333335  0.26666629  0.70660902
   0.93333333  0.86666667  0.26837554
   0.73333333  0.46666667  0.26837554
   0.73333333  0.46666667  0.16985794
   0.73333333  0.86666667  0.16985794
   0.73333354  0.86666641  0.70660902
   0.73333333  0.86666667  0.26837554
   0.93333333  0.46666667  0.16985794
   0.73333070  0.86666476  0.60809141
   0.73333059  0.66666448  0.60809141
   0.73333142  0.66666612  0.70660902
   0.93333285  0.46666632  0.70660902
   0.73333333  0.66666667  0.16985794
   0.93333405  0.46666650  0.60809141
   0.73333333  0.66666667  0.26837554
   0.93333375  0.26666660  0.60809141
   0.93333333  0.26666667  0.26837554
   0.73333296  0.46666982  0.60809141
   0.73333247  0.46666654  0.70660902
   0.93333333  0.66666667  0.26837554
   0.93333333  0.06666667  0.26837554
   0.93333333  0.66666667  0.16985794
   0.53333316  0.86666402  0.60809141
   0.53333352  0.06666723  0.70660902
   0.53333333  0.86666667  0.16985794
   0.33333333  0.26666667  0.16985794
   0.33333333  0.26666667  0.26837554
   0.33333252  0.06666511  0.60809141
   0.33333382  0.06666727  0.70660902
   0.33333333  0.06666667  0.16985794
   0.33333333  0.06666667  0.26837554
   0.13333337  0.86666647  0.60809141
   0.13333342  0.86666679  0.70660902
   0.13333333  0.86666667  0.16985794
   0.13333333  0.86666667  0.26837554
   0.13333410  0.66666664  0.60809141
   0.13333330  0.66666677  0.70660902
   0.33333387  0.26666899  0.70660902
   0.13333333  0.66666667  0.16985794
   0.13333771  0.46666747  0.60809141
   0.13333321  0.46666654  0.70660902
   0.13333333  0.46666667  0.16985794
   0.13333333  0.46666667  0.26837554
   0.13333752  0.26667191  0.60809141
   0.13333450  0.26666603  0.70660902
   0.13333333  0.26666667  0.16985794
   0.13333333  0.26666667  0.26837554
   0.13333266  0.06666498  0.60809141
   0.13333367  0.06666752  0.70660902
   0.13333333  0.06666667  0.16985794
   0.13333333  0.06666667  0.26837554
   0.13333333  0.66666667  0.26837554
   0.33333289  0.26666752  0.60809141
   0.33333333  0.46666667  0.26837554
   0.33333333  0.46666667  0.16985794
   0.53333333  0.86666667  0.26837554
   0.53332828  0.66666313  0.60809141
   0.53333432  0.66666608  0.70660902
   0.53333333  0.66666667  0.16985794
   0.53333333  0.66666667  0.26837554
   0.53333906  0.46666642  0.60809141
   0.53333324  0.46666601  0.70660902
   0.53333333  0.46666667  0.16985794
   0.53333333  0.46666667  0.26837554
   0.53333109  0.26666706  0.60809141
   0.53333254  0.26666696  0.70660902
   0.53333333  0.26666667  0.16985794
   0.53333333  0.26666667  0.26837554
   0.53333395  0.06666649  0.60809141
   0.93333290  0.86666645  0.70660902
   0.53333333  0.06666667  0.16985794
   0.53333333  0.06666667  0.26837554
   0.33333307  0.86666551  0.60809141
   0.33333319  0.86666688  0.70660902
   0.33333333  0.86666667  0.16985794
   0.33333333  0.86666667  0.26837554
   0.33333501  0.66666314  0.60809141
   0.33333369  0.66666664  0.70660902
   0.33333333  0.66666667  0.16985794
   0.33333333  0.66666667  0.26837554
   0.33333443  0.46666923  0.60809141
   0.33333364  0.46666473  0.70660902
   0.53333381  0.86666693  0.70660902
   0.93333334  0.86666625  0.60809141
Direct configuration=     5
   0.38749624  0.39778976  0.50081061
   0.34011364  0.43096701  0.47356413
   0.48846863  0.46833661  0.50168822
   0.50423174  0.54692218  0.47468457
   0.41139066  0.52314319  0.45714069
   0.39292727  0.30728086  0.39510545
   0.53396186  0.45378647  0.38216486
   0.43096811  0.40020228  0.37479037
   0.55894684  0.39474287  0.40646236
   0.47288761  0.30502159  0.41459700
   0.45218705  0.42123992  0.43869440
   0.39764654  0.56774131  0.43581976
   0.38982506  0.42423298  0.35629573
   0.31777256  0.24864116  0.39491758
   0.58395142  0.52721897  0.37162922
   0.63082936  0.41672918  0.41865236
   0.26344658  0.39140666  0.46545041
   0.35323390  0.32807480  0.51666215
   0.54368157  0.46303468  0.51945661
   0.57292416  0.61336579  0.46954195
   0.46837486  0.24610204  0.43334125
   0.59999530  0.59999475  0.65735022
   0.20000000  0.80000000  0.21911674
   0.20000294  0.60000183  0.65735022
   0.60000000  0.80000000  0.21911674
   0.20000000  0.60000000  0.21911674
   0.60000216  0.80000097  0.65735022
   0.20000000  0.40000000  0.21911674
   0.80000000  0.00000000  0.21911674
   0.19999664  0.19999828  0.65735022
   0.80000046  0.00000054  0.65735022
   0.20000000  0.20000000  0.21911674
   0.19999942  0.80000096  0.65735022
   0.20000419  0.40000012  0.65735022
   0.60000000  0.60000000  0.21911674
   0.40000000  0.60000000  0.21911674
   0.39999569 -0.00000060  0.65735022
   0.59999553  0.40000462  0.65735022
   0.40000000  0.20000000  0.21911674
   0.60000000  0.40000000  0.21911674
   0.39999722  0.19999724  0.65735022
   0.40000000  0.40000000  0.21911674
   0.60000428  0.19999966  0.65735022
   0.40000365  0.40000610  0.65735022
   0.60000000  0.20000000  0.21911674
   0.39999818  0.79999825  0.65735022
   0.40000145  0.59999565  0.65735022
   0.60000401 -0.00000048  0.65735022
   0.40000000  0.80000000  0.21911674
   0.60000000  0.00000000  0.21911674
   0.40000000  0.00000000  0.21911674
   0.80000000  0.20000000  0.21911674
   0.20000147  0.00000170  0.65735022
   0.20000000  0.00000000  0.21911674
   0.00000000  0.00000000  0.21911674
   0.80000267  0.80000403  0.65735022
  -0.00000131 -0.00000038  0.65735022
   0.80000000  0.80000000  0.21911674
   0.00000000  0.20000000  0.21911674
  -0.00000226  0.19999799  0.65735022
   0.80000134  0.60000311  0.65735022
   0.00000000  0.40000000  0.21911674
   0.00000056  0.39999550  0.65735022
   0.00000000  0.60000000  0.21911674
   0.79999928  0.39999590  0.65735022
  -0.00000008  0.60000535  0.65735022
   0.80000000  0.60000000  0.21911674
   0.80000000  0.40000000  0.21911674
  -0.00000074  0.79999950  0.65735022
   0.00000000  0.80000000  0.21911674
   0.80000072  0.19999825  0.65735022
   0.93333333  0.06666667  0.16985794
   0.73333367  0.26666636  0.60809141
   0.73333327  0.26666683  0.70660902
   0.93333324  0.66666663  0.70660902
   0.93333390  0.66666708  0.60809141
   0.73333333  0.26666667  0.16985794
   0.73333333  0.26666667  0.26837554
   0.93333333  0.46666667  0.26837554
   0.73333338  0.06666609  0.60809141
   0.73333347  0.06666645  0.70660902
   0.93333330  0.06666707  0.70660902
   0.93333333  0.86666667  0.16985794
   0.73333333  0.06666667  0.16985794
   0.93333257  0.06666722  0.60809141
   0.73333333  0.06666667  0.26837554
   0.93333333  0.26666667  0.16985794
   0.93333335  0.26666637  0.70660902
   0.93333333  0.86666667  0.26837554
   0.73333333  0.46666667  0.26837554
   0.73333333  0.46666667  0.16985794
   0.73333333  0.86666667  0.16985794
   0.73333350  0.86666646  0.70660902
   0.73333333  0.86666667  0.26837554
   0.93333333  0.46666667  0.16985794
   0.73333123  0.86666515  0.60809141