  93  93   0   0
  0.3967126E+02  0.9570947E-09  0.1276126E-08  0.3488026E-08  0.5000000E-15
  1.000000000000000E-004
  CAR 
 basalPlane                              
      2.34155174    -19.32003984  301      0.01147305      1.00000000
    -19.320  0.0000E+00  0.0000E+00
    -19.248  0.0000E+00  0.0000E+00
    -19.176  0.0000E+00  0.0000E+00
    -19.103  0.0000E+00  0.0000E+00
    -19.031  0.0000E+00  0.0000E+00
    -18.959  0.0000E+00  0.0000E+00
    -18.887  0.1538E-17  0.1110E-18
    -18.815  0.3694E-14  0.2668E-15
    -18.742  0.3221E-11  0.2329E-12
    -18.670  0.1015E-08  0.7349E-10
    -18.598  0.1163E-06  0.8468E-08
    -18.526  0.4894E-05  0.3619E-06
    -18.454  0.7664E-04  0.5896E-05
    -18.381  0.4526E-03  0.3857E-04
    -18.309  0.1020E-02  0.1122E-03
    -18.237  0.8833E-03  0.1760E-03
    -18.165  0.2979E-03  0.1975E-03
    -18.093  0.1076E-03  0.2053E-03
    -18.020  0.4331E-03  0.2366E-03
    -17.948  0.1007E-02  0.3093E-03
    -17.876  0.9030E-03  0.3745E-03
    -17.804  0.3108E-03  0.3969E-03
    -17.732  0.4072E-04  0.3999E-03
    -17.659  0.2004E-05  0.4000E-03
    -17.587  0.3657E-07  0.4000E-03
    -17.515  0.2445E-09  0.4000E-03
    -17.443  0.5932E-12  0.4000E-03
    -17.370  0.5191E-15  0.4000E-03
    -17.298  0.0000E+00  0.4000E-03
    -17.226  0.0000E+00  0.4000E-03
    -17.154  0.0000E+00  0.4000E-03
    -17.082  0.0000E+00  0.4000E-03
    -17.009  0.0000E+00  0.4000E-03
    -16.937  0.0000E+00  0.4000E-03
    -16.865  0.0000E+00  0.4000E-03
    -16.793  0.0000E+00  0.4000E-03
    -16.721  0.0000E+00  0.4000E-03
    -16.648  0.0000E+00  0.4000E-03
    -16.576  0.0000E+00  0.4000E-03
    -16.504  0.0000E+00  0.4000E-03
    -16.432  0.0000E+00  0.4000E-03
    -16.360  0.3075E-18  0.4000E-03
    -16.287  0.7743E-15  0.4000E-03
    -16.215  0.9207E-12  0.4000E-03
    -16.143  0.3946E-09  0.4000E-03
    -16.071  0.6138E-07  0.4000E-03
    -15.999  0.3497E-05  0.4003E-03
    -15.926  0.7381E-04  0.4056E-03
    -15.854  0.5850E-03  0.4478E-03
    -15.782  0.1764E-02  0.5752E-03
    -15.710  0.2041E-02  0.7226E-03
    -15.638  0.9077E-03  0.7881E-03
    -15.565  0.1541E-03  0.7993E-03
    -15.493  0.9860E-05  0.8000E-03
    -15.421  0.2347E-06  0.8000E-03
    -15.349  0.4161E-08  0.8000E-03
    -15.277  0.2733E-06  0.8000E-03
    -15.204  0.1301E-04  0.8010E-03
    -15.132  0.2300E-03  0.8176E-03
    -15.060  0.1531E-02  0.9281E-03
    -14.988  0.3886E-02  0.1209E-02
    -14.916  0.3802E-02  0.1483E-02
    -14.843  0.1660E-02  0.1603E-02
    -14.771  0.1783E-02  0.1732E-02
    -14.699  0.4060E-02  0.2025E-02
    -14.627  0.4981E-02  0.2385E-02
    -14.554  0.5898E-02  0.2811E-02
    -14.482  0.6602E-02  0.3287E-02
    -14.410  0.3531E-02  0.3542E-02
    -14.338  0.8339E-03  0.3602E-02
    -14.266  0.9287E-03  0.3669E-02
    -14.193  0.3332E-02  0.3910E-02
    -14.121  0.6447E-02  0.4376E-02
    -14.049  0.1059E-01  0.5140E-02
    -13.977  0.1448E-01  0.6186E-02
    -13.905  0.1166E-01  0.7028E-02
    -13.832  0.8992E-02  0.7677E-02
    -13.760  0.1202E-01  0.8545E-02
    -13.688  0.1334E-01  0.9508E-02
    -13.616  0.1005E-01  0.1023E-01
    -13.544  0.5605E-02  0.1064E-01
    -13.471  0.1926E-02  0.1078E-01
    -13.399  0.3025E-03  0.1080E-01
    -13.327  0.1878E-04  0.1080E-01
    -13.255  0.4387E-06  0.1080E-01
    -13.183  0.3775E-08  0.1080E-01
    -13.110  0.1182E-10  0.1080E-01
    -13.038  0.1338E-13  0.1080E-01
    -12.966  0.5228E-17  0.1080E-01
    -12.894  0.0000E+00  0.1080E-01
    -12.822  0.0000E+00  0.1080E-01
    -12.749  0.0000E+00  0.1080E-01
    -12.677  0.0000E+00  0.1080E-01
    -12.605  0.0000E+00  0.1080E-01
    -12.533  0.0000E+00  0.1080E-01
    -12.461  0.0000E+00  0.1080E-01
    -12.388  0.0000E+00  0.1080E-01
    -12.316  0.0000E+00  0.1080E-01
    -12.244  0.0000E+00  0.1080E-01
    -12.172  0.0000E+00  0.1080E-01
    -12.100  0.0000E+00  0.1080E-01
    -12.027  0.0000E+00  0.1080E-01
    -11.955  0.0000E+00  0.1080E-01
    -11.883  0.0000E+00  0.1080E-01
    -11.811  0.0000E+00  0.1080E-01
    -11.738  0.0000E+00  0.1080E-01
    -11.666  0.0000E+00  0.1080E-01
    -11.594  0.0000E+00  0.1080E-01
    -11.522  0.0000E+00  0.1080E-01
    -11.450  0.0000E+00  0.1080E-01
    -11.377  0.0000E+00  0.1080E-01
    -11.305  0.0000E+00  0.1080E-01
    -11.233  0.0000E+00  0.1080E-01
    -11.161  0.0000E+00  0.1080E-01
    -11.089  0.0000E+00  0.1080E-01
    -11.016  0.0000E+00  0.1080E-01
    -10.944  0.0000E+00  0.1080E-01
    -10.872  0.0000E+00  0.1080E-01
    -10.800  0.0000E+00  0.1080E-01
    -10.728  0.0000E+00  0.1080E-01
    -10.655  0.0000E+00  0.1080E-01
    -10.583  0.0000E+00  0.1080E-01
    -10.511  0.0000E+00  0.1080E-01
    -10.439  0.0000E+00  0.1080E-01
    -10.367  0.0000E+00  0.1080E-01
    -10.294  0.0000E+00  0.1080E-01
    -10.222  0.0000E+00  0.1080E-01
    -10.150  0.9379E-16  0.1080E-01
    -10.078  0.1359E-12  0.1080E-01
    -10.006  0.7145E-10  0.1080E-01
     -9.933  0.1375E-07  0.1080E-01
     -9.861  0.9847E-06  0.1080E-01
     -9.789  0.2677E-04  0.1080E-01
     -9.717  0.2842E-03  0.1082E-01
     -9.645  0.1226E-02  0.1091E-01
     -9.572  0.2373E-02  0.1108E-01
     -9.500  0.2775E-02  0.1128E-01
     -9.428  0.2785E-02  0.1148E-01
     -9.356  0.2247E-02  0.1165E-01
     -9.284  0.1436E-02  0.1175E-01
     -9.211  0.6737E-03  0.1180E-01
     -9.139  0.6021E-03  0.1184E-01
     -9.067  0.1049E-02  0.1192E-01
     -8.995  0.8454E-03  0.1198E-01
     -8.922  0.2632E-03  0.1200E-01
     -8.850  0.3117E-04  0.1200E-01
     -8.778  0.1384E-05  0.1200E-01
     -8.706  0.2277E-07  0.1200E-01
     -8.634  0.1370E-09  0.1200E-01
     -8.561  0.2991E-12  0.1200E-01
     -8.489  0.2353E-15  0.1200E-01
     -8.417  0.0000E+00  0.1200E-01
     -8.345  0.0000E+00  0.1200E-01
     -8.273  0.0000E+00  0.1200E-01
     -8.200  0.0000E+00  0.1200E-01
     -8.128  0.0000E+00  0.1200E-01
     -8.056  0.0000E+00  0.1200E-01
     -7.984  0.1169E-16  0.1200E-01
     -7.912  0.2403E-13  0.1200E-01
     -7.839  0.1772E-10  0.1200E-01
     -7.767  0.4723E-08  0.1200E-01
     -7.695  0.4589E-06  0.1200E-01
     -7.623  0.1642E-04  0.1200E-01
     -7.551  0.2194E-03  0.1202E-01
     -7.478  0.1120E-02  0.1210E-01
     -7.406  0.2342E-02  0.1227E-01
     -7.334  0.2660E-02  0.1246E-01
     -7.262  0.2558E-02  0.1264E-01
     -7.190  0.1669E-02  0.1276E-01
     -7.117  0.9012E-03  0.1283E-01
     -7.045  0.2981E-02  0.1304E-01
     -6.973  0.8766E-02  0.1368E-01
     -6.901  0.1200E-01  0.1454E-01
     -6.829  0.8247E-02  0.1514E-01
     -6.756  0.7060E-02  0.1565E-01
     -6.684  0.1183E-01  0.1650E-01
     -6.612  0.1307E-01  0.1745E-01
     -6.540  0.9486E-02  0.1813E-01
     -6.467  0.5905E-02  0.1856E-01
     -6.395  0.3269E-02  0.1879E-01
     -6.323  0.1784E-02  0.1892E-01
     -6.251  0.8831E-03  0.1899E-01
     -6.179  0.6312E-03  0.1903E-01
     -6.106  0.1562E-02  0.1915E-01
     -6.034  0.2269E-02  0.1931E-01
     -5.962  0.2324E-02  0.1948E-01
     -5.890  0.4648E-02  0.1981E-01
     -5.818  0.7349E-02  0.2034E-01
     -5.745  0.6218E-02  0.2079E-01
     -5.673  0.5439E-02  0.2118E-01
     -5.601  0.1268E-01  0.2210E-01
     -5.529  0.2336E-01  0.2379E-01
     -5.457  0.2116E-01  0.2532E-01
     -5.384  0.1082E-01  0.2610E-01
     -5.312  0.6225E-02  0.2655E-01
     -5.240  0.5856E-02  0.2697E-01
     -5.168  0.4787E-02  0.2731E-01
     -5.096  0.2716E-02  0.2751E-01
     -5.023  0.2085E-02  0.2766E-01
     -4.951  0.5426E-02  0.2805E-01
     -4.879  0.1048E-01  0.2881E-01
     -4.807  0.9554E-02  0.2950E-01
     -4.735  0.7187E-02  0.3002E-01
     -4.662  0.8004E-02  0.3060E-01
     -4.590  0.8300E-02  0.3120E-01
     -4.518  0.6775E-02  0.3168E-01
     -4.446  0.3900E-02  0.3197E-01
     -4.374  0.3134E-02  0.3219E-01
     -4.301  0.5271E-02  0.3257E-01
     -4.229  0.6503E-02  0.3304E-01
     -4.157  0.6082E-02  0.3348E-01
     -4.085  0.5453E-02  0.3388E-01
     -4.013  0.4648E-02  0.3421E-01
     -3.940  0.2170E-02  0.3437E-01
     -3.868  0.4240E-03  0.3440E-01
     -3.796  0.2177E-03  0.3441E-01
     -3.724  0.1376E-02  0.3451E-01
     -3.651  0.4133E-02  0.3481E-01
     -3.579  0.6812E-02  0.3530E-01
     -3.507  0.1051E-01  0.3606E-01
     -3.435  0.1439E-01  0.3710E-01
     -3.363  0.1381E-01  0.3810E-01
     -3.290  0.1084E-01  0.3888E-01
     -3.218  0.8639E-02  0.3950E-01
     -3.146  0.7069E-02  0.4001E-01
     -3.074  0.8096E-02  0.4060E-01
     -3.002  0.1078E-01  0.4138E-01
     -2.929  0.1033E-01  0.4212E-01
     -2.857  0.6282E-02  0.4258E-01
     -2.785  0.3314E-02  0.4282E-01
     -2.713  0.4146E-02  0.4312E-01
     -2.641  0.7138E-02  0.4363E-01
     -2.568  0.7841E-02  0.4420E-01
     -2.496  0.6165E-02  0.4464E-01
     -2.424  0.5231E-02  0.4502E-01
     -2.352  0.7336E-02  0.4555E-01
     -2.280  0.7975E-02  0.4613E-01
     -2.207  0.6391E-02  0.4659E-01
     -2.135  0.5160E-02  0.4696E-01
     -2.063  0.2723E-02  0.4716E-01
     -1.991  0.1164E-02  0.4724E-01
     -1.919  0.2577E-02  0.4743E-01
     -1.846  0.4341E-02  0.4774E-01
     -1.774  0.3125E-02  0.4797E-01
     -1.702  0.1981E-02  0.4811E-01
     -1.630  0.2219E-02  0.4827E-01
     -1.558  0.1418E-02  0.4837E-01
     -1.485  0.3595E-03  0.4840E-01
     -1.413  0.3485E-04  0.4840E-01
     -1.341  0.1273E-05  0.4840E-01
     -1.269  0.1729E-07  0.4840E-01
     -1.197  0.8632E-10  0.4840E-01
     -1.124  0.1571E-12  0.4840E-01
     -1.052  0.1036E-15  0.4840E-01
     -0.980  0.0000E+00  0.4840E-01
     -0.908  0.0000E+00  0.4840E-01
     -0.835  0.0000E+00  0.4840E-01
     -0.763  0.7688E-18  0.4840E-01
     -0.691  0.2074E-14  0.4840E-01
     -0.619  0.1961E-11  0.4840E-01
     -0.547  0.6690E-09  0.4840E-01
     -0.474  0.8298E-07  0.4840E-01
     -0.402  0.3779E-05  0.4840E-01
     -0.330  0.6395E-04  0.4840E-01
     -0.258  0.4081E-03  0.4843E-01
     -0.186  0.1007E-02  0.4851E-01
     -0.113  0.1134E-02  0.4859E-01
     -0.041  0.1364E-02  0.4869E-01
      0.031  0.2230E-02  0.4885E-01
      0.103  0.2842E-02  0.4905E-01
      0.175  0.4120E-02  0.4935E-01
      0.248  0.4456E-02  0.4967E-01
      0.320  0.3783E-02  0.4995E-01
      0.392  0.6209E-02  0.5039E-01
      0.464  0.1192E-01  0.5126E-01
      0.536  0.1690E-01  0.5248E-01
      0.609  0.1516E-01  0.5357E-01
      0.681  0.1342E-01  0.5454E-01
      0.753  0.1107E-01  0.5534E-01
      0.825  0.5176E-02  0.5571E-01
      0.897  0.1654E-02  0.5583E-01
      0.970  0.3105E-02  0.5606E-01
      1.042  0.7918E-02  0.5663E-01
      1.114  0.1120E-01  0.5744E-01
      1.186  0.1114E-01  0.5824E-01
      1.258  0.1031E-01  0.5899E-01
      1.331  0.8434E-02  0.5959E-01
      1.403  0.4350E-02  0.5991E-01
      1.475  0.1129E-02  0.5999E-01
      1.547  0.1341E-03  0.6000E-01
      1.619  0.6843E-05  0.6000E-01
      1.692  0.1418E-06  0.6000E-01
      1.764  0.1141E-08  0.6000E-01
      1.836  0.3451E-11  0.6000E-01
      1.908  0.3846E-14  0.6000E-01
      1.981  0.1538E-17  0.6000E-01
      2.053  0.0000E+00  0.6000E-01
      2.125  0.0000E+00  0.6000E-01
      2.197  0.0000E+00  0.6000E-01
      2.269  0.0000E+00  0.6000E-01
      2.342  0.0000E+00  0.6000E-01
