 running on   36 total cores
 distrk:  each k-point on   36 cores,    1 groups
 distr:  one band on    3 cores,   12 groups
 using from now: INCAR     
 vasp.5.4.1 05Feb16 (build Apr 21 2017 13:36:42) gamma-only                     
  
 POSCAR found :  5 types and      93 ions
 scaLAPACK will be used
 LDA part: xc-table for Pade appr. of Perdew
 POSCAR found :  5 types and      93 ions
 POSCAR, INCAR and KPOINTS ok, starting setup
 FFT: planning ...
 WAVECAR not read
 entering main loop
       N       E                     dE             d eps       ncg     rms          rms(c)
DAV:   1     0.439781442576E+04    0.43978E+04   -0.18010E+05   600   0.112E+03
DAV:   2    -0.848209130297E+01   -0.44063E+04   -0.42327E+04  1008   0.266E+02
DAV:   3    -0.680466287603E+03   -0.67198E+03   -0.66256E+03   744   0.113E+02
DAV:   4    -0.713537629510E+03   -0.33071E+02   -0.32871E+02   864   0.317E+01
DAV:   5    -0.714771245123E+03   -0.12336E+01   -0.12264E+01   900   0.536E+00    0.123E+02
DAV:   6    -0.699639612592E+03    0.15132E+02   -0.58211E+02   828   0.315E+01    0.781E+01
DAV:   7    -0.709998564377E+03   -0.10359E+02   -0.84612E+02   924   0.707E+01    0.439E+01
DAV:   8    -0.674977254985E+03    0.35021E+02   -0.14294E+02   780   0.142E+01    0.331E+01
DAV:   9    -0.683643860478E+03   -0.86666E+01   -0.10564E+02   840   0.114E+01    0.434E+01
DAV:  10    -0.664495263666E+03    0.19149E+02   -0.18137E+02   900   0.941E+00    0.238E+01
DAV:  11    -0.659043758100E+03    0.54515E+01   -0.20478E+01   948   0.986E+00    0.154E+01
DAV:  12    -0.659333511855E+03   -0.28975E+00   -0.10042E+01   888   0.189E+00    0.172E+01
DAV:  13    -0.658622188950E+03    0.71132E+00   -0.39870E+00   864   0.758E-01    0.139E+01
DAV:  14    -0.663040238087E+03   -0.44180E+01   -0.36626E+01   912   0.339E+00    0.208E+01
DAV:  15    -0.662316600068E+03    0.72364E+00   -0.75538E-01   900   0.127E+00    0.188E+01
DAV:  16    -0.658647048757E+03    0.36696E+01   -0.18883E+00   876   0.336E+00    0.895E+00
DAV:  17    -0.658575142379E+03    0.71906E-01   -0.45338E-01   780   0.874E-01    0.100E+01
DAV:  18    -0.658518483906E+03    0.56658E-01   -0.20337E-01   876   0.404E-01    0.785E+00
DAV:  19    -0.658296276272E+03    0.22221E+00   -0.90359E-01   924   0.657E-01    0.447E+00
DAV:  20    -0.658223126878E+03    0.73149E-01   -0.18905E-01   924   0.530E-01    0.346E+00
DAV:  21    -0.658217200749E+03    0.59261E-02   -0.60022E-02   816   0.178E-01    0.325E+00
DAV:  22    -0.658169590689E+03    0.47610E-01   -0.84986E-02   924   0.299E-01    0.264E+00
DAV:  23    -0.658159933385E+03    0.96573E-02   -0.27208E-02   828   0.121E-01    0.250E+00
DAV:  24    -0.658100015496E+03    0.59918E-01   -0.33537E-01   900   0.641E-01    0.152E+00
DAV:  25    -0.658088290991E+03    0.11725E-01   -0.81076E-02   900   0.238E-01    0.669E-01
DAV:  26    -0.658105106777E+03   -0.16816E-01   -0.11499E-01   900   0.222E-01    0.235E+00
DAV:  27    -0.658092273162E+03    0.12834E-01   -0.49753E-02   804   0.966E-02    0.116E+00
DAV:  28    -0.658094565201E+03   -0.22920E-02   -0.45692E-02   756   0.680E-02    0.174E+00
DAV:  29    -0.658089513427E+03    0.50518E-02   -0.26921E-02   732   0.700E-02    0.145E+00
DAV:  30    -0.658087533355E+03    0.19801E-02   -0.95341E-03   756   0.457E-02    0.156E+00
DAV:  31    -0.658079048512E+03    0.84848E-02   -0.13401E-02   624   0.541E-02    0.849E-01
DAV:  32    -0.658079909687E+03   -0.86118E-03   -0.25730E-03   552   0.309E-02    0.111E+00
DAV:  33    -0.658076530339E+03    0.33793E-02   -0.31465E-03   456   0.190E-02    0.863E-01
DAV:  34    -0.658071828529E+03    0.47018E-02   -0.93718E-04   648   0.353E-02    0.752E-01
DAV:  35    -0.658068493039E+03    0.33355E-02   -0.61047E-04   552   0.258E-02    0.701E-01
DAV:  36    -0.658063279514E+03    0.52135E-02   -0.12521E-03   588   0.358E-02    0.446E-01
DAV:  37    -0.658059101869E+03    0.41776E-02   -0.37054E-04   660   0.284E-02    0.346E-01
DAV:  38    -0.658053288618E+03    0.58133E-02   -0.10521E-03   660   0.317E-02    0.228E-01
DAV:  39    -0.658048736774E+03    0.45518E-02   -0.51522E-04   600   0.348E-02    0.174E-01
DAV:  40    -0.658044702060E+03    0.40347E-02   -0.10005E-03   648   0.457E-02    0.262E-01
DAV:  41    -0.658042488920E+03    0.22131E-02   -0.33450E-04   528   0.212E-02    0.246E-01
DAV:  42    -0.658041788764E+03    0.70016E-03   -0.61956E-05   360   0.110E-02    0.254E-01
DAV:  43    -0.658041123485E+03    0.66528E-03   -0.11816E-04   384   0.112E-02    0.239E-01
DAV:  44    -0.658039434715E+03    0.16888E-02   -0.94348E-05   456   0.118E-02    0.200E-01
DAV:  45    -0.658036549206E+03    0.28855E-02   -0.27944E-04   540   0.153E-02    0.190E-01
DAV:  46    -0.658036091456E+03    0.45775E-03   -0.59339E-05   336   0.940E-03    0.180E-01
DAV:  47    -0.658034693256E+03    0.13982E-02   -0.15509E-04   384   0.107E-02    0.185E-01
DAV:  48    -0.658030076890E+03    0.46164E-02   -0.54834E-04   672   0.257E-02    0.142E-01
DAV:  49    -0.658026673457E+03    0.34034E-02   -0.56392E-04   684   0.262E-02    0.144E-01
DAV:  50    -0.658023864421E+03    0.28090E-02   -0.45188E-04   636   0.244E-02    0.154E-01
DAV:  51    -0.658053694387E+03   -0.29830E-01   -0.53884E-02   696   0.636E-02    0.311E+00
DAV:  52    -0.658041740026E+03    0.11954E-01   -0.26112E-03   768   0.804E-02    0.189E+00
DAV:  53    -0.658023416158E+03    0.18324E-01   -0.16921E-03   708   0.529E-02    0.656E-01
DAV:  54    -0.658023041333E+03    0.37483E-03   -0.12767E-03   612   0.419E-02    0.571E-01
DAV:  55    -0.658023378912E+03   -0.33758E-03   -0.17377E-04   444   0.258E-02    0.592E-01
DAV:  56    -0.658025845931E+03   -0.24670E-02   -0.69574E-05   420   0.138E-02    0.897E-01
DAV:  57    -0.658024576995E+03    0.12689E-02   -0.55449E-05   396   0.100E-02    0.728E-01
DAV:  58    -0.658022985041E+03    0.15920E-02   -0.41262E-05   408   0.868E-03    0.512E-01
DAV:  59    -0.658023610688E+03   -0.62565E-03   -0.49699E-05   396   0.822E-03    0.611E-01
DAV:  60    -0.658023460195E+03    0.15049E-03   -0.96622E-06   360   0.542E-03    0.571E-01
DAV:  61    -0.658025362628E+03   -0.19024E-02   -0.52617E-05   420   0.599E-03    0.826E-01
DAV:  62    -0.658023878168E+03    0.14845E-02   -0.26870E-05   372   0.886E-03    0.599E-01
DAV:  63    -0.658022846723E+03    0.10314E-02   -0.35322E-05   408   0.981E-03    0.467E-01
DAV:  64    -0.658023276434E+03   -0.42971E-03   -0.14818E-05   396   0.691E-03    0.526E-01
DAV:  65    -0.658023325571E+03   -0.49137E-04   -0.42943E-06   372   0.377E-03
   1 F= -.67322792E+03 E0= -.67316022E+03  d E =-.673228E+03
 curvature:   0.00 expect dE= 0.000E+00 dE for cont linesearch  0.000E+00
 trial: gam= 0.00000 g(F)=  0.152E+00 g(S)=  0.000E+00 ort = 0.000E+00 (trialstep = 0.100E+01)
 search vector abs. value=  0.152E+00
 bond charge predicted
       N       E                     dE             d eps       ncg     rms          rms(c)
DAV:   1    -0.658040214741E+03   -0.16938E-01   -0.11205E+01   624   0.491E+00    0.307E+00
DAV:   2    -0.658552974777E+03   -0.51276E+00   -0.42762E+00   864   0.275E+00    0.542E+00
DAV:   3    -0.658122226102E+03    0.43075E+00   -0.35380E+00   888   0.225E+00    0.273E+00
DAV:   4    -0.658119061484E+03    0.31646E-02   -0.11179E+00   912   0.452E-01    0.235E+00
DAV:   5    -0.658091904560E+03    0.27157E-01   -0.41022E-01   900   0.296E-01    0.152E+00
DAV:   6    -0.658093468835E+03   -0.15643E-02   -0.39161E-01   852   0.305E-01    0.180E+00
DAV:   7    -0.658075524757E+03    0.17944E-01   -0.73409E-02   804   0.227E-01    0.793E-01
DAV:   8    -0.658073919566E+03    0.16052E-02   -0.46970E-02   804   0.125E-01    0.963E-01
DAV:   9    -0.658068928206E+03    0.49914E-02   -0.28420E-02   792   0.987E-02    0.474E-01
DAV:  10    -0.658069635453E+03   -0.70725E-03   -0.20780E-02   828   0.980E-02    0.577E-01
DAV:  11    -0.658067333121E+03    0.23023E-02   -0.66436E-03   648   0.536E-02    0.280E-01
DAV:  12    -0.658067380215E+03   -0.47094E-04   -0.40366E-03   468   0.358E-02    0.250E-01
DAV:  13    -0.658066944656E+03    0.43556E-03   -0.16822E-03   432   0.311E-02    0.149E-01
DAV:  14    -0.658066907374E+03    0.37282E-04   -0.14562E-03   456   0.246E-02    0.907E-02
DAV:  15    -0.658066856840E+03    0.50534E-04   -0.60230E-04   384   0.184E-02
   2 F= -.67328913E+03 E0= -.67322846E+03  d E =-.612076E-01
 trial-energy change:   -0.061208  1 .order   -0.064563   -0.151956    0.022829
 step:   0.8551(harm=  0.8694)  dis= 0.00852  next Energy=  -673.290792 (dE=-0.629E-01)
 bond charge predicted
       N       E                     dE             d eps       ncg     rms          rms(c)
DAV:   1    -0.658070238698E+03   -0.33313E-02   -0.23543E-01   624   0.713E-01    0.348E-01
DAV:   2    -0.658071874859E+03   -0.16362E-02   -0.14196E-02   780   0.197E-01    0.437E-01
DAV:   3    -0.658075243804E+03   -0.33689E-02   -0.27661E-02   888   0.171E-01    0.605E-01
DAV:   4    -0.658071645975E+03    0.35978E-02   -0.10998E-02   780   0.106E-01    0.301E-01
DAV:   5    -0.658071293237E+03    0.35274E-03   -0.27509E-03   552   0.417E-02    0.247E-01
DAV:   6    -0.658071253509E+03    0.39728E-04   -0.40726E-03   600   0.356E-02    0.217E-01
DAV:   7    -0.658071470328E+03   -0.21682E-03   -0.50792E-03   456   0.353E-02    0.263E-01
DAV:   8    -0.658071026620E+03    0.44371E-03   -0.34684E-03   468   0.375E-02    0.874E-02
DAV:   9    -0.658071023445E+03    0.31751E-05   -0.17979E-03   372   0.176E-02    0.108E-01
DAV:  10    -0.658070979796E+03    0.43649E-04   -0.11880E-03   384   0.131E-02    0.572E-02
DAV:  11    -0.658070972933E+03    0.68638E-05   -0.65297E-04   384   0.986E-03
   3 F= -.67329060E+03 E0= -.67323039E+03  d E =-.626815E-01
 curvature:  -0.43 expect dE=-0.700E-02 dE for cont linesearch -0.164E-04
 trial: gam= 0.09139 g(F)=  0.163E-01 g(S)=  0.000E+00 ort = 0.241E-02 (trialstep = 0.971E+00)
 search vector abs. value=  0.180E-01
 bond charge predicted
       N       E                     dE             d eps       ncg     rms          rms(c)
DAV:   1    -0.658055672830E+03    0.15307E-01   -0.16507E+00   624   0.181E+00    0.657E-01
DAV:   2    -0.658073185362E+03   -0.17513E-01   -0.92256E-02   888   0.535E-01    0.197E+00
DAV:   3    -0.658067724898E+03    0.54605E-02   -0.57987E-02   864   0.265E-01    0.754E-01
DAV:   4    -0.658064090349E+03    0.36345E-02   -0.66097E-03   828   0.968E-02    0.736E-01
DAV:   5    -0.658061374608E+03    0.27157E-02   -0.50833E-03   720   0.887E-02    0.471E-01
DAV:   6    -0.658066651820E+03   -0.52772E-02   -0.11122E-02   852   0.146E-01    0.124E+00
DAV:   7    -0.658061198039E+03    0.54538E-02   -0.12676E-02   816   0.127E-01    0.282E-01
DAV:   8    -0.658060278105E+03    0.91993E-03   -0.17651E-03   768   0.575E-02    0.179E-01
DAV:   9    -0.658060137281E+03    0.14082E-03   -0.89550E-04   456   0.297E-02    0.139E-01
DAV:  10    -0.658060037144E+03    0.10014E-03   -0.68135E-04   396   0.217E-02    0.882E-02
DAV:  11    -0.658059996014E+03    0.41130E-04   -0.45813E-04   396   0.155E-02
   4 F= -.67328361E+03 E0= -.67322331E+03  d E =0.699692E-02
 trial-energy change:    0.006997  1 .order    0.007159   -0.016037    0.030355
 step:   0.3357(harm=  0.3357)  dis= 0.00324  next Energy=  -673.293374 (dE=-0.277E-02)
 bond charge predicted
       N       E                     dE             d eps       ncg     rms          rms(c)
DAV:   1    -0.658070699911E+03   -0.10663E-01   -0.70480E-01   624   0.119E+00    0.432E-01
DAV:   2    -0.658076278713E+03   -0.55788E-02   -0.43626E-02   876   0.358E-01    0.705E-01
DAV:   3    -0.658076027689E+03    0.25102E-03   -0.31957E-02   852   0.180E-01    0.823E-01
DAV:   4    -0.658075336072E+03    0.69162E-03   -0.20821E-02   816   0.141E-01    0.534E-01
DAV:   5    -0.658073987273E+03    0.13488E-02   -0.34914E-03   684   0.625E-02    0.479E-01
DAV:   6    -0.658072936115E+03    0.10512E-02   -0.35781E-03   720   0.648E-02    0.232E-01
DAV:   7    -0.658073182808E+03   -0.24669E-03   -0.10993E-03   540   0.380E-02    0.376E-01
DAV:   8    -0.658072441359E+03    0.74145E-03   -0.73024E-04   456   0.307E-02    0.619E-02
DAV:   9    -0.658072675876E+03   -0.23452E-03   -0.47546E-04   444   0.250E-02    0.232E-01
DAV:  10    -0.658072368469E+03    0.30741E-03   -0.36859E-04   396   0.166E-02    0.343E-02
DAV:  11    -0.658072480107E+03   -0.11164E-03   -0.32133E-04   396   0.147E-02    0.147E-01
DAV:  12    -0.658072369521E+03    0.11059E-03   -0.21458E-04   360   0.906E-03    0.385E-02
DAV:  13    -0.658072412354E+03   -0.42833E-04   -0.14381E-04   360   0.756E-03
   5 F= -.67329341E+03 E0= -.67323273E+03  d E =-.280315E-02
 curvature:  -0.18 expect dE=-0.131E-02 dE for cont linesearch -0.339E-08
 trial: gam= 0.45226 g(F)=  0.718E-02 g(S)=  0.000E+00 ort =-0.183E-04 (trialstep = 0.844E+00)
 search vector abs. value=  0.108E-01
 bond charge predicted
       N       E                     dE             d eps       ncg     rms          rms(c)
DAV:   1    -0.658068952409E+03    0.34171E-02   -0.58858E-01   600   0.118E+00    0.520E-01
DAV:   2    -0.658072187165E+03   -0.32348E-02   -0.27518E-02   816   0.288E-01    0.520E-01
DAV:   3    -0.658083390630E+03   -0.11203E-01   -0.33593E-02   888   0.199E-01    0.190E+00
DAV:   4    -0.658074450023E+03    0.89406E-02   -0.29908E-02   840   0.176E-01    0.436E-01
DAV:   5    -0.658073665355E+03    0.78467E-03   -0.31932E-03   684   0.620E-02    0.705E-01
DAV:   6    -0.658071087218E+03    0.25781E-02   -0.15841E-03   552   0.470E-02    0.976E-02
DAV:   7    -0.658072354488E+03   -0.12673E-02   -0.12351E-03   528   0.371E-02    0.589E-01
DAV:   8    -0.658070822449E+03    0.15320E-02   -0.85185E-04   480   0.332E-02    0.191E-01
DAV:   9    -0.658071256368E+03   -0.43392E-03   -0.62618E-04   456   0.247E-02    0.395E-01
DAV:  10    -0.658070704005E+03    0.55236E-03   -0.44741E-04   360   0.145E-02    0.209E-01
DAV:  11    -0.658070902951E+03   -0.19895E-03   -0.21125E-04   384   0.135E-02    0.284E-01
DAV:  12    -0.658070711117E+03    0.19183E-03   -0.15214E-04   360   0.714E-03    0.193E-01
DAV:  13    -0.658070788707E+03   -0.77590E-04   -0.92115E-05   360   0.835E-03
   6 F= -.67329492E+03 E0= -.67323337E+03  d E =-.151035E-02
 trial-energy change:   -0.001510  1 .order   -0.001557   -0.006054    0.002941
 step:   0.5680(harm=  0.5680)  dis= 0.00209  next Energy=  -673.295442 (dE=-0.204E-02)
 bond charge predicted
       N       E                     dE             d eps       ncg     rms          rms(c)
DAV:   1    -0.658072077273E+03   -0.13662E-02   -0.62913E-02   600   0.386E-01    0.219E-01
DAV:   2    -0.658073235461E+03   -0.11582E-02   -0.48276E-03   864   0.115E-01    0.385E-01
DAV:   3    -0.658074824656E+03   -0.15892E-02   -0.10070E-02   804   0.108E-01    0.706E-01
DAV:   4    -0.658073015340E+03    0.18093E-02   -0.67993E-03   720   0.867E-02    0.252E-01
DAV:   5    -0.658072790996E+03    0.22434E-03   -0.73771E-04   432   0.316E-02    0.277E-01
DAV:   6    -0.658072317518E+03    0.47348E-03   -0.23232E-04   396   0.216E-02    0.554E-02
DAV:   7    -0.658072665459E+03   -0.34794E-03   -0.24750E-04   408   0.197E-02    0.279E-01
DAV:   8    -0.658072245238E+03    0.42022E-03   -0.15680E-04   360   0.167E-02    0.520E-02
DAV:   9    -0.658072418413E+03   -0.17318E-03   -0.72836E-05   348   0.114E-02    0.188E-01
DAV:  10    -0.658072263659E+03    0.15475E-03   -0.34956E-05   324   0.765E-03    0.897E-02
DAV:  11    -0.658072340027E+03   -0.76368E-04   -0.19479E-05   324   0.588E-03
   7 F= -.67329544E+03 E0= -.67323433E+03  d E =-.203134E-02
 curvature:  -0.43 expect dE=-0.273E-03 dE for cont linesearch -0.326E-08
 trial: gam= 0.05373 g(F)=  0.636E-03 g(S)=  0.000E+00 ort =-0.907E-05 (trialstep = 0.789E+00)
 search vector abs. value=  0.667E-03
 bond charge predicted
       N       E                     dE             d eps       ncg     rms          rms(c)
DAV:   1    -0.658072619982E+03   -0.35632E-03   -0.37009E-02   600   0.247E-01    0.113E-01
DAV:   2    -0.658072868419E+03   -0.24844E-03   -0.14859E-03   864   0.602E-02    0.168E-01
DAV:   3    -0.658073186574E+03   -0.31816E-03   -0.10720E-03   588   0.351E-02    0.280E-01
DAV:   4    -0.658072814561E+03    0.37201E-03   -0.91346E-04   444   0.334E-02    0.926E-02
DAV:   5    -0.658072859300E+03   -0.44739E-04   -0.16531E-04   336   0.149E-02
   8 F= -.67329574E+03 E0= -.67323430E+03  d E =-.303852E-03
 trial-energy change:   -0.000304  1 .order   -0.000234   -0.000501    0.000033
 step:   0.7402(harm=  0.7402)  dis= 0.00156  next Energy=  -673.295672 (dE=-0.235E-03)
 bond charge predicted
       N       E                     dE             d eps       ncg     rms          rms(c)
DAV:   1    -0.658072719217E+03    0.95344E-04   -0.22202E-04   468   0.206E-02    0.269E-02
DAV:   2    -0.658072886094E+03   -0.16688E-03   -0.48937E-04   444   0.264E-02    0.143E-01
DAV:   3    -0.658072703431E+03    0.18266E-03   -0.27418E-04   408   0.211E-02    0.211E-02
DAV:   4    -0.658072727783E+03   -0.24352E-04   -0.21538E-05   324   0.731E-03
   9 F= -.67329562E+03 E0= -.67323543E+03  d E =-.185591E-03
 curvature:  -0.39 expect dE=-0.515E-03 dE for cont linesearch -0.239E-06
 trial: gam= 2.10671 g(F)=  0.133E-02 g(S)=  0.000E+00 ort =-0.203E-04 (trialstep = 0.124E+00)
 search vector abs. value=  0.420E-02
 bond charge predicted
       N       E                     dE             d eps       ncg     rms          rms(c)
DAV:   1    -0.658072981423E+03   -0.27799E-03   -0.52416E-03   588   0.954E-02    0.473E-02
DAV:   2    -0.658073848511E+03   -0.86709E-03   -0.24390E-03   684   0.630E-02    0.389E-01
DAV:   3    -0.658073032691E+03    0.81582E-03   -0.18270E-03   528   0.490E-02    0.676E-02
DAV:   4    -0.658073022088E+03    0.10602E-04   -0.95542E-05   372   0.138E-02
  10 F= -.67329579E+03 E0= -.67323505E+03  d E =-.163712E-03
 ZBRENT: can't locate minimum, use default step
 trial-energy change:   -0.000164  1 .order   -0.000142   -0.000159   -0.000125
 step:   0.4946(harm=  0.5806)  dis= 0.00291  next Energy=  -673.295995 (dE=-0.373E-03)
 bond charge predicted
       N       E                     dE             d eps       ncg     rms          rms(c)
DAV:   1    -0.658073548856E+03   -0.51617E-03   -0.47561E-02   600   0.287E-01    0.829E-02
DAV:   2    -0.658074367166E+03   -0.81831E-03   -0.31324E-03   852   0.912E-02    0.360E-01
DAV:   3    -0.658073764644E+03    0.60252E-03   -0.23020E-03   684   0.532E-02    0.120E-01
DAV:   4    -0.658073739236E+03    0.25408E-04   -0.14946E-04   360   0.168E-02
  11 F= -.67329611E+03 E0= -.67323541E+03  d E =-.488848E-03
 curvature:  -0.92 expect dE=-0.803E-03 dE for cont linesearch -0.803E-04
 ZBRENT: increasing intervall
 opt :   1.2365  next Energy=  -673.296261 (dE=-0.639E-03)
 bond charge predicted
       N       E                     dE             d eps       ncg     rms          rms(c)
DAV:   1    -0.658073985816E+03   -0.22117E-03   -0.18947E-01   600   0.573E-01    0.161E-01
DAV:   2    -0.658076843120E+03   -0.28573E-02   -0.11416E-02   900   0.178E-01    0.724E-01
DAV:   3    -0.658074843291E+03    0.19998E-02   -0.76304E-03   816   0.957E-02    0.228E-01
DAV:   4    -0.658074678084E+03    0.16521E-03   -0.46035E-04   564   0.271E-02    0.215E-01
DAV:   5    -0.658074425114E+03    0.25297E-03   -0.26719E-04   456   0.234E-02    0.112E-01
DAV:   6    -0.658074478810E+03   -0.53695E-04   -0.32573E-04   492   0.228E-02
  12 F= -.67329607E+03 E0= -.67323389E+03  d E =-.443567E-03
 curvature:  -1.72 expect dE=-0.420E-02 dE for cont linesearch -0.213E-03
 ZBRENT: bracketing found
 ZBRENT: interpolating
 opt :   0.8335  next Energy=  -673.296214 (dE=-0.592E-03)
 bond charge predicted
       N       E                     dE             d eps       ncg     rms          rms(c)
DAV:   1    -0.658074015485E+03    0.40963E-03   -0.56632E-02   600   0.313E-01    0.133E-01
DAV:   2    -0.658076540753E+03   -0.25253E-02   -0.11870E-02   888   0.148E-01    0.440E-01
DAV:   3    -0.658074150420E+03    0.23903E-02   -0.97951E-03   828   0.108E-01    0.113E-01
DAV:   4    -0.658074134675E+03    0.15745E-04   -0.79398E-04   444   0.250E-02
  13 F= -.67329615E+03 E0= -.67323665E+03  d E =-.525920E-03
 curvature:  -0.83 expect dE=-0.891E-03 dE for cont linesearch -0.437E-06
 trial: gam= 0.53481 g(F)=  0.107E-02 g(S)=  0.000E+00 ort =-0.471E-04 (trialstep = 0.266E+00)
 search vector abs. value=  0.223E-02
 bond charge predicted
       N       E                     dE             d eps       ncg     rms          rms(c)
DAV:   1    -0.658074456555E+03   -0.30613E-03   -0.13705E-02   600   0.150E-01    0.101E-01
DAV:   2    -0.658075421422E+03   -0.96487E-03   -0.47448E-03   768   0.701E-02    0.402E-01
DAV:   3    -0.658074833385E+03    0.58804E-03   -0.65871E-03   720   0.759E-02    0.201E-01
DAV:   4    -0.658074476214E+03    0.35717E-03   -0.13883E-03   432   0.314E-02    0.864E-02
DAV:   5    -0.658074449411E+03    0.26803E-04   -0.65108E-04   384   0.120E-02
  14 F= -.67329631E+03 E0= -.67323596E+03  d E =-.160627E-03
 trial-energy change:   -0.000161  1 .order   -0.000206   -0.000279   -0.000134
 step:   0.5108(harm=  0.5108)  dis= 0.00159  next Energy=  -673.296416 (dE=-0.268E-03)
 bond charge predicted
       N       E                     dE             d eps       ncg     rms          rms(c)
DAV:   1    -0.658074623953E+03   -0.14774E-03   -0.11269E-02   600   0.137E-01    0.616E-02
DAV:   2    -0.658074773519E+03   -0.14957E-03   -0.14827E-03   564   0.320E-02    0.172E-01
DAV:   3    -0.658074722791E+03    0.50728E-04   -0.18359E-03   372   0.202E-02    0.112E-01
DAV:   4    -0.658074699110E+03    0.23680E-04   -0.10295E-03   384   0.208E-02    0.102E-01
DAV:   5    -0.658074650179E+03    0.48931E-04   -0.35691E-04   348   0.122E-02
  15 F= -.67329637E+03 E0= -.67323546E+03  d E =-.219423E-03
 curvature:  -0.54 expect dE=-0.429E-03 dE for cont linesearch -0.363E-06
 trial: gam= 0.68503 g(F)=  0.792E-03 g(S)=  0.000E+00 ort = 0.386E-04 (trialstep = 0.315E+00)
 search vector abs. value=  0.189E-02
 bond charge predicted
       N       E                     dE             d eps       ncg     rms          rms(c)
DAV:   1    -0.658074945871E+03   -0.24676E-03   -0.12293E-02   600   0.155E-01    0.742E-02
DAV:   2    -0.658075133730E+03   -0.18786E-03   -0.69034E-04   672   0.334E-02    0.190E-01
DAV:   3    -0.658075039131E+03    0.94600E-04   -0.60368E-04   336   0.188E-02
  16 F= -.67329664E+03 E0= -.67323703E+03  d E =-.269224E-03
 trial-energy change:   -0.000269  1 .order   -0.000199   -0.000258   -0.000141
 step:   0.6926(harm=  0.6926)  dis= 0.00176  next Energy=  -673.296651 (dE=-0.284E-03)
 bond charge predicted
       N       E                     dE             d eps       ncg     rms          rms(c)
DAV:   1    -0.658075213094E+03   -0.79364E-04   -0.18206E-02   600   0.189E-01    0.129E-01
DAV:   2    -0.658078252645E+03   -0.30396E-02   -0.97072E-03   840   0.108E-01    0.590E-01
DAV:   3    -0.658075494347E+03    0.27583E-02   -0.92982E-03   756   0.998E-02    0.193E-01
DAV:   4    -0.658075444982E+03    0.49365E-04   -0.10466E-03   516   0.319E-02    0.196E-01
DAV:   5    -0.658075192810E+03    0.25217E-03   -0.73904E-04   444   0.260E-02    0.662E-02
DAV:   6    -0.658075205503E+03   -0.12693E-04   -0.48631E-04   360   0.163E-02
  17 F= -.67329666E+03 E0= -.67323642E+03  d E =-.292462E-03
 curvature:  -0.80 expect dE=-0.621E-03 dE for cont linesearch -0.845E-06
 trial: gam= 1.13000 g(F)=  0.777E-03 g(S)=  0.000E+00 ort =-0.447E-04 (trialstep = 0.239E+00)
 search vector abs. value=  0.309E-02
 bond charge predicted
       N       E                     dE             d eps       ncg     rms          rms(c)
DAV:   1    -0.658075303279E+03   -0.11047E-03   -0.11973E-02   600   0.142E-01    0.558E-02
DAV:   2    -0.658075590670E+03   -0.28739E-03   -0.20136E-03   696   0.445E-02    0.203E-01
DAV:   3    -0.658075377610E+03    0.21306E-03   -0.20021E-03   480   0.348E-02    0.842E-02
DAV:   4    -0.658075379125E+03   -0.15146E-05   -0.54276E-04   360   0.188E-02
  18 F= -.67329675E+03 E0= -.67323695E+03  d E =-.920889E-04
 trial-energy change:   -0.000092  1 .order   -0.000138   -0.000173   -0.000103
 step:   0.5881(harm=  0.5881)  dis= 0.00170  next Energy=  -673.296874 (dE=-0.214E-03)
 bond charge predicted
       N       E                     dE             d eps       ncg     rms          rms(c)
DAV:   1    -0.658075470600E+03   -0.92990E-04   -0.25374E-02   600   0.208E-01    0.725E-02
DAV:   2    -0.658076208116E+03   -0.73752E-03   -0.25662E-03   840   0.710E-02    0.353E-01
DAV:   3    -0.658075643351E+03    0.56476E-03   -0.23732E-03   624   0.526E-02    0.125E-01
DAV:   4    -0.658075597580E+03    0.45771E-04   -0.12283E-04   384   0.155E-02
  19 F= -.67329685E+03 E0= -.67323673E+03  d E =-.191739E-03
 curvature:  -1.25 expect dE=-0.186E-02 dE for cont linesearch -0.339E-05
 trial: gam= 1.37540 g(F)=  0.149E-02 g(S)=  0.000E+00 ort =-0.916E-04 (trialstep = 0.135E+00)
 search vector abs. value=  0.708E-02
 bond charge predicted
       N       E                     dE             d eps       ncg     rms          rms(c)
DAV:   1    -0.658075705535E+03   -0.62183E-04   -0.90605E-03   612   0.118E-01    0.708E-02
DAV:   2    -0.658075963332E+03   -0.25780E-03   -0.54138E-04   516   0.324E-02    0.224E-01
DAV:   3    -0.658075852687E+03    0.11065E-03   -0.64952E-04   444   0.269E-02    0.143E-01
DAV:   4    -0.658075815266E+03    0.37421E-04   -0.49890E-04   396   0.243E-02
  20 F= -.67329703E+03 E0= -.67323546E+03  d E =-.177696E-03
 trial-energy change:   -0.000178  1 .order   -0.000158   -0.000183   -0.000132
 step:   0.4789(harm=  0.4789)  dis= 0.00255  next Energy=  -673.297177 (dE=-0.326E-03)
 bond charge predicted
       N       E                     dE             d eps       ncg     rms          rms(c)
DAV:   1    -0.658075881171E+03   -0.28484E-04   -0.58431E-02   600   0.298E-01    0.123E-01
DAV:   2    -0.658076465528E+03   -0.58436E-03   -0.18339E-03   876   0.697E-02    0.316E-01
DAV:   3    -0.658076298949E+03    0.16658E-03   -0.87028E-04   552   0.327E-02    0.228E-01
DAV:   4    -0.658076265105E+03    0.33843E-04   -0.13590E-03   504   0.385E-02    0.224E-01
DAV:   5    -0.658076036469E+03    0.22864E-03   -0.48306E-04   420   0.238E-02    0.104E-01
DAV:   6    -0.658076091025E+03   -0.54556E-04   -0.17162E-04   348   0.168E-02
  21 F= -.67329720E+03 E0= -.67323565E+03  d E =-.351932E-03
 curvature:  -1.25 expect dE=-0.183E-02 dE for cont linesearch -0.440E-06
 trial: gam= 0.91484 g(F)=  0.147E-02 g(S)=  0.000E+00 ort =-0.500E-04 (trialstep = 0.197E+00)
 search vector abs. value=  0.731E-02
 bond charge predicted
       N       E                     dE             d eps       ncg     rms          rms(c)
DAV:   1    -0.658076211064E+03   -0.17459E-03   -0.18052E-02   600   0.173E-01    0.714E-02
DAV:   2    -0.658076574094E+03   -0.36303E-03   -0.13097E-03   792   0.555E-02    0.225E-01
DAV:   3    -0.658076247254E+03    0.32684E-03   -0.10786E-03   480   0.350E-02    0.665E-02
DAV:   4    -0.658076291922E+03   -0.44668E-04   -0.50429E-04   408   0.248E-02
  22 F= -.67329733E+03 E0= -.67323755E+03  d E =-.125992E-03
 trial-energy change:   -0.000126  1 .order   -0.000219   -0.000281   -0.000156
 step:   0.4421(harm=  0.4421)  dis= 0.00267  next Energy=  -673.297519 (dE=-0.316E-03)
 bond charge predicted
       N       E                     dE             d eps       ncg     rms          rms(c)
DAV:   1    -0.658076384688E+03   -0.13743E-03   -0.28462E-02   600   0.215E-01    0.718E-02
DAV:   2    -0.658076503756E+03   -0.11907E-03   -0.15372E-03   840   0.517E-02    0.109E-01
DAV:   3    -0.658076501397E+03    0.23585E-05   -0.14653E-03   396   0.153E-02    0.934E-02
DAV:   4    -0.658076517363E+03   -0.15965E-04   -0.12233E-03   384   0.209E-02    0.988E-02
DAV:   5    -0.658076472560E+03    0.44803E-04   -0.61638E-04   396   0.178E-02
  23 F= -.67329742E+03 E0= -.67323636E+03  d E =-.213923E-03
 curvature:  -1.13 expect dE=-0.141E-02 dE for cont linesearch -0.267E-04
 ZBRENT: increasing intervall
 opt :   0.9321  next Energy=  -673.297437 (dE=-0.234E-03)
 bond charge predicted
       N       E                     dE             d eps       ncg     rms          rms(c)
DAV:   1    -0.658076334602E+03    0.18276E-03   -0.11214E-01   600   0.428E-01    0.150E-01
DAV:   2    -0.658078527324E+03   -0.21927E-02   -0.11589E-02   936   0.152E-01    0.414E-01
DAV:   3    -0.658076740241E+03    0.17871E-02   -0.10209E-02   828   0.105E-01    0.192E-01
DAV:   4    -0.658076627908E+03    0.11233E-03   -0.13104E-03   504   0.310E-02    0.143E-01
DAV:   5    -0.658076597558E+03    0.30350E-04   -0.81717E-04   384   0.147E-02
  24 F= -.67329736E+03 E0= -.67323744E+03  d E =-.154752E-03
 curvature:  -0.83 expect dE=-0.359E-02 dE for cont linesearch -0.686E-04
 ZBRENT: bracketing found
 ZBRENT: interpolating
 opt :   0.6130  next Energy=  -673.297453 (dE=-0.249E-03)
 bond charge predicted
       N       E                     dE             d eps       ncg     rms          rms(c)
DAV:   1    -0.658076424277E+03    0.20363E-03   -0.49404E-02   600   0.282E-01    0.118E-01
DAV:   2    -0.658076907781E+03   -0.48350E-03   -0.65913E-03   876   0.717E-02    0.275E-01
DAV:   3    -0.658076854921E+03    0.52861E-04   -0.78588E-03   456   0.285E-02    0.191E-01
DAV:   4    -0.658076900613E+03   -0.45692E-04   -0.47959E-03   480   0.389E-02    0.231E-01
DAV:   5    -0.658076614709E+03    0.28590E-03   -0.20510E-03   408   0.257E-02    0.693E-02
DAV:   6    -0.658076588097E+03    0.26612E-04   -0.69669E-04   348   0.125E-02
  25 F= -.67329747E+03 E0= -.67323688E+03  d E =-.265044E-03
 curvature:  -0.43 expect dE=-0.870E-03 dE for cont linesearch -0.251E-05
 trial: gam= 1.23767 g(F)=  0.202E-02 g(S)=  0.000E+00 ort =-0.206E-03 (trialstep = 0.161E+00)
 search vector abs. value=  0.127E-01
 bond charge predicted
       N       E                     dE             d eps       ncg     rms          rms(c)
DAV:   1    -0.658076879208E+03   -0.26450E-03   -0.21770E-02   600   0.182E-01    0.599E-02
DAV:   2    -0.658077052474E+03   -0.17327E-03   -0.13075E-03   708   0.445E-02    0.153E-01
DAV:   3    -0.658076948041E+03    0.10443E-03   -0.95102E-04   372   0.190E-02    0.612E-02
DAV:   4    -0.658076961018E+03   -0.12977E-04   -0.61955E-04   348   0.149E-02
  26 F= -.67329769E+03 E0= -.67323723E+03  d E =-.216642E-03
 trial-energy change:   -0.000217  1 .order   -0.000230   -0.000284   -0.000176
 step:   0.4233(harm=  0.4233)  dis= 0.00349  next Energy=  -673.297842 (dE=-0.373E-03)
 bond charge predicted
       N       E                     dE             d eps       ncg     rms          rms(c)
DAV:   1    -0.658077175929E+03   -0.22789E-03   -0.55609E-02   600   0.292E-01    0.870E-02
DAV:   2    -0.658077952101E+03   -0.77617E-03   -0.33440E-03   888   0.823E-02    0.355E-01
DAV:   3    -0.658077467789E+03    0.48431E-03   -0.28415E-03   660   0.533E-02    0.148E-01
DAV:   4    -0.658077353440E+03    0.11435E-03   -0.28617E-04   408   0.205E-02    0.123E-01
DAV:   5    -0.658077264625E+03    0.88815E-04   -0.12455E-04   396   0.138E-02
  27 F= -.67329774E+03 E0= -.67323740E+03  d E =-.266991E-03
 curvature:  -1.52 expect dE=-0.198E-02 dE for cont linesearch -0.299E-05
 trial: gam= 0.67523 g(F)=  0.130E-02 g(S)=  0.000E+00 ort =-0.158E-03 (trialstep = 0.214E+00)
 search vector abs. value=  0.688E-02
 bond charge predicted
       N       E                     dE             d eps       ncg     rms          rms(c)
DAV:   1    -0.658077628367E+03   -0.27493E-03   -0.18914E-02   600   0.169E-01    0.733E-02
DAV:   2    -0.658077912354E+03   -0.28399E-03   -0.11335E-03   660   0.448E-02    0.223E-01
DAV:   3    -0.658077836527E+03    0.75826E-04   -0.15042E-03   492   0.361E-02    0.178E-01
DAV:   4    -0.658077738037E+03    0.98490E-04   -0.75407E-04   408   0.274E-02
  28 F= -.67329802E+03 E0= -.67323873E+03  d E =-.289198E-03
 trial-energy change:   -0.000289  1 .order   -0.000209   -0.000255   -0.000164
 step:   0.5963(harm=  0.5963)  dis= 0.00378  next Energy=  -673.298091 (dE=-0.356E-03)
 bond charge predicted
       N       E                     dE             d eps       ncg     rms          rms(c)
DAV:   1    -0.658078116839E+03   -0.28031E-03   -0.61765E-02   600   0.304E-01    0.136E-01
DAV:   2    -0.658078817239E+03   -0.70040E-03   -0.16805E-03   876   0.668E-02    0.357E-01
DAV:   3    -0.658078670530E+03    0.14671E-03   -0.12978E-03   504   0.380E-02    0.285E-01
DAV:   4    -0.658078509955E+03    0.16058E-03   -0.15372E-03   504   0.413E-02    0.218E-01
DAV:   5    -0.658078267263E+03    0.24269E-03   -0.40626E-04   360   0.215E-02    0.143E-01
DAV:   6    -0.658078386759E+03   -0.11950E-03   -0.17601E-04   360   0.161E-02    0.206E-01
DAV:   7    -0.658078182297E+03    0.20446E-03   -0.18266E-04   372   0.185E-02    0.792E-02
DAV:   8    -0.658078192882E+03   -0.10585E-04   -0.14505E-04   360   0.149E-02
  29 F= -.67329815E+03 E0= -.67323808E+03  d E =-.414914E-03
 curvature:  -1.72 expect dE=-0.298E-02 dE for cont linesearch -0.292E-05
 trial: gam= 1.09287 g(F)=  0.173E-02 g(S)=  0.000E+00 ort = 0.108E-03 (trialstep = 0.196E+00)
 search vector abs. value=  0.102E-01
 bond charge predicted
       N       E                     dE             d eps       ncg     rms          rms(c)
DAV:   1    -0.658078561359E+03   -0.37906E-03   -0.22033E-02   600   0.189E-01    0.602E-02
DAV:   2    -0.658079006156E+03   -0.44480E-03   -0.12998E-03   732   0.570E-02    0.256E-01
DAV:   3    -0.658078654777E+03    0.35138E-03   -0.10603E-03   456   0.388E-02    0.985E-02
DAV:   4    -0.658078690678E+03   -0.35902E-04   -0.20551E-04   336   0.182E-02
  30 F= -.67329845E+03 E0= -.67323893E+03  d E =-.304198E-03
 trial-energy change:   -0.000304  1 .order   -0.000289   -0.000363   -0.000216
 step:   0.4851(harm=  0.4851)  dis= 0.00364  next Energy=  -673.298599 (dE=-0.449E-03)
 bond charge predicted
       N       E                     dE             d eps       ncg     rms          rms(c)
DAV:   1    -0.658078976581E+03   -0.32180E-03   -0.48056E-02   600   0.278E-01    0.792E-02
DAV:   2    -0.658079253052E+03   -0.27647E-03   -0.16978E-03   852   0.630E-02    0.174E-01
DAV:   3    -0.658079138378E+03    0.11467E-03   -0.11436E-03   552   0.364E-02    0.119E-01
DAV:   4    -0.658079054043E+03    0.84335E-04   -0.40771E-04   420   0.241E-02
  31 F= -.67329853E+03 E0= -.67323769E+03  d E =-.382850E-03
 curvature:  -1.34 expect dE=-0.114E-02 dE for cont linesearch -0.526E-05
 ZBRENT: extrapolating
 opt :   0.5493  next Energy=  -673.298540 (dE=-0.389E-03)
 bond charge predicted
       N       E                     dE             d eps       ncg     rms          rms(c)
DAV:   1    -0.658079114156E+03    0.24222E-04   -0.24161E-03   576   0.615E-02    0.647E-02
DAV:   2    -0.658079348708E+03   -0.23455E-03   -0.19497E-03   480   0.237E-02    0.215E-01
DAV:   3    -0.658079313316E+03    0.35393E-04   -0.30684E-03   516   0.386E-02    0.153E-01
DAV:   4    -0.658079150864E+03    0.16245E-03   -0.87091E-04   384   0.215E-02    0.816E-02
DAV:   5    -0.658079117707E+03    0.33157E-04   -0.33618E-04   360   0.932E-03
  32 F= -.67329853E+03 E0= -.67323810E+03  d E =-.383426E-03
 curvature:  -1.63 expect dE=-0.228E-02 dE for cont linesearch -0.436E-05
 trial: gam= 1.09374 g(F)=  0.140E-02 g(S)=  0.000E+00 ort =-0.165E-03 (trialstep = 0.205E+00)
 search vector abs. value=  0.132E-01
 bond charge predicted
       N       E                     dE             d eps       ncg     rms          rms(c)
DAV:   1    -0.658079506860E+03   -0.35600E-03   -0.30539E-02   600   0.221E-01    0.559E-02
DAV:   2    -0.658079738923E+03   -0.23206E-03   -0.12962E-03   768   0.561E-02    0.168E-01
DAV:   3    -0.658079609999E+03    0.12892E-03   -0.86336E-04   444   0.319E-02    0.962E-02
DAV:   4    -0.658079590067E+03    0.19932E-04   -0.18784E-04   348   0.175E-02
  33 F= -.67329874E+03 E0= -.67323896E+03  d E =-.209159E-03
 trial-energy change:   -0.000209  1 .order   -0.000218   -0.000251   -0.000185
 step:   0.7799(harm=  0.7799)  dis= 0.00662  next Energy=  -673.299009 (dE=-0.476E-03)
 bond charge predicted
       N       E                     dE             d eps       ncg     rms          rms(c)
DAV:   1    -0.658080027338E+03   -0.41734E-03   -0.24099E-01   600   0.619E-01    0.151E-01
DAV:   2    -0.658080503744E+03   -0.47641E-03   -0.61754E-03   924   0.126E-01    0.148E-01
DAV:   3    -0.658081015279E+03   -0.51153E-03   -0.34518E-03   708   0.522E-02    0.288E-01
DAV:   4    -0.658080468356E+03    0.54692E-03   -0.25386E-03   576   0.488E-02    0.119E-01
DAV:   5    -0.658080533397E+03   -0.65041E-04   -0.34620E-04   432   0.162E-02
  34 F= -.67329895E+03 E0= -.67323883E+03  d E =-.418120E-03
 curvature:  -4.23 expect dE=-0.105E-01 dE for cont linesearch -0.238E-07
 trial: gam= 1.49331 g(F)=  0.248E-02 g(S)=  0.000E+00 ort =-0.864E-05 (trialstep = 0.133E+00)
 search vector abs. value=  0.319E-01
 bond charge predicted
       N       E                     dE             d eps       ncg     rms          rms(c)
DAV:   1    -0.658080816212E+03   -0.34786E-03   -0.32693E-02   600   0.218E-01    0.102E-01
DAV:   2    -0.658084752407E+03   -0.39362E-02   -0.90560E-03   840   0.108E-01    0.936E-01
DAV:   3    -0.658081211657E+03    0.35408E-02   -0.86121E-03   744   0.981E-02    0.192E-01
DAV:   4    -0.658080860863E+03    0.35079E-03   -0.52046E-04   492   0.270E-02    0.928E-02
DAV:   5    -0.658080866460E+03   -0.55972E-05   -0.47573E-04   372   0.165E-02
  35 F= -.67329907E+03 E0= -.67323949E+03  d E =-.120440E-03
 trial-energy change:   -0.000120  1 .order   -0.000263   -0.000328   -0.000199
 step:   0.3387(harm=  0.3387)  dis= 0.00441  next Energy=  -673.299370 (dE=-0.418E-03)
 bond charge predicted
       N       E                     dE             d eps       ncg     rms          rms(c)
DAV:   1    -0.658081186133E+03   -0.32527E-03   -0.80137E-02   600   0.337E-01    0.102E-01
DAV:   2    -0.658081648379E+03   -0.46225E-03   -0.45542E-03   864   0.763E-02    0.254E-01
DAV:   3    -0.658081636052E+03    0.12327E-04   -0.49055E-03   660   0.508E-02    0.194E-01
DAV:   4    -0.658081351305E+03    0.28475E-03   -0.16077E-03   468   0.324E-02    0.997E-02
DAV:   5    -0.658081361809E+03   -0.10505E-04   -0.77886E-04   396   0.126E-02
  36 F= -.67329924E+03 E0= -.67323845E+03  d E =-.285588E-03
 curvature:  -2.19 expect dE=-0.356E-02 dE for cont linesearch -0.261E-04
 ZBRENT: increasing intervall
 opt :   0.7510  next Energy=  -673.299126 (dE=-0.175E-03)
 bond charge predicted
       N       E                     dE             d eps       ncg     rms          rms(c)
DAV:   1    -0.658081081570E+03    0.26973E-03   -0.31957E-01   600   0.674E-01    0.174E-01
DAV:   2    -0.658081699703E+03   -0.61813E-03   -0.81812E-03   924   0.139E-01    0.154E-01
DAV:   3    -0.658081838211E+03   -0.13851E-03   -0.24814E-03   588   0.292E-02    0.222E-01
DAV:   4    -0.658081840446E+03   -0.22343E-05   -0.30773E-03   552   0.396E-02    0.209E-01
DAV:   5    -0.658081891481E+03   -0.51035E-04   -0.22283E-03   528   0.453E-02    0.203E-01
DAV:   6    -0.658081688119E+03    0.20336E-03   -0.40598E-04   516   0.256E-02    0.124E-01
DAV:   7    -0.658081617473E+03    0.70646E-04   -0.23245E-04   444   0.188E-02
  37 F= -.67329883E+03 E0= -.67323906E+03  d E =0.117647E-03
 curvature:   9.31 expect dE= 0.587E-01 dE for cont linesearch  0.990E-03
 ZBRENT: bracketing found
 ZBRENT: interpolating
 opt :   0.4422  next Energy=  -673.299269 (dE=-0.318E-03)
 bond charge predicted
       N       E                     dE             d eps       ncg     rms          rms(c)
DAV:   1    -0.658081252401E+03    0.43572E-03   -0.18093E-01   600   0.506E-01    0.153E-01
DAV:   2    -0.658081992818E+03   -0.74042E-03   -0.54463E-03   912   0.103E-01    0.307E-01
DAV:   3    -0.658081740230E+03    0.25259E-03   -0.26649E-03   456   0.231E-02    0.193E-01
DAV:   4    -0.658081831285E+03   -0.91056E-04   -0.25391E-03   456   0.282E-02    0.236E-01
DAV:   5    -0.658081603868E+03    0.22742E-03   -0.17339E-03   432   0.334E-02    0.141E-01
DAV:   6    -0.658081512820E+03    0.91048E-04   -0.37857E-04   396   0.218E-02
  38 F= -.67329922E+03 E0= -.67323963E+03  d E =-.271096E-03
 curvature:  -0.30 expect dE=-0.660E-03 dE for cont linesearch -0.281E-05
 ZBRENT: interpolating
 opt :   0.3936  next Energy=  -673.299236 (dE=-0.284E-03)
 bond charge predicted
       N       E                     dE             d eps       ncg     rms          rms(c)
DAV:   1    -0.658081416568E+03    0.18730E-03   -0.42433E-03   576   0.796E-02    0.861E-02
DAV:   2    -0.658081748862E+03   -0.33229E-03   -0.21331E-04   468   0.203E-02    0.258E-01
DAV:   3    -0.658081524535E+03    0.22433E-03   -0.19003E-04   336   0.174E-02    0.138E-01
DAV:   4    -0.658081506458E+03    0.18077E-04   -0.28012E-04   348   0.184E-02
  39 F= -.67329929E+03 E0= -.67323987E+03  d E =-.342477E-03
 curvature:  -1.42 expect dE=-0.242E-02 dE for cont linesearch -0.531E-06
 trial: gam= 0.44865 g(F)=  0.171E-02 g(S)=  0.000E+00 ort = 0.109E-03 (trialstep = 0.185E+00)
 search vector abs. value=  0.823E-02
 bond charge predicted
       N       E                     dE             d eps       ncg     rms          rms(c)
DAV:   1    -0.658081681183E+03   -0.15665E-03   -0.18337E-02   600   0.169E-01    0.899E-02
DAV:   2    -0.658082523972E+03   -0.84279E-03   -0.14793E-03   708   0.582E-02    0.375E-01
DAV:   3    -0.658082002225E+03    0.52175E-03   -0.23519E-03   576   0.532E-02    0.208E-01
DAV:   4    -0.658081903876E+03    0.98349E-04   -0.75940E-04   444   0.299E-02
  40 F= -.67329967E+03 E0= -.67324085E+03  d E =-.375475E-03
 trial-energy change:   -0.000375  1 .order   -0.000263   -0.000325   -0.000202
 step:   0.4882(harm=  0.4882)  dis= 0.00298  next Energy=  -673.299723 (dE=-0.429E-03)
 bond charge predicted
       N       E                     dE             d eps       ncg     rms          rms(c)
DAV:   1    -0.658081897434E+03    0.10479E-03   -0.49221E-02   600   0.276E-01    0.120E-01
DAV:   2    -0.658082601051E+03   -0.70362E-03   -0.14362E-03   816   0.633E-02    0.358E-01
DAV:   3    -0.658082272818E+03    0.32823E-03   -0.88722E-04   516   0.318E-02    0.228E-01
DAV:   4    -0.658082259830E+03    0.12988E-04   -0.11739E-03   492   0.362E-02    0.223E-01
DAV:   5    -0.658081986719E+03    0.27311E-03   -0.38679E-04   408   0.210E-02    0.112E-01
DAV:   6    -0.658082204811E+03   -0.21809E-03   -0.16565E-04   396   0.158E-02    0.229E-01
DAV:   7    -0.658081946438E+03    0.25837E-03   -0.14970E-04   372   0.180E-02    0.729E-02
DAV:   8    -0.658081987083E+03   -0.40645E-04   -0.12579E-04   360   0.150E-02
  41 F= -.67329972E+03 E0= -.67323988E+03  d E =-.423084E-03
 curvature:  -1.14 expect dE=-0.170E-02 dE for cont linesearch -0.315E-06
 trial: gam= 0.92284 g(F)=  0.148E-02 g(S)=  0.000E+00 ort = 0.476E-04 (trialstep = 0.236E+00)
 search vector abs. value=  0.858E-02
 bond charge predicted
       N       E                     dE             d eps       ncg     rms          rms(c)
DAV:   1    -0.658082092243E+03   -0.14581E-03   -0.27761E-02   600   0.220E-01    0.607E-02
DAV:   2    -0.658082338907E+03   -0.24666E-03   -0.10033E-03   708   0.527E-02    0.185E-01
DAV:   3    -0.658082204899E+03    0.13401E-03   -0.63766E-04   468   0.284E-02    0.102E-01
DAV:   4    -0.658082264699E+03   -0.59799E-04   -0.49570E-04   444   0.256E-02
  42 F= -.67330001E+03 E0= -.67324111E+03  d E =-.292582E-03
 trial-energy change:   -0.000293  1 .order   -0.000289   -0.000359   -0.000219
 step:   0.6015(harm=  0.6015)  dis= 0.00336  next Energy=  -673.300176 (dE=-0.459E-03)
 bond charge predicted
       N       E                     dE             d eps       ncg     rms          rms(c)
DAV:   1    -0.658082177315E+03    0.27585E-04   -0.66791E-02   600   0.341E-01    0.912E-02
DAV:   2    -0.658082564327E+03   -0.38701E-03   -0.19866E-03   876   0.739E-02    0.207E-01
DAV:   3    -0.658082441137E+03    0.12319E-03   -0.15908E-03   624   0.424E-02    0.169E-01
DAV:   4    -0.658082372319E+03    0.68818E-04   -0.71415E-04   456   0.301E-02
  43 F= -.67330014E+03 E0= -.67324117E+03  d E =-.424237E-03
 curvature:  -1.69 expect dE=-0.212E-02 dE for cont linesearch -0.180E-05
 trial: gam= 0.82556 g(F)=  0.126E-02 g(S)=  0.000E+00 ort = 0.956E-04 (trialstep = 0.309E+00)
 search vector abs. value=  0.726E-02
 bond charge predicted
       N       E                     dE             d eps       ncg     rms          rms(c)
DAV:   1    -0.658082598281E+03   -0.15714E-03   -0.39864E-02   600   0.240E-01    0.133E-01
DAV:   2    -0.658084015175E+03   -0.14169E-02   -0.40640E-03   828   0.859E-02    0.486E-01
DAV:   3    -0.658083216959E+03    0.79822E-03   -0.68883E-03   732   0.909E-02    0.246E-01
DAV:   4    -0.658082553704E+03    0.66325E-03   -0.13412E-03   528   0.428E-02    0.397E-02
DAV:   5    -0.658082550017E+03    0.36875E-05   -0.11729E-04   420   0.118E-02
  44 F= -.67330031E+03 E0= -.67323986E+03  d E =-.165726E-03
 trial-energy change:   -0.000166  1 .order   -0.000292   -0.000412   -0.000173
 step:   0.5314(harm=  0.5314)  dis= 0.00246  next Energy=  -673.300496 (dE=-0.354E-03)
 bond charge predicted
       N       E                     dE             d eps       ncg     rms          rms(c)
DAV:   1    -0.658082600237E+03   -0.46533E-04   -0.20997E-02   600   0.173E-01    0.696E-02
DAV:   2    -0.658082737206E+03   -0.13697E-03   -0.22645E-03   636   0.395E-02    0.159E-01
DAV:   3    -0.658082706178E+03    0.31028E-04   -0.28696E-03   384   0.158E-02    0.101E-01
DAV:   4    -0.658082710508E+03   -0.43298E-05   -0.19517E-03   396   0.180E-02    0.114E-01
DAV:   5    -0.658082663386E+03    0.47122E-04   -0.10087E-03   408   0.173E-02    0.636E-02
DAV:   6    -0.658082629673E+03    0.33713E-04   -0.16481E-04   384   0.113E-02
  45 F= -.67330038E+03 E0= -.67324015E+03  d E =-.237129E-03
 curvature:  -1.45 expect dE=-0.222E-02 dE for cont linesearch -0.101E-05
 trial: gam= 1.12345 g(F)=  0.154E-02 g(S)=  0.000E+00 ort = 0.714E-04 (trialstep = 0.236E+00)
 search vector abs. value=  0.109E-01
 bond charge predicted
       N       E                     dE             d eps       ncg     rms          rms(c)
DAV:   1    -0.658082858900E+03   -0.19551E-03   -0.35903E-02   600   0.235E-01    0.789E-02
DAV:   2    -0.658083071515E+03   -0.21261E-03   -0.16780E-03   828   0.514E-02    0.164E-01
DAV:   3    -0.658083025490E+03    0.46024E-04   -0.16593E-03   480   0.307E-02    0.118E-01
DAV:   4    -0.658082962478E+03    0.63013E-04   -0.11184E-03   420   0.284E-02    0.864E-02
DAV:   5    -0.658082918705E+03    0.43773E-04   -0.46201E-04   348   0.118E-02
  46 F= -.67330068E+03 E0= -.67324035E+03  d E =-.297440E-03
 trial-energy change:   -0.000297  1 .order   -0.000313   -0.000382   -0.000243
 step:   0.6508(harm=  0.6508)  dis= 0.00354  next Energy=  -673.300905 (dE=-0.526E-03)
 bond charge predicted
       N       E                     dE             d eps       ncg     rms          rms(c)
DAV:   1    -0.658082878828E+03    0.83649E-04   -0.11079E-01   600   0.413E-01    0.121E-01
DAV:   2    -0.658083683794E+03   -0.80497E-03   -0.47357E-03   924   0.958E-02    0.326E-01
DAV:   3    -0.658083456754E+03    0.22704E-03   -0.48038E-03   708   0.692E-02    0.213E-01
DAV:   4    -0.658083073424E+03    0.38333E-03   -0.11562E-03   492   0.358E-02    0.936E-02
DAV:   5    -0.658083059241E+03    0.14183E-04   -0.42549E-04   384   0.118E-02
  47 F= -.67330083E+03 E0= -.67324062E+03  d E =-.454174E-03
 curvature:  -2.19 expect dE=-0.408E-02 dE for cont linesearch -0.934E-05
 trial: gam= 1.38471 g(F)=  0.187E-02 g(S)=  0.000E+00 ort =-0.216E-03 (trialstep = 0.157E+00)
 search vector abs. value=  0.221E-01
 bond charge predicted
       N       E                     dE             d eps       ncg     rms          rms(c)
DAV:   1    -0.658083232228E+03   -0.15880E-03   -0.29736E-02   600   0.220E-01    0.872E-02
DAV:   2    -0.658083529975E+03   -0.29775E-03   -0.29674E-03   780   0.508E-02    0.224E-01
DAV:   3    -0.658083414481E+03    0.11549E-03   -0.37606E-03   492   0.354E-02    0.135E-01
DAV:   4    -0.658083329518E+03    0.84963E-04   -0.19626E-03   432   0.293E-02    0.111E-01
DAV:   5    -0.658083293061E+03    0.36457E-04   -0.10792E-03   348   0.108E-02    0.817E-02
DAV:   6    -0.658083280365E+03    0.12696E-04   -0.83598E-04   372   0.146E-02
  48 F= -.67330101E+03 E0= -.67324098E+03  d E =-.172099E-03
 trial-energy change:   -0.000172  1 .order   -0.000199   -0.000246   -0.000151
 step:   0.4068(harm=  0.4068)  dis= 0.00314  next Energy=  -673.301152 (dE=-0.319E-03)
 bond charge predicted
       N       E                     dE             d eps       ncg     rms          rms(c)
DAV:   1    -0.658083304855E+03   -0.11794E-04   -0.75344E-02   600   0.350E-01    0.106E-01
DAV:   2    -0.658083626759E+03   -0.32190E-03   -0.47549E-03   912   0.749E-02    0.207E-01
DAV:   3    -0.658083586722E+03    0.40037E-04   -0.50506E-03   444   0.150E-02    0.143E-01
DAV:   4    -0.658083549469E+03    0.37253E-04   -0.34928E-03   408   0.168E-02    0.136E-01
DAV:   5    -0.658083650865E+03   -0.10140E-03   -0.31296E-03   444   0.248E-02    0.183E-01
DAV:   6    -0.658083464577E+03    0.18629E-03   -0.93340E-04   456   0.262E-02    0.452E-02
DAV:   7    -0.658083463502E+03    0.10751E-05   -0.27994E-04   384   0.941E-03
  49 F= -.67330111E+03 E0= -.67324066E+03  d E =-.278047E-03
 curvature:  -2.86 expect dE=-0.424E-02 dE for cont linesearch -0.223E-08
 trial: gam= 0.47433 g(F)=  0.148E-02 g(S)=  0.000E+00 ort = 0.415E-05 (trialstep = 0.207E+00)
 search vector abs. value=  0.646E-02
 bond charge predicted
       N       E                     dE             d eps       ncg     rms          rms(c)
DAV:   1    -0.658083745664E+03   -0.28109E-03   -0.18519E-02   600   0.166E-01    0.575E-02
DAV:   2    -0.658083998319E+03   -0.25265E-03   -0.10178E-03   612   0.464E-02    0.203E-01
DAV:   3    -0.658083892578E+03    0.10574E-03   -0.11140E-03   480   0.363E-02    0.125E-01
DAV:   4    -0.658083810119E+03    0.82459E-04   -0.29613E-04   360   0.213E-02
  50 F= -.67330134E+03 E0= -.67324033E+03  d E =-.233573E-03
 trial-energy change:   -0.000234  1 .order   -0.000239   -0.000306   -0.000172
 step:   0.4700(harm=  0.4700)  dis= 0.00190  next Energy=  -673.301459 (dE=-0.348E-03)
 bond charge predicted
       N       E                     dE             d eps       ncg     rms          rms(c)
DAV:   1    -0.658083993108E+03   -0.10053E-03   -0.29835E-02   600   0.211E-01    0.679E-02
DAV:   2    -0.658084218562E+03   -0.22545E-03   -0.92070E-04   672   0.491E-02    0.192E-01
DAV:   3    -0.658084149277E+03    0.69285E-04   -0.65394E-04   480   0.294E-02
  51 F= -.67330154E+03 E0= -.67324266E+03  d E =-.429366E-03
 curvature:  -1.02 expect dE=-0.115E-02 dE for cont linesearch -0.723E-05
 trial: gam= 0.65677 g(F)=  0.113E-02 g(S)=  0.000E+00 ort = 0.214E-03 (trialstep = 0.259E+00)
 search vector abs. value=  0.419E-02
 bond charge predicted
       N       E                     dE             d eps       ncg     rms          rms(c)
DAV:   1    -0.658084450191E+03   -0.23163E-03   -0.20108E-02   600   0.182E-01    0.120E-01
DAV:   2    -0.658086455612E+03   -0.20054E-02   -0.50551E-03   768   0.800E-02    0.514E-01
DAV:   3    -0.658084774972E+03    0.16806E-02   -0.64177E-03   732   0.843E-02    0.213E-01
DAV:   4    -0.658084824681E+03   -0.49709E-04   -0.59401E-04   444   0.275E-02
  52 F= -.67330210E+03 E0= -.67324264E+03  d E =-.562841E-03
 trial-energy change:   -0.000563  1 .order   -0.000274   -0.000329   -0.000219
 step:   0.7810(harm=  0.7810)  dis= 0.00251  next Energy=  -673.302035 (dE=-0.495E-03)
 bond charge predicted
       N       E                     dE             d eps       ncg     rms          rms(c)
DAV:   1    -0.658084731924E+03    0.43048E-04   -0.80161E-02   600   0.362E-01    0.116E-01
DAV:   2    -0.658085821933E+03   -0.10900E-02   -0.47814E-03   864   0.899E-02    0.415E-01
DAV:   3    -0.658085078935E+03    0.74300E-03   -0.50262E-03   720   0.680E-02    0.179E-01
DAV:   4    -0.658084778865E+03    0.30007E-03   -0.11262E-03   468   0.301E-02    0.870E-02
DAV:   5    -0.658084828867E+03   -0.50002E-04   -0.11841E-03   396   0.127E-02    0.118E-01
DAV:   6    -0.658084771111E+03    0.57756E-04   -0.10570E-03   360   0.147E-02    0.610E-02
DAV:   7    -0.658084801046E+03   -0.29935E-04   -0.10227E-03   360   0.131E-02    0.918E-02
DAV:   8    -0.658084768340E+03    0.32705E-04   -0.69337E-04   336   0.114E-02
  53 F= -.67330182E+03 E0= -.67324146E+03  d E =-.281190E-03
 curvature:  -1.29 expect dE=-0.158E-02 dE for cont linesearch -0.141E-04
 ZBRENT: interpolating
 opt :   0.6756  next Energy=  -673.301833 (dE=-0.292E-03)
 bond charge predicted
       N       E                     dE             d eps       ncg     rms          rms(c)
DAV:   1    -0.658084730628E+03    0.70418E-04   -0.35894E-03   576   0.734E-02    0.516E-02
DAV:   2    -0.658084847329E+03   -0.11670E-03   -0.18377E-03   444   0.193E-02    0.159E-01
DAV:   3    -0.658084803009E+03    0.44319E-04   -0.25598E-03   372   0.173E-02    0.921E-02
DAV:   4    -0.658084765738E+03    0.37271E-04   -0.12043E-03   360   0.144E-02    0.744E-02
DAV:   5    -0.658084743031E+03    0.22708E-04   -0.61263E-04   348   0.743E-03
  54 F= -.67330184E+03 E0= -.67324158E+03  d E =-.301293E-03
 curvature:  -1.03 expect dE=-0.903E-03 dE for cont linesearch -0.441E-08
 trial: gam= 0.85902 g(F)=  0.876E-03 g(S)=  0.000E+00 ort =-0.423E-05 (trialstep = 0.343E+00)
 search vector abs. value=  0.396E-02
 bond charge predicted
       N       E                     dE             d eps       ncg     rms          rms(c)
DAV:   1    -0.658084935473E+03   -0.16973E-03   -0.28317E-02   600   0.208E-01    0.553E-02
DAV:   2    -0.658085064196E+03   -0.12872E-03   -0.10958E-03   720   0.488E-02    0.103E-01
DAV:   3    -0.658085070491E+03   -0.62950E-05   -0.89188E-04   444   0.302E-02
  55 F= -.67330208E+03 E0= -.67324032E+03  d E =-.234272E-03
 trial-energy change:   -0.000234  1 .order   -0.000184   -0.000299   -0.000069
 step:   0.4461(harm=  0.4461)  dis= 0.00162  next Energy=  -673.302036 (dE=-0.195E-03)
 bond charge predicted
       N       E                     dE             d eps       ncg     rms          rms(c)
DAV:   1    -0.658085042741E+03    0.21455E-04   -0.29119E-03   660   0.683E-02    0.650E-02
DAV:   2    -0.658086191992E+03   -0.11493E-02   -0.27502E-03   660   0.530E-02    0.472E-01
DAV:   3    -0.658085204312E+03    0.98768E-03   -0.32804E-03   636   0.586E-02    0.126E-01
DAV:   4    -0.658085155025E+03    0.49288E-04   -0.25420E-04   396   0.176E-02
  56 F= -.67330213E+03 E0= -.67324204E+03  d E =-.290784E-03
 curvature:  -1.01 expect dE=-0.102E-02 dE for cont linesearch -0.453E-05
 trial: gam= 1.11020 g(F)=  0.101E-02 g(S)=  0.000E+00 ort =-0.133E-03 (trialstep = 0.257E+00)
 search vector abs. value=  0.559E-02
 bond charge predicted
       N       E                     dE             d eps       ncg     rms          rms(c)
DAV:   1    -0.658085222586E+03   -0.18274E-04   -0.20849E-02   600   0.175E-01    0.639E-02
DAV:   2    -0.658085549834E+03   -0.32725E-03   -0.16408E-03   804   0.527E-02    0.234E-01
DAV:   3    -0.658085368720E+03    0.18111E-03   -0.13768E-03   468   0.326E-02    0.111E-01
DAV:   4    -0.658085341800E+03    0.26920E-04   -0.43674E-04   384   0.228E-02
  57 F= -.67330226E+03 E0= -.67324079E+03  d E =-.123156E-03
 ZBRENT: can't locate minimum, use default step
 trial-energy change:   -0.000123  1 .order   -0.000194   -0.000221   -0.000168
 step:   1.0295(harm=  1.0715)  dis= 0.00445  next Energy=  -673.302592 (dE=-0.460E-03)
 bond charge predicted
       N       E                     dE             d eps       ncg     rms          rms(c)
DAV:   1    -0.658085235442E+03    0.13328E-03   -0.18589E-01   600   0.523E-01    0.162E-01
DAV:   2    -0.658086719704E+03   -0.14843E-02   -0.93144E-03   888   0.141E-01    0.331E-01
DAV:   3    -0.658086131443E+03    0.58826E-03   -0.81185E-03   804   0.971E-02    0.317E-01
DAV:   4    -0.658085728718E+03    0.40272E-03   -0.14882E-03   600   0.431E-02    0.158E-01
DAV:   5    -0.658085674089E+03    0.54629E-04   -0.19489E-04   408   0.169E-02
  58 F= -.67330240E+03 E0= -.67324217E+03  d E =-.266988E-03
 curvature:  -3.48 expect dE=-0.820E-02 dE for cont linesearch -0.669E-05
 trial: gam= 2.01062 g(F)=  0.235E-02 g(S)=  0.000E+00 ort =-0.104E-03 (trialstep = 0.938E-01)
 search vector abs. value=  0.245E-01
 bond charge predicted
       N       E                     dE             d eps       ncg     rms          rms(c)
DAV:   1    -0.658085758741E+03   -0.30023E-04   -0.13117E-02   624   0.139E-01    0.103E-01
DAV:   2    -0.658087198917E+03   -0.14402E-02   -0.62573E-03   756   0.807E-02    0.375E-01
DAV:   3    -0.658085844481E+03    0.13544E-02   -0.70856E-03   708   0.803E-02    0.119E-01
DAV:   4    -0.658085749500E+03    0.94982E-04   -0.12933E-03   408   0.197E-02    0.976E-02
DAV:   5    -0.658085751474E+03   -0.19744E-05   -0.11133E-03   348   0.118E-02    0.792E-02
DAV:   6    -0.658085726638E+03    0.24836E-04   -0.66628E-04   348   0.162E-02
  59 F= -.67330244E+03 E0= -.67324148E+03  d E =-.362594E-04
 trial-energy change:   -0.000036  1 .order   -0.000166   -0.000201   -0.000131
 step:   0.2670(harm=  0.2670)  dis= 0.00240  next Energy=  -673.302686 (dE=-0.286E-03)
 bond charge predicted
       N       E                     dE             d eps       ncg     rms          rms(c)
DAV:   1    -0.658085789707E+03   -0.38233E-04   -0.44860E-02   600   0.253E-01    0.731E-02
DAV:   2    -0.658085960899E+03   -0.17119E-03   -0.21795E-03   852   0.565E-02    0.134E-01
DAV:   3    -0.658085968011E+03   -0.71127E-05   -0.20515E-03   456   0.230E-02    0.117E-01
DAV:   4    -0.658085943782E+03    0.24229E-04   -0.13698E-03   432   0.258E-02    0.106E-01
DAV:   5    -0.658085881798E+03    0.61984E-04   -0.51394E-04   360   0.150E-02
  60 F= -.67330256E+03 E0= -.67324242E+03  d E =-.161733E-03
 curvature:  -1.53 expect dE=-0.194E-02 dE for cont linesearch -0.134E-04
 ZBRENT: extrapolating
 opt :   0.3534  next Energy=  -673.302581 (dE=-0.182E-03)
 bond charge predicted
       N       E                     dE             d eps       ncg     rms          rms(c)
DAV:   1    -0.658085914542E+03    0.29240E-04   -0.11327E-02   600   0.126E-01    0.841E-02
DAV:   2    -0.658086763575E+03   -0.84903E-03   -0.35547E-03   696   0.569E-02    0.378E-01
DAV:   3    -0.658086196898E+03    0.56668E-03   -0.48878E-03   684   0.662E-02    0.172E-01
DAV:   4    -0.658085928462E+03    0.26844E-03   -0.82494E-04   408   0.225E-02    0.783E-02
DAV:   5    -0.658085906292E+03    0.22169E-04   -0.47094E-04   360   0.102E-02
  61 F= -.67330257E+03 E0= -.67324229E+03  d E =-.171588E-03
 curvature:  -2.29 expect dE=-0.346E-02 dE for cont linesearch -0.232E-06
 trial: gam= 0.38362 g(F)=  0.151E-02 g(S)=  0.000E+00 ort =-0.499E-04 (trialstep = 0.146E+00)
 search vector abs. value=  0.508E-02
 bond charge predicted
       N       E                     dE             d eps       ncg     rms          rms(c)
DAV:   1    -0.658086027834E+03   -0.99372E-04   -0.74217E-03   600   0.111E-01    0.488E-02
DAV:   2    -0.658086195748E+03   -0.16791E-03   -0.85858E-04   516   0.297E-02    0.170E-01
DAV:   3    -0.658086114727E+03    0.81021E-04   -0.11300E-03   444   0.262E-02    0.108E-01
DAV:   4    -0.658086076151E+03    0.38577E-04   -0.41143E-04   360   0.179E-02
  62 F= -.67330279E+03 E0= -.67324297E+03  d E =-.221419E-03
 ZBRENT: can't locate minimum, use default step
 trial-energy change:   -0.000221  1 .order   -0.000193   -0.000217   -0.000169
 step:   0.5830(harm=  0.6499)  dis= 0.00211  next Energy=  -673.303056 (dE=-0.485E-03)
 bond charge predicted
       N       E                     dE             d eps       ncg     rms          rms(c)
DAV:   1    -0.658086094287E+03    0.20440E-04   -0.66259E-02   600   0.333E-01    0.914E-02
DAV:   2    -0.658086352718E+03   -0.25843E-03   -0.15875E-03   816   0.641E-02    0.181E-01
DAV:   3    -0.658086246491E+03    0.10623E-03   -0.13531E-04   420   0.160E-02    0.120E-01
DAV:   4    -0.658086355663E+03   -0.10917E-03   -0.50200E-04   444   0.258E-02    0.170E-01
DAV:   5    -0.658086186165E+03    0.16950E-03   -0.46351E-04   432   0.239E-02    0.702E-02
DAV:   6    -0.658086199685E+03   -0.13520E-04   -0.11245E-04   360   0.139E-02
  63 F= -.67330307E+03 E0= -.67324305E+03  d E =-.500729E-03
 curvature:  -1.09 expect dE=-0.128E-02 dE for cont linesearch -0.605E-05
 trial: gam= 0.66389 g(F)=  0.117E-02 g(S)=  0.000E+00 ort = 0.168E-03 (trialstep = 0.233E+00)
 search vector abs. value=  0.364E-02
 bond charge predicted
       N       E                     dE             d eps       ncg     rms          rms(c)
DAV:   1    -0.658086259564E+03   -0.73399E-04   -0.13470E-02   600   0.152E-01    0.503E-02
DAV:   2    -0.658086453459E+03   -0.19389E-03   -0.94734E-04   672   0.385E-02    0.172E-01
DAV:   3    -0.658086352145E+03    0.10131E-03   -0.96597E-04   468   0.278E-02    0.103E-01
DAV:   4    -0.658086344623E+03    0.75219E-05   -0.40783E-04   360   0.209E-02
  64 F= -.67330331E+03 E0= -.67324372E+03  d E =-.236003E-03
 trial-energy change:   -0.000236  1 .order   -0.000220   -0.000300   -0.000140
 step:   0.4372(harm=  0.4372)  dis= 0.00107  next Energy=  -673.303353 (dE=-0.281E-03)
 bond charge predicted
       N       E                     dE             d eps       ncg     rms          rms(c)
DAV:   1    -0.658086268232E+03    0.83914E-04   -0.10382E-02   600   0.133E-01    0.598E-02
DAV:   2    -0.658086563854E+03   -0.29562E-03   -0.14635E-03   612   0.425E-02    0.213E-01
DAV:   3    -0.658086358100E+03    0.20575E-03   -0.18167E-03   480   0.403E-02    0.106E-01
DAV:   4    -0.658086276040E+03    0.82060E-04   -0.49872E-04   408   0.197E-02
  65 F= -.67330332E+03 E0= -.67324269E+03  d E =-.247403E-03
 curvature:  -0.62 expect dE=-0.320E-03 dE for cont linesearch -0.671E-07
 trial: gam= 0.58679 g(F)=  0.517E-03 g(S)=  0.000E+00 ort =-0.199E-04 (trialstep = 0.274E+00)
 search vector abs. value=  0.175E-02
 bond charge predicted
       N       E                     dE             d eps       ncg     rms          rms(c)
DAV:   1    -0.658086292673E+03    0.65427E-04   -0.82329E-03   588   0.110E-01    0.578E-02
DAV:   2    -0.658086494645E+03   -0.20197E-03   -0.19456E-03   516   0.362E-02    0.181E-01
DAV:   3    -0.658086403578E+03    0.91067E-04   -0.25029E-03   444   0.326E-02    0.109E-01
DAV:   4    -0.658086338583E+03    0.64994E-04   -0.93400E-04   396   0.198E-02
  66 F= -.67330347E+03 E0= -.67324355E+03  d E =-.152195E-03
 trial-energy change:   -0.000152  1 .order   -0.000114   -0.000138   -0.000089
 step:   0.7688(harm=  0.7688)  dis= 0.00165  next Energy=  -673.303513 (dE=-0.194E-03)
 bond charge predicted
       N       E                     dE             d eps       ncg     rms          rms(c)
DAV:   1    -0.658086208913E+03    0.19466E-03   -0.26147E-02   600   0.198E-01    0.830E-02
DAV:   2    -0.658086912870E+03   -0.70396E-03   -0.42389E-03   828   0.647E-02    0.344E-01
DAV:   3    -0.658086433475E+03    0.47940E-03   -0.47138E-03   672   0.561E-02    0.156E-01
DAV:   4    -0.658086270088E+03    0.16339E-03   -0.98680E-04   432   0.235E-02    0.965E-02
DAV:   5    -0.658086240583E+03    0.29505E-04   -0.61889E-04   360   0.112E-02
  67 F= -.67330354E+03 E0= -.67324296E+03  d E =-.216549E-03
 curvature:  -1.33 expect dE=-0.874E-03 dE for cont linesearch -0.252E-05
 trial: gam= 1.16382 g(F)=  0.657E-03 g(S)=  0.000E+00 ort = 0.576E-04 (trialstep = 0.206E+00)
 search vector abs. value=  0.316E-02
 bond charge predicted
       N       E                     dE             d eps       ncg     rms          rms(c)
DAV:   1    -0.658086276823E+03   -0.67358E-05   -0.72304E-03   612   0.104E-01    0.551E-02
DAV:   2    -0.658086416223E+03   -0.13940E-03   -0.15303E-03   480   0.295E-02    0.164E-01
DAV:   3    -0.658086373685E+03    0.42538E-04   -0.19925E-03   420   0.245E-02    0.112E-01
DAV:   4    -0.658086326752E+03    0.46932E-04   -0.88722E-04   384   0.200E-02
  68 F= -.67330368E+03 E0= -.67324394E+03  d E =-.139727E-03
 trial-energy change:   -0.000140  1 .order   -0.000122   -0.000149   -0.000094
 step:   0.5553(harm=  0.5553)  dis= 0.00145  next Energy=  -673.303737 (dE=-0.201E-03)
 bond charge predicted
       N       E                     dE             d eps       ncg     rms          rms(c)
DAV:   1    -0.658086249012E+03    0.12467E-03   -0.20649E-02   600   0.176E-01    0.654E-02
DAV:   2    -0.658086516990E+03   -0.26798E-03   -0.16447E-03   792   0.514E-02    0.196E-01
DAV:   3    -0.658086377741E+03    0.13925E-03   -0.17858E-03   600   0.384E-02    0.111E-01
DAV:   4    -0.658086283342E+03    0.94399E-04   -0.52900E-04   444   0.223E-02
  69 F= -.67330372E+03 E0= -.67324284E+03  d E =-.187274E-03
 curvature:  -1.21 expect dE=-0.464E-03 dE for cont linesearch -0.951E-06
 trial: gam= 0.58600 g(F)=  0.384E-03 g(S)=  0.000E+00 ort = 0.498E-04 (trialstep = 0.276E+00)
 search vector abs. value=  0.153E-02
 bond charge predicted
       N       E                     dE             d eps       ncg     rms          rms(c)
DAV:   1    -0.658086371422E+03    0.63189E-05   -0.66692E-03   588   0.992E-02    0.541E-02
DAV:   2    -0.658086589499E+03   -0.21808E-03   -0.13606E-03   540   0.347E-02    0.170E-01
DAV:   3    -0.658086424279E+03    0.16522E-03   -0.17027E-03   492   0.360E-02    0.943E-02
DAV:   4    -0.658086378569E+03    0.45710E-04   -0.45266E-04   396   0.163E-02
  70 F= -.67330380E+03 E0= -.67324367E+03  d E =-.794870E-04
 trial-energy change:   -0.000079  1 .order   -0.000091   -0.000114   -0.000068
 step:   0.6889(harm=  0.6889)  dis= 0.00130  next Energy=  -673.303865 (dE=-0.142E-03)
 bond charge predicted
       N       E                     dE             d eps       ncg     rms          rms(c)
DAV:   1    -0.658086406717E+03    0.17563E-04   -0.14661E-02   600   0.148E-01    0.515E-02
DAV:   2    -0.658086833462E+03   -0.42675E-03   -0.15582E-03   696   0.535E-02    0.260E-01
DAV:   3    -0.658086461829E+03    0.37163E-03   -0.12812E-03   480   0.390E-02    0.677E-02
DAV:   4    -0.658086434089E+03    0.27740E-04   -0.11547E-04   324   0.118E-02
  71 F= -.67330383E+03 E0= -.67324324E+03  d E =-.111738E-03
 curvature:  -1.27 expect dE=-0.588E-03 dE for cont linesearch -0.127E-05
 trial: gam= 1.29841 g(F)=  0.462E-03 g(S)=  0.000E+00 ort =-0.390E-04 (trialstep = 0.187E+00)
 search vector abs. value=  0.293E-02
 bond charge predicted
       N       E                     dE             d eps       ncg     rms          rms(c)
DAV:   1    -0.658086524070E+03   -0.62241E-04   -0.58501E-03   588   0.936E-02    0.449E-02
DAV:   2    -0.658086592729E+03   -0.68660E-04   -0.70401E-04   480   0.226E-02
  72 F= -.67330395E+03 E0= -.67324331E+03  d E =-.116080E-03
 trial-energy change:   -0.000116  1 .order   -0.000065   -0.000077   -0.000053
 step:   0.5951(harm=  0.5951)  dis= 0.00166  next Energy=  -673.303957 (dE=-0.122E-03)
 bond charge predicted
       N       E                     dE             d eps       ncg     rms          rms(c)
DAV:   1    -0.658086706248E+03   -0.18218E-03   -0.28671E-02   600   0.205E-01    0.816E-02
DAV:   2    -0.658087370529E+03   -0.66428E-03   -0.43247E-03   780   0.667E-02    0.351E-01
DAV:   3    -0.658086994308E+03    0.37622E-03   -0.48025E-03   576   0.505E-02    0.157E-01
DAV:   4    -0.658086831136E+03    0.16317E-03   -0.10147E-03   384   0.258E-02    0.133E-01
DAV:   5    -0.658086743534E+03    0.87601E-04   -0.44281E-04   372   0.134E-02
  73 F= -.67330401E+03 E0= -.67324334E+03  d E =-.173820E-03
 curvature:  -2.12 expect dE=-0.173E-02 dE for cont linesearch -0.234E-04
 ZBRENT: increasing intervall
 opt :   1.4120  next Energy=  -673.304072 (dE=-0.237E-03)
 bond charge predicted
       N       E                     dE             d eps       ncg     rms          rms(c)
DAV:   1    -0.658086761993E+03    0.69143E-04   -0.10933E-01   600   0.406E-01    0.114E-01
DAV:   2    -0.658087111429E+03   -0.34944E-03   -0.30283E-03   936   0.853E-02    0.187E-01
DAV:   3    -0.658087090348E+03    0.21081E-04   -0.18705E-03   540   0.359E-02    0.153E-01
DAV:   4    -0.658087012231E+03    0.78118E-04   -0.16567E-03   504   0.391E-02    0.133E-01
DAV:   5    -0.658086915711E+03    0.96519E-04   -0.68185E-04   408   0.229E-02
  74 F= -.67330400E+03 E0= -.67324418E+03  d E =-.160310E-03
 curvature:  -5.73 expect dE=-0.137E-01 dE for cont linesearch -0.516E-05
 trial: gam= 4.75049 g(F)=  0.239E-02 g(S)=  0.000E+00 ort =-0.514E-04 (trialstep = 0.186E-01)
 search vector abs. value=  0.681E-01
 bond charge predicted
       N       E                     dE             d eps       ncg     rms          rms(c)
DAV:   1    -0.658086993608E+03    0.18622E-04   -0.17244E-03   588   0.440E-02    0.974E-02
DAV:   2    -0.658088418110E+03   -0.14245E-02   -0.71036E-03   672   0.615E-02    0.517E-01
DAV:   3    -0.658087498296E+03    0.91981E-03   -0.90129E-03   708   0.787E-02    0.211E-01
DAV:   4    -0.658087061103E+03    0.43719E-03   -0.16033E-03   396   0.235E-02    0.132E-01
DAV:   5    -0.658086977587E+03    0.83515E-04   -0.10921E-03   372   0.136E-02    0.676E-02
DAV:   6    -0.658086964324E+03    0.13263E-04   -0.36522E-04   360   0.111E-02
  75 F= -.67330402E+03 E0= -.67324317E+03  d E =-.297537E-04
 trial-energy change:   -0.000030  1 .order   -0.000034   -0.000040   -0.000028
 step:   0.0623(harm=  0.0623)  dis= 0.00084  next Energy=  -673.304062 (dE=-0.670E-04)
 bond charge predicted
       N       E                     dE             d eps       ncg     rms          rms(c)
DAV:   1    -0.658087040281E+03   -0.62693E-04   -0.74028E-03   600   0.104E-01    0.412E-02
DAV:   2    -0.658087136024E+03   -0.95743E-04   -0.58714E-04   492   0.243E-02
  76 F= -.67330415E+03 E0= -.67324288E+03  d E =-.157096E-03
 curvature:  -0.99 expect dE=-0.215E-02 dE for cont linesearch -0.146E-04
 ZBRENT: increasing intervall
 opt :   0.1499  next Energy=  -673.304196 (dE=-0.201E-03)
 bond charge predicted
       N       E                     dE             d eps       ncg     rms          rms(c)
DAV:   1    -0.658087254700E+03   -0.21442E-03   -0.30136E-02   600   0.208E-01    0.100E-01
DAV:   2    -0.658089608637E+03   -0.23539E-02   -0.65781E-03   828   0.863E-02    0.701E-01
DAV:   3    -0.658087733144E+03    0.18755E-02   -0.76302E-03   720   0.812E-02    0.190E-01
DAV:   4    -0.658087594135E+03    0.13901E-03   -0.64927E-04   456   0.267E-02    0.223E-01
DAV:   5    -0.658087272640E+03    0.32149E-03   -0.47174E-04   420   0.230E-02    0.588E-02
DAV:   6    -0.658087320495E+03   -0.47855E-04   -0.22101E-04   372   0.143E-02
  77 F= -.67330425E+03 E0= -.67324325E+03  d E =-.252931E-03
 curvature:  -2.96 expect dE=-0.595E-02 dE for cont linesearch -0.709E-04
 ZBRENT: increasing intervall
 opt :   0.3249  next Energy=  -673.304519 (dE=-0.524E-03)
 bond charge predicted
       N       E                     dE             d eps       ncg     rms          rms(c)
DAV:   1    -0.658087363744E+03   -0.91104E-04   -0.11554E-01   600   0.412E-01    0.108E-01
DAV:   2    -0.658087820057E+03   -0.45631E-03   -0.37429E-03   900   0.902E-02    0.233E-01
DAV:   3    -0.658087778125E+03    0.41932E-04   -0.20945E-03   492   0.316E-02    0.180E-01
DAV:   4    -0.658087825241E+03   -0.47116E-04   -0.17614E-03   504   0.399E-02    0.213E-01
DAV:   5    -0.658087608582E+03    0.21666E-03   -0.75255E-04   432   0.267E-02    0.887E-02
DAV:   6    -0.658087618149E+03   -0.95677E-05   -0.10317E-04   384   0.128E-02
  78 F= -.67330437E+03 E0= -.67324394E+03  d E =-.373668E-03
 curvature: -11.33 expect dE=-0.209E-01 dE for cont linesearch -0.860E-04
 ZBRENT: increasing intervall
 opt :   0.6749  next Energy=  -673.304425 (dE=-0.430E-03)
 bond charge predicted
       N       E                     dE             d eps       ncg     rms          rms(c)
DAV:   1    -0.658087090599E+03    0.51798E-03   -0.46276E-01   600   0.824E-01    0.208E-01
DAV:   2    -0.658090178875E+03   -0.30883E-02   -0.16815E-02   900   0.208E-01    0.702E-01
DAV:   3    -0.658088957368E+03    0.12215E-02   -0.11676E-02   828   0.109E-01    0.334E-01
DAV:   4    -0.658088291004E+03    0.66636E-03   -0.11671E-03   576   0.387E-02    0.256E-01
DAV:   5    -0.658087898795E+03    0.39221E-03   -0.64006E-04   492   0.283E-02    0.135E-01
DAV:   6    -0.658087996489E+03   -0.97694E-04   -0.88742E-04   564   0.310E-02
  79 F= -.67330439E+03 E0= -.67324168E+03  d E =-.399603E-03
 curvature:  -7.45 expect dE=-0.266E-01 dE for cont linesearch -0.162E-03
 ZBRENT: bracketing found
 ZBRENT: interpolating
 opt :   0.4549  next Energy=  -673.304416 (dE=-0.420E-03)
 bond charge predicted
       N       E                     dE             d eps       ncg     rms          rms(c)
DAV:   1    -0.658087508719E+03    0.39008E-03   -0.18591E-01   600   0.521E-01    0.171E-01
DAV:   2    -0.658091370269E+03   -0.38616E-02   -0.20856E-02   936   0.197E-01    0.521E-01
DAV:   3    -0.658087797736E+03    0.35725E-02   -0.15521E-02   816   0.130E-01    0.149E-01
DAV:   4    -0.658087808756E+03   -0.11020E-04   -0.14313E-03   456   0.255E-02    0.147E-01
DAV:   5    -0.658087786886E+03    0.21870E-04   -0.15261E-03   360   0.163E-02    0.122E-01
DAV:   6    -0.658087756730E+03    0.30157E-04   -0.15528E-03   444   0.225E-02    0.106E-01
DAV:   7    -0.658087732247E+03    0.24483E-04   -0.13954E-03   420   0.205E-02    0.819E-02
DAV:   8    -0.658087712558E+03    0.19688E-04   -0.71223E-04   360   0.120E-02
  80 F= -.67330433E+03 E0= -.67324421E+03  d E =-.336960E-03
 curvature:  -2.15 expect dE=-0.454E-02 dE for cont linesearch -0.264E-05
 trial: gam= 0.25668 g(F)=  0.211E-02 g(S)=  0.000E+00 ort =-0.289E-03 (trialstep = 0.106E+00)
 search vector abs. value=  0.645E-02
 bond charge predicted
       N       E                     dE             d eps       ncg     rms          rms(c)
DAV:   1    -0.658087847027E+03   -0.11478E-03   -0.54221E-03   588   0.902E-02    0.539E-02
DAV:   2    -0.658088105064E+03   -0.25804E-03   -0.20860E-03   528   0.346E-02    0.197E-01
DAV:   3    -0.658087932385E+03    0.17268E-03   -0.27013E-03   468   0.353E-02    0.107E-01
DAV:   4    -0.658087870736E+03    0.61649E-04   -0.86068E-04   372   0.170E-02
  81 F= -.67330453E+03 E0= -.67324436E+03  d E =-.197217E-03
 ZBRENT: can't locate minimum, use default step
 trial-energy change:   -0.000197  1 .order   -0.000194   -0.000216   -0.000173
 step:   0.4234(harm=  0.5293)  dis= 0.00175  next Energy=  -673.304872 (dE=-0.540E-03)
 bond charge predicted
       N       E                     dE             d eps       ncg     rms          rms(c)
DAV:   1    -0.658087925061E+03    0.73233E-05   -0.45097E-02   600   0.266E-01    0.652E-02
DAV:   2    -0.658088059890E+03   -0.13483E-03   -0.15157E-03   768   0.571E-02    0.102E-01
DAV:   3    -0.658088083059E+03   -0.23168E-04   -0.93210E-04   468   0.285E-02
  82 F= -.67330486E+03 E0= -.67324560E+03  d E =-.527001E-03
 curvature:  -0.79 expect dE=-0.109E-02 dE for cont linesearch -0.280E-05
 trial: gam= 0.60798 g(F)=  0.138E-02 g(S)=  0.000E+00 ort = 0.152E-03 (trialstep = 0.169E+00)
 search vector abs. value=  0.395E-02
 bond charge predicted
       N       E                     dE             d eps       ncg     rms          rms(c)
DAV:   1    -0.658088121460E+03   -0.61570E-04   -0.86771E-03   624   0.126E-01    0.880E-02
DAV:   2    -0.658089649986E+03   -0.15285E-02   -0.49758E-03   732   0.751E-02    0.411E-01
DAV:   3    -0.658088218188E+03    0.14318E-02   -0.47291E-03   672   0.721E-02    0.128E-01
DAV:   4    -0.658088186896E+03    0.31292E-04   -0.39569E-04   396   0.207E-02
  83 F= -.67330508E+03 E0= -.67324484E+03  d E =-.219094E-03
 trial-energy change:   -0.000219  1 .order   -0.000212   -0.000250   -0.000175
 step:   0.5673(harm=  0.5673)  dis= 0.00172  next Energy=  -673.305277 (dE=-0.418E-03)
 bond charge predicted
       N       E                     dE             d eps       ncg     rms          rms(c)
DAV:   1    -0.658088013878E+03    0.20431E-03   -0.45407E-02   600   0.287E-01    0.912E-02
DAV:   2    -0.658088291227E+03   -0.27735E-03   -0.20684E-03   828   0.594E-02    0.209E-01
DAV:   3    -0.658088152187E+03    0.13904E-03   -0.15550E-03   420   0.165E-02    0.114E-01
DAV:   4    -0.658088275102E+03   -0.12291E-03   -0.14447E-03   384   0.256E-02    0.180E-01
DAV:   5    -0.658088095792E+03    0.17931E-03   -0.84845E-04   384   0.249E-02    0.675E-02
DAV:   6    -0.658088106039E+03   -0.10247E-04   -0.10410E-04   348   0.123E-02
  84 F= -.67330527E+03 E0= -.67324519E+03  d E =-.409660E-03
 curvature:  -0.76 expect dE=-0.389E-03 dE for cont linesearch -0.554E-05
 ZBRENT: extrapolating
 opt :   0.6455  next Energy=  -673.305275 (dE=-0.416E-03)
 bond charge predicted
       N       E                     dE             d eps       ncg     rms          rms(c)
DAV:   1    -0.658088009911E+03    0.85881E-04   -0.16422E-03   576   0.564E-02    0.421E-02
DAV:   2    -0.658088138285E+03   -0.12837E-03   -0.10678E-04   348   0.153E-02    0.157E-01
DAV:   3    -0.658088041180E+03    0.97105E-04   -0.20182E-04   360   0.167E-02
  85 F= -.67330526E+03 E0= -.67324371E+03  d E =-.398178E-03
 curvature:  -0.91 expect dE=-0.681E-03 dE for cont linesearch -0.176E-05
 trial: gam= 0.69180 g(F)=  0.749E-03 g(S)=  0.000E+00 ort =-0.873E-04 (trialstep = 0.265E+00)
 search vector abs. value=  0.252E-02
 bond charge predicted
       N       E                     dE             d eps       ncg     rms          rms(c)
DAV:   1    -0.658087962378E+03    0.17591E-03   -0.11813E-02   612   0.134E-01    0.779E-02
DAV:   2    -0.658088343243E+03   -0.38086E-03   -0.76117E-04   552   0.361E-02    0.273E-01
DAV:   3    -0.658088235963E+03    0.10728E-03   -0.14983E-03   528   0.406E-02    0.189E-01
DAV:   4    -0.658088067152E+03    0.16881E-03   -0.68683E-04   432   0.282E-02    0.126E-01
DAV:   5    -0.658088030992E+03    0.36160E-04   -0.89604E-05   360   0.124E-02
  86 F= -.67330544E+03 E0= -.67324516E+03  d E =-.182086E-03
 trial-energy change:   -0.000182  1 .order   -0.000136   -0.000182   -0.000089
 step:   0.5180(harm=  0.5180)  dis= 0.00126  next Energy=  -673.305436 (dE=-0.178E-03)
 bond charge predicted
       N       E                     dE             d eps       ncg     rms          rms(c)
DAV:   1    -0.658087811333E+03    0.25582E-03   -0.10469E-02   600   0.127E-01    0.481E-02
DAV:   2    -0.658088024766E+03   -0.21343E-03   -0.52285E-04   540   0.375E-02    0.190E-01
DAV:   3    -0.658087845751E+03    0.17901E-03   -0.44286E-04   432   0.252E-02    0.767E-02
DAV:   4    -0.658087890864E+03   -0.45113E-04   -0.19791E-04   360   0.173E-02
  87 F= -.67330548E+03 E0= -.67324597E+03  d E =-.226519E-03
 curvature:  -0.95 expect dE=-0.597E-03 dE for cont linesearch -0.261E-06
 trial: gam= 0.58253 g(F)=  0.630E-03 g(S)=  0.000E+00 ort = 0.263E-04 (trialstep = 0.315E+00)
 search vector abs. value=  0.152E-02
 bond charge predicted
       N       E                     dE             d eps       ncg     rms          rms(c)
DAV:   1    -0.658087900989E+03   -0.55238E-04   -0.10072E-02   600   0.130E-01    0.903E-02
DAV:   2    -0.658088505305E+03   -0.60432E-03   -0.96414E-04   612   0.394E-02    0.324E-01
DAV:   3    -0.658088251550E+03    0.25376E-03   -0.22071E-03   540   0.492E-02    0.231E-01
DAV:   4    -0.658088081372E+03    0.17018E-03   -0.90389E-04   432   0.317E-02    0.155E-01
DAV:   5    -0.658088009513E+03    0.71859E-04   -0.15287E-04   336   0.146E-02
  88 F= -.67330566E+03 E0= -.67324445E+03  d E =-.173260E-03
 trial-energy change:   -0.000173  1 .order   -0.000118   -0.000204   -0.000033
 step:   0.3771(harm=  0.3771)  dis= 0.00077  next Energy=  -673.305606 (dE=-0.122E-03)
 bond charge predicted
       N       E                     dE             d eps       ncg     rms          rms(c)
DAV:   1    -0.658087938779E+03    0.14259E-03   -0.45464E-04   540   0.303E-02    0.792E-02
DAV:   2    -0.658088340015E+03   -0.40124E-03   -0.18220E-04   384   0.165E-02    0.294E-01
DAV:   3    -0.658088087154E+03    0.25286E-03   -0.63968E-04   432   0.278E-02    0.166E-01
DAV:   4    -0.658088043789E+03    0.43365E-04   -0.45120E-04   372   0.217E-02
  89 F= -.67330570E+03 E0= -.67324434E+03  d E =-.218273E-03
 curvature:  -0.44 expect dE=-0.265E-03 dE for cont linesearch -0.175E-06
 trial: gam= 1.10757 g(F)=  0.599E-03 g(S)=  0.000E+00 ort =-0.245E-04 (trialstep = 0.207E+00)
 search vector abs. value=  0.240E-02
 bond charge predicted
       N       E                     dE             d eps       ncg     rms          rms(c)
DAV:   1    -0.658087982120E+03    0.10503E-03   -0.72917E-03   600   0.115E-01    0.923E-02
DAV:   2    -0.658088603571E+03   -0.62145E-03   -0.63031E-04   564   0.349E-02    0.358E-01
DAV:   3    -0.658088282164E+03    0.32141E-03   -0.15886E-03   528   0.423E-02    0.211E-01
DAV:   4    -0.658088154148E+03    0.12802E-03   -0.84251E-04   444   0.305E-02    0.176E-01
DAV:   5    -0.658088019369E+03    0.13478E-03   -0.14194E-04   360   0.152E-02    0.970E-02
DAV:   6    -0.658087972867E+03    0.46501E-04   -0.10555E-04   360   0.157E-02
  90 F= -.67330566E+03 E0= -.67324481E+03  d E =0.434270E-04
 trial-energy change:    0.000043  1 .order   -0.000093   -0.000118   -0.000067
 step:   0.4803(harm=  0.4803)  dis= 0.00109  next Energy=  -673.305839 (dE=-0.137E-03)
 bond charge predicted
       N       E                     dE             d eps       ncg     rms          rms(c)
DAV:   1    -0.658087905360E+03    0.11401E-03   -0.12468E-02   600   0.151E-01    0.565E-02
DAV:   2    -0.658088044492E+03   -0.13913E-03   -0.45177E-04   660   0.331E-02    0.155E-01
DAV:   3    -0.658087984581E+03    0.59912E-04   -0.28596E-04   360   0.186E-02
  91 F= -.67330571E+03 E0= -.67324619E+03  d E =-.498638E-05
 curvature:  -1.01 expect dE=-0.509E-03 dE for cont linesearch -0.664E-05
 ZBRENT: interpolating
 opt :   0.4041  next Energy=  -673.305712 (dE=-0.978E-05)
 bond charge predicted
       N       E                     dE             d eps       ncg     rms          rms(c)
DAV:   1    -0.658088018122E+03    0.26371E-04   -0.13592E-03   684   0.496E-02    0.118E-01
DAV:   2    -0.658091105513E+03   -0.30874E-02   -0.98130E-03   756   0.101E-01    0.586E-01
DAV:   3    -0.658088265658E+03    0.28399E-02   -0.85865E-03   744   0.960E-02    0.183E-01
DAV:   4    -0.658088154463E+03    0.11119E-03   -0.59600E-04   456   0.265E-02    0.156E-01
DAV:   5    -0.658087985795E+03    0.16867E-03   -0.28360E-04   360   0.190E-02    0.816E-02
DAV:   6    -0.658087964895E+03    0.20900E-04   -0.16742E-04   360   0.143E-02
  92 F= -.67330568E+03 E0= -.67324532E+03  d E =0.249515E-04
 curvature:  -0.73 expect dE=-0.313E-03 dE for cont linesearch -0.724E-07
 trial: gam= 0.56465 g(F)=  0.430E-03 g(S)=  0.000E+00 ort =-0.155E-04 (trialstep = 0.246E+00)
 search vector abs. value=  0.118E-02
 bond charge predicted
       N       E                     dE             d eps       ncg     rms          rms(c)
DAV:   1    -0.658088023199E+03   -0.37404E-04   -0.48185E-03   576   0.870E-02    0.302E-02
DAV:   2    -0.658088104504E+03   -0.81305E-04   -0.24882E-04   480   0.234E-02
  93 F= -.67330580E+03 E0= -.67324617E+03  d E =-.118122E-03
 trial-energy change:   -0.000118  1 .order   -0.000078   -0.000104   -0.000053
 step:   0.5049(harm=  0.5049)  dis= 0.00082  next Energy=  -673.305783 (dE=-0.106E-03)
 bond charge predicted
       N       E                     dE             d eps       ncg     rms          rms(c)
DAV:   1    -0.658088090913E+03   -0.67714E-04   -0.55427E-03   600   0.935E-02    0.587E-02
DAV:   2    -0.658088966875E+03   -0.87596E-03   -0.21718E-03   636   0.542E-02    0.332E-01
DAV:   3    -0.658088132995E+03    0.83388E-03   -0.19383E-03   576   0.501E-02    0.753E-02
DAV:   4    -0.658088176107E+03   -0.43112E-04   -0.14766E-04   408   0.172E-02
  94 F= -.67330584E+03 E0= -.67324562E+03  d E =-.167235E-03
 curvature:  -0.71 expect dE=-0.325E-03 dE for cont linesearch -0.404E-05
 trial: gam= 0.76025 g(F)=  0.460E-03 g(S)=  0.000E+00 ort = 0.821E-04 (trialstep = 0.277E+00)
 search vector abs. value=  0.127E-02
 bond charge predicted
       N       E                     dE             d eps       ncg     rms          rms(c)
DAV:   1    -0.658088212037E+03   -0.79042E-04   -0.71019E-03   600   0.106E-01    0.309E-02
DAV:   2    -0.658088240981E+03   -0.28944E-04   -0.21938E-04   456   0.233E-02
  95 F= -.67330585E+03 E0= -.67324542E+03  d E =-.424632E-05
 trial-energy change:   -0.000004  1 .order   -0.000102   -0.000145   -0.000060
 step:   0.4736(harm=  0.4736)  dis= 0.00081  next Energy=  -673.305968 (dE=-0.124E-03)
 reached required accuracy - stopping structural energy minimisation
