<?xml version="1.0" encoding="ISO-8859-1"?>
<modeling>
 <generator>
  <i name="program" type="string">vasp </i>
  <i name="version" type="string">5.4.1  </i>
  <i name="subversion" type="string">05Feb16 (build Apr 21 2017 13:36:42) gamma-only                       parallel </i>
  <i name="platform" type="string">IFC91_ompi </i>
  <i name="date" type="string">2020 09 15 </i>
  <i name="time" type="string">04:04:09 </i>
 </generator>
 <incar>
  <i type="string" name="SYSTEM"> basalPlane</i>
  <i type="int" name="ISTART">     0</i>
  <i type="string" name="PREC">accurate  !=accurate, max(enmax) no wra</i>
  <i type="string" name="ALGO"> Normal    !=Normal, blocked Davidson it</i>
  <i type="int" name="NSIM">     4</i>
  <i type="int" name="ISPIN">     1</i>
  <i type="int" name="ICHARG">     2</i>
  <i type="int" name="INIWAV">     1</i>
  <i type="int" name="NELM">   200</i>
  <i type="int" name="NELMDL">    -5</i>
  <i type="int" name="NELMIN">     2</i>
  <i type="int" name="IBRION">     2</i>
  <i name="EDIFF">      0.00010000</i>
  <i name="EDIFFG">     -0.02000000</i>
  <i type="int" name="NSW"> 10000</i>
  <i type="int" name="ISIF">     2</i>
  <i type="int" name="ISYM">     2</i>
  <i name="ENCUT">    400.00000000</i>
  <i name="ENAUG">    645.00000000</i>
  <i type="string" name="LREAL"> Auto     !=Auto projection operators ev</i>
  <i type="logical" name="LPLANE"> T  </i>
  <i type="int" name="ISMEAR">     0</i>
  <i name="SIGMA">      0.10000000</i>
  <i type="int" name="NWRITE">     2</i>
  <i type="logical" name="LWAVE"> F  </i>
  <i type="logical" name="LCHARG"> F  </i>
  <i type="logical" name="LORBIT"> F  </i>
  <i type="logical" name="LELF"> F  </i>
  <i type="logical" name="LSCALU"> F  </i>
  <v type="int" name="KPOINT_BSE">    -1     0     0     0</v>
  <i type="int" name="NELM">   200</i>
 </incar>
 <kpoints>
  <varray name="kpointlist" >
   <v>       0.00000000       0.00000000       0.00000000 </v>
  </varray>
  <varray name="weights" >
   <v>       1.00000000 </v>
  </varray>
 </kpoints>
 <parameters>
  <separator name="general" >
   <i type="string" name="SYSTEM">basalPlane</i>
   <i type="logical" name="LCOMPAT"> F  </i>
  </separator>
  <separator name="electronic" >
   <i type="string" name="PREC">accura</i>
   <i name="ENMAX">    400.00000000</i>
   <i name="ENAUG">    645.00000000</i>
   <i name="EDIFF">      0.00010000</i>
   <i type="int" name="IALGO">    38</i>
   <i type="int" name="IWAVPR">    11</i>
   <i type="int" name="NBANDS">   300</i>
   <i name="NELECT">    488.00000000</i>
   <i type="int" name="TURBO">     0</i>
   <i type="int" name="IRESTART">     0</i>
   <i type="int" name="NREBOOT">     0</i>
   <i type="int" name="NMIN">     0</i>
   <i name="EREF">      0.00000000</i>
   <separator name="electronic smearing" >
    <i type="int" name="ISMEAR">     0</i>
    <i name="SIGMA">      0.10000000</i>
    <i name="KSPACING">      0.50000000</i>
    <i type="logical" name="KGAMMA"> T  </i>
   </separator>
   <separator name="electronic projectors" >
    <i type="logical" name="LREAL"> T  </i>
    <v name="ROPT">     -0.00025000     -0.00025000     -0.00025000     -0.00025000     -0.00025000</v>
    <i type="int" name="LMAXPAW">  -100</i>
    <i type="int" name="LMAXMIX">     2</i>
    <i type="logical" name="NLSPLINE"> F  </i>
   </separator>
   <separator name="electronic startup" >
    <i type="int" name="ISTART">     0</i>
    <i type="int" name="ICHARG">     2</i>
    <i type="int" name="INIWAV">     1</i>
   </separator>
   <separator name="electronic spin" >
    <i type="int" name="ISPIN">     1</i>
    <i type="logical" name="LNONCOLLINEAR"> F  </i>
    <v name="MAGMOM">      1.00000000      1.00000000      1.00000000      1.00000000      1.00000000      1.00000000      1.00000000      1.00000000      1.00000000      1.00000000      1.00000000      1.00000000      1.00000000      1.00000000      1.00000000      1.00000000      1.00000000      1.00000000      1.00000000      1.00000000
      1.00000000      1.00000000      1.00000000      1.00000000      1.00000000      1.00000000      1.00000000      1.00000000      1.00000000      1.00000000      1.00000000      1.00000000      1.00000000      1.00000000      1.00000000      1.00000000      1.00000000      1.00000000      1.00000000      1.00000000
      1.00000000      1.00000000      1.00000000      1.00000000      1.00000000      1.00000000      1.00000000      1.00000000      1.00000000      1.00000000      1.00000000      1.00000000      1.00000000      1.00000000      1.00000000      1.00000000      1.00000000      1.00000000      1.00000000      1.00000000
      1.00000000      1.00000000      1.00000000      1.00000000      1.00000000      1.00000000      1.00000000      1.00000000      1.00000000      1.00000000      1.00000000      1.00000000      1.00000000      1.00000000      1.00000000      1.00000000      1.00000000      1.00000000      1.00000000      1.00000000
      1.00000000      1.00000000      1.00000000      1.00000000      1.00000000      1.00000000      1.00000000      1.00000000      1.00000000      1.00000000      1.00000000      1.00000000      1.00000000</v>
    <i name="NUPDOWN">     -1.00000000</i>
    <i type="logical" name="LSORBIT"> F  </i>
    <v name="SAXIS">      0.00000000      0.00000000      1.00000000</v>
    <i type="logical" name="LSPIRAL"> F  </i>
    <v name="QSPIRAL">      0.00000000      0.00000000      0.00000000</v>
    <i type="logical" name="LZEROZ"> F  </i>
   </separator>
   <separator name="electronic exchange-correlation" >
    <i type="logical" name="LASPH"> F  </i>
    <i type="logical" name="LMETAGGA"> F  </i>
   </separator>
   <separator name="electronic convergence" >
    <i type="int" name="NELM">   200</i>
    <i type="int" name="NELMDL">    -5</i>
    <i type="int" name="NELMIN">     2</i>
    <i name="ENINI">    400.00000000</i>
    <separator name="electronic convergence detail" >
     <i type="logical" name="LDIAG"> T  </i>
     <i type="logical" name="LSUBROT"> F  </i>
     <i name="WEIMIN">      0.00100000</i>
     <i name="EBREAK">      0.00000008</i>
     <i name="DEPER">      0.30000000</i>
     <i type="int" name="NRMM">     4</i>
     <i name="TIME">      0.40000000</i>
    </separator>
   </separator>
   <separator name="electronic mixer" >
    <i name="AMIX">      0.40000000</i>
    <i name="BMIX">      1.00000000</i>
    <i name="AMIN">      0.10000000</i>
    <i name="AMIX_MAG">      1.60000000</i>
    <i name="BMIX_MAG">      1.00000000</i>
    <separator name="electronic mixer details" >
     <i type="int" name="IMIX">     4</i>
     <i type="logical" name="MIXFIRST"> F  </i>
     <i type="int" name="MAXMIX">   -45</i>
     <i name="WC">    100.00000000</i>
     <i type="int" name="INIMIX">     1</i>
     <i type="int" name="MIXPRE">     1</i>
     <i type="int" name="MREMOVE">     5</i>
    </separator>
   </separator>
   <separator name="electronic dipolcorrection" >
    <i type="logical" name="LDIPOL"> F  </i>
    <i type="logical" name="LMONO"> F  </i>
    <i type="int" name="IDIPOL">     0</i>
    <i name="EPSILON">      1.00000000</i>
    <v name="DIPOL">   -100.00000000   -100.00000000   -100.00000000</v>
    <i name="EFIELD">      0.00000000</i>
   </separator>
  </separator>
  <separator name="grids" >
   <i type="int" name="NGX">    64</i>
   <i type="int" name="NGY">    84</i>
   <i type="int" name="NGZ">   240</i>
   <i type="int" name="NGXF">   128</i>
   <i type="int" name="NGYF">   168</i>
   <i type="int" name="NGZF">   480</i>
   <i type="logical" name="ADDGRID"> F  </i>
  </separator>
  <separator name="ionic" >
   <i type="int" name="NSW"> 10000</i>
   <i type="int" name="IBRION">     2</i>
   <i type="int" name="ISIF">     2</i>
   <i name="PSTRESS">      0.00000000</i>
   <i name="EDIFFG">     -0.02000000</i>
   <i type="int" name="NFREE">     1</i>
   <i name="POTIM">      0.50000000</i>
   <i name="SMASS">     -3.00000000</i>
   <i name="SCALEE">      1.00000000</i>
  </separator>
  <separator name="ionic md" >
   <i name="TEBEG">      0.00010000</i>
   <i name="TEEND">      0.00010000</i>
   <i type="int" name="NBLOCK">     1</i>
   <i type="int" name="KBLOCK"> 10000</i>
   <i type="int" name="NPACO">   256</i>
   <i name="APACO">     16.00000000</i>
  </separator>
  <separator name="symmetry" >
   <i type="int" name="ISYM">     2</i>
   <i name="SYMPREC">      0.00001000</i>
  </separator>
  <separator name="dos" >
   <i type="logical" name="LORBIT"> F  </i>
   <v name="RWIGS">     -1.00000000     -1.00000000     -1.00000000     -1.00000000     -1.00000000</v>
   <i type="int" name="NEDOS">   301</i>
   <i name="EMIN">     10.00000000</i>
   <i name="EMAX">    -10.00000000</i>
   <i name="EFERMI">      0.00000000</i>
  </separator>
  <separator name="writing" >
   <i type="int" name="NWRITE">     2</i>
   <i type="logical" name="LWAVE"> F  </i>
   <i type="logical" name="LCHARG"> F  </i>
   <i type="logical" name="LPARD"> F  </i>
   <i type="logical" name="LVTOT"> F  </i>
   <i type="logical" name="LVHAR"> F  </i>
   <i type="logical" name="LELF"> F  </i>
   <i type="logical" name="LOPTICS"> F  </i>
   <v name="STM">      0.00000000      0.00000000      0.00000000      0.00000000      0.00000000      0.00000000      0.00000000</v>
  </separator>
  <separator name="performance" >
   <i type="int" name="NPAR">    12</i>
   <i type="int" name="NSIM">     4</i>
   <i type="int" name="NBLK">    -1</i>
   <i type="logical" name="LPLANE"> T  </i>
   <i type="logical" name="LSCALAPACK"> T  </i>
   <i type="logical" name="LSCAAWARE"> F  </i>
   <i type="logical" name="LSCALU"> F  </i>
   <i type="logical" name="LASYNC"> F  </i>
   <i type="logical" name="LORBITALREAL"> F  </i>
  </separator>
  <separator name="miscellaneous" >
   <i type="int" name="IDIOT">     3</i>
   <i type="logical" name="LMUSIC"> F  </i>
   <v name="POMASS">     12.01100000     51.99600000      1.00000000     95.94000000     32.06600000</v>
   <v name="DARWINR">      0.00000000      0.00000000      0.00000000      0.00000000      0.00000000</v>
   <v name="DARWINV">      1.00000000      1.00000000      1.00000000      1.00000000      1.00000000</v>
   <i type="logical" name="LCORR"> T  </i>
  </separator>
  <i type="logical" name="GGA_COMPAT"> T  </i>
  <i type="logical" name="LBERRY"> F  </i>
  <i type="int" name="ICORELEVEL">     0</i>
  <i type="logical" name="LDAU"> F  </i>
  <i type="int" name="I_CONSTRAINED_M">     0</i>
  <separator name="electronic exchange-correlation" >
   <i type="string" name="GGA">--</i>
   <i type="int" name="VOSKOWN">     0</i>
   <i type="logical" name="LHFCALC"> F  </i>
   <i type="string" name="PRECFOCK"></i>
   <i type="logical" name="LSYMGRAD"> F  </i>
   <i type="logical" name="LHFONE"> F  </i>
   <i type="logical" name="LRHFCALC"> F  </i>
   <i type="logical" name="LTHOMAS"> F  </i>
   <i type="logical" name="LMODELHF"> F  </i>
   <i name="ENCUT4O">     -1.00000000</i>
   <i type="int" name="EXXOEP">     0</i>
   <i type="int" name="FOURORBIT">     0</i>
   <i name="AEXX">      0.00000000</i>
   <i name="HFALPHA">      0.00000000</i>
   <i name="MCALPHA">      0.00000000</i>
   <i name="ALDAX">      1.00000000</i>
   <i name="AGGAX">      1.00000000</i>
   <i name="ALDAC">      1.00000000</i>
   <i name="AGGAC">      1.00000000</i>
   <i type="int" name="NKREDX">     1</i>
   <i type="int" name="NKREDY">     1</i>
   <i type="int" name="NKREDZ">     1</i>
   <i type="logical" name="SHIFTRED"> F  </i>
   <i type="logical" name="ODDONLY"> F  </i>
   <i type="logical" name="EVENONLY"> F  </i>
   <i type="int" name="LMAXFOCK">     0</i>
   <i type="int" name="NMAXFOCKAE">     0</i>
   <i type="logical" name="LFOCKAEDFT"> F  </i>
   <i name="HFSCREEN">      0.00000000</i>
   <i name="HFSCREENC">      0.00000000</i>
   <i type="int" name="NBANDSGWLOW">     0</i>
  </separator>
  <separator name="vdW DFT" >
   <i type="logical" name="LUSE_VDW"> F  </i>
   <i name="Zab_VDW">     -0.84910000</i>
   <i name="PARAM1">      0.12340000</i>
   <i name="PARAM2">      1.00000000</i>
   <i name="PARAM3">      0.00000000</i>
  </separator>
  <separator name="model GW" >
   <i type="int" name="MODEL_GW">     0</i>
   <i name="MODEL_EPS0">     23.80275655</i>
   <i name="MODEL_ALPHA">      1.00000000</i>
  </separator>
  <separator name="linear response parameters" >
   <i type="logical" name="LEPSILON"> F  </i>
   <i type="logical" name="LRPA"> F  </i>
   <i type="logical" name="LNABLA"> F  </i>
   <i type="logical" name="LVEL"> F  </i>
   <i type="int" name="KINTER">     0</i>
   <i name="CSHIFT">      0.10000000</i>
   <i name="OMEGAMAX">     -1.00000000</i>
   <i name="DEG_THRESHOLD">      0.00200000</i>
  </separator>
  <separator name="orbital magnetization" >
   <i type="logical" name="NUCIND"> F  </i>
   <v name="MAGPOS">      0.00000000      0.00000000      0.00000000</v>
   <i type="logical" name="LNICSALL"> T  </i>
   <i type="logical" name="ORBITALMAG"> F  </i>
   <i type="logical" name="LMAGBLOCH"> F  </i>
   <i type="logical" name="LCHIMAG"> F  </i>
   <i type="logical" name="LGAUGE"> T  </i>
   <i type="int" name="MAGATOM">     0</i>
   <v name="MAGDIPOL">      0.00000000      0.00000000      0.00000000</v>
   <v name="AVECCONST">      0.00000000      0.00000000      0.00000000</v>
  </separator>
  <separator name="response functions" >
   <i type="logical" name="LADDER"> F  </i>
   <i type="logical" name="LFXC"> F  </i>
   <i type="logical" name="LHARTREE"> T  </i>
   <i type="int" name="IBSE">     0</i>
   <v type="int" name="KPOINT">    -1     0     0     0</v>
   <i type="logical" name="LTCTE"> F  </i>
   <i type="logical" name="LTETE"> F  </i>
   <i type="logical" name="LTRIPLET"> F  </i>
   <i type="logical" name="LFXCEPS"> F  </i>
   <i type="logical" name="LFXHEG"> F  </i>
   <i type="int" name="NATURALO">     0</i>
   <i type="logical" name="L2ORDER"> F  </i>
   <i type="logical" name="LUSEW"> F  </i>
   <i name="ENCUTGW">     -2.00000000</i>
   <i name="ENCUTGWSOFT">     -2.00000000</i>
   <i name="ENCUTLF">     -1.00000000</i>
   <i type="int" name="LMAXMP2">    -1</i>
   <i name="SCISSOR">      0.00000000</i>
   <i type="int" name="NOMEGA">     0</i>
   <i type="int" name="NOMEGAR">     0</i>
   <i type="int" name="NBANDSGW">    -1</i>
   <i type="int" name="NBANDSO">    -1</i>
   <i type="int" name="NBANDSV">    -1</i>
   <i type="int" name="NELM">   200</i>
   <i type="int" name="NELMHF">     1</i>
   <i type="int" name="DIM">     3</i>
   <i type="int" name="ANTIRES">     0</i>
   <i name="OMEGAMAX">    -30.00000000</i>
   <i name="OMEGAMIN">    -30.00000000</i>
   <i name="OMEGATL">   -200.00000000</i>
   <i type="int" name="OMEGAGRID">     0</i>
   <i name="CSHIFT">     -0.10000000</i>
   <i type="logical" name="SELFENERGY"> F  </i>
   <i type="logical" name="LSPECTRAL"> F  </i>
   <i type="logical" name="LSPECTRALGW"> F  </i>
   <i type="logical" name="LSINGLES"> F  </i>
   <i type="logical" name="LFERMIGW"> F  </i>
   <i type="logical" name="ODDONLYGW"> F  </i>
   <i type="logical" name="EVENONLYGW"> F  </i>
   <i type="int" name="NKREDLFX">     1</i>
   <i type="int" name="NKREDLFY">     1</i>
   <i type="int" name="NKREDLFZ">     1</i>
   <i type="int" name="MAXMEM">  1800</i>
   <i type="int" name="TELESCOPE">     0</i>
   <i type="int" name="TAUPAR">     1</i>
   <i type="int" name="OMEGAPAR">    -1</i>
   <i name="LAMBDA">      1.00000000</i>
  </separator>
  <separator name="External order field" >
   <i name="OFIELD_KAPPA">      0.00000000</i>
   <v name="OFIELD_K">      0.00000000      0.00000000      0.00000000</v>
   <i name="OFIELD_Q6_NEAR">      0.00000000</i>
   <i name="OFIELD_Q6_FAR">      0.00000000</i>
   <i name="OFIELD_A">      0.00000000</i>
  </separator>
 </parameters>
 <atominfo>
  <atoms>      93 </atoms>
  <types>       5 </types>
  <array name="atoms" >
   <dimension dim="1">ion</dimension>
   <field type="string">element</field>
   <field type="int">atomtype</field>
   <set>
    <rc><c>C </c><c>   1</c></rc>
    <rc><c>C </c><c>   1</c></rc>
    <rc><c>C </c><c>   1</c></rc>
    <rc><c>C </c><c>   1</c></rc>
    <rc><c>C </c><c>   1</c></rc>
    <rc><c>C </c><c>   1</c></rc>
    <rc><c>C </c><c>   1</c></rc>
    <rc><c>C </c><c>   1</c></rc>
    <rc><c>C </c><c>   1</c></rc>
    <rc><c>C </c><c>   1</c></rc>
    <rc><c>Cr</c><c>   2</c></rc>
    <rc><c>H </c><c>   3</c></rc>
    <rc><c>H </c><c>   3</c></rc>
    <rc><c>H </c><c>   3</c></rc>
    <rc><c>H </c><c>   3</c></rc>
    <rc><c>H </c><c>   3</c></rc>
    <rc><c>H </c><c>   3</c></rc>
    <rc><c>H </c><c>   3</c></rc>
    <rc><c>H </c><c>   3</c></rc>
    <rc><c>H </c><c>   3</c></rc>
    <rc><c>H </c><c>   3</c></rc>
    <rc><c>Mo</c><c>   4</c></rc>
    <rc><c>Mo</c><c>   4</c></rc>
    <rc><c>Mo</c><c>   4</c></rc>
    <rc><c>Mo</c><c>   4</c></rc>
    <rc><c>Mo</c><c>   4</c></rc>
    <rc><c>Mo</c><c>   4</c></rc>
    <rc><c>Mo</c><c>   4</c></rc>
    <rc><c>Mo</c><c>   4</c></rc>
    <rc><c>Mo</c><c>   4</c></rc>
    <rc><c>Mo</c><c>   4</c></rc>
    <rc><c>Mo</c><c>   4</c></rc>
    <rc><c>Mo</c><c>   4</c></rc>
    <rc><c>Mo</c><c>   4</c></rc>
    <rc><c>Mo</c><c>   4</c></rc>
    <rc><c>Mo</c><c>   4</c></rc>
    <rc><c>Mo</c><c>   4</c></rc>
    <rc><c>Mo</c><c>   4</c></rc>
    <rc><c>Mo</c><c>   4</c></rc>
    <rc><c>Mo</c><c>   4</c></rc>
    <rc><c>Mo</c><c>   4</c></rc>
    <rc><c>Mo</c><c>   4</c></rc>
    <rc><c>Mo</c><c>   4</c></rc>
    <rc><c>Mo</c><c>   4</c></rc>
    <rc><c>Mo</c><c>   4</c></rc>
    <rc><c>S </c><c>   5</c></rc>
    <rc><c>S </c><c>   5</c></rc>
    <rc><c>S </c><c>   5</c></rc>
    <rc><c>S </c><c>   5</c></rc>
    <rc><c>S </c><c>   5</c></rc>
    <rc><c>S </c><c>   5</c></rc>
    <rc><c>S </c><c>   5</c></rc>
    <rc><c>S </c><c>   5</c></rc>
    <rc><c>S </c><c>   5</c></rc>
    <rc><c>S </c><c>   5</c></rc>
    <rc><c>S </c><c>   5</c></rc>
    <rc><c>S </c><c>   5</c></rc>
    <rc><c>S </c><c>   5</c></rc>
    <rc><c>S </c><c>   5</c></rc>
    <rc><c>S </c><c>   5</c></rc>
    <rc><c>S </c><c>   5</c></rc>
    <rc><c>S </c><c>   5</c></rc>
    <rc><c>S </c><c>   5</c></rc>
    <rc><c>S </c><c>   5</c></rc>
    <rc><c>S </c><c>   5</c></rc>
    <rc><c>S </c><c>   5</c></rc>
    <rc><c>S </c><c>   5</c></rc>
    <rc><c>S </c><c>   5</c></rc>
    <rc><c>S </c><c>   5</c></rc>
    <rc><c>S </c><c>   5</c></rc>
    <rc><c>S </c><c>   5</c></rc>
    <rc><c>S </c><c>   5</c></rc>
    <rc><c>S </c><c>   5</c></rc>
    <rc><c>S </c><c>   5</c></rc>
    <rc><c>S </c><c>   5</c></rc>
    <rc><c>S </c><c>   5</c></rc>
    <rc><c>S </c><c>   5</c></rc>
    <rc><c>S </c><c>   5</c></rc>
    <rc><c>S </c><c>   5</c></rc>
    <rc><c>S </c><c>   5</c></rc>
    <rc><c>S </c><c>   5</c></rc>
    <rc><c>S </c><c>   5</c></rc>
    <rc><c>S </c><c>   5</c></rc>
    <rc><c>S </c><c>   5</c></rc>
    <rc><c>S </c><c>   5</c></rc>
    <rc><c>S </c><c>   5</c></rc>
    <rc><c>S </c><c>   5</c></rc>
    <rc><c>S </c><c>   5</c></rc>
    <rc><c>S </c><c>   5</c></rc>
    <rc><c>S </c><c>   5</c></rc>
    <rc><c>S </c><c>   5</c></rc>
    <rc><c>S </c><c>   5</c></rc>
    <rc><c>S </c><c>   5</c></rc>
   </set>
  </array>
  <array name="atomtypes" >
   <dimension dim="1">type</dimension>
   <field type="int">atomspertype</field>
   <field type="string">element</field>
   <field>mass</field>
   <field>valence</field>
   <field type="string">pseudopotential</field>
   <set>
    <rc><c>  10</c><c>C </c><c>     12.01100000</c><c>      4.00000000</c><c>  PAW_PBE C 08Apr2002                   </c></rc>
    <rc><c>   1</c><c>Cr</c><c>     51.99600000</c><c>      6.00000000</c><c>  PAW_PBE Cr 06Sep2000                  </c></rc>
    <rc><c>  10</c><c>H </c><c>      1.00000000</c><c>      1.00000000</c><c>  PAW_PBE H 15Jun2001                   </c></rc>
    <rc><c>  24</c><c>Mo</c><c>     95.94000000</c><c>      6.00000000</c><c>  PAW_PBE Mo 08Apr2002                  </c></rc>
    <rc><c>  48</c><c>S </c><c>     32.06600000</c><c>      6.00000000</c><c>  PAW_PBE S 06Sep2000                   </c></rc>
   </set>
  </array>
 </atominfo>
 <structure name="initialpos" >
  <crystal>
   <varray name="basis" >
    <v>       9.57094646       0.00000000       0.00000000 </v>
    <v>      -6.38062803      11.05157872       0.00000000 </v>
    <v>       0.00000000       0.00000000      34.88026251 </v>
   </varray>
   <i name="volume">   3689.42726549 </i>
   <varray name="rec_basis" >
    <v>       0.10448287       0.06032318       0.00000000 </v>
    <v>       0.00000000       0.09048481       0.00000000 </v>
    <v>       0.00000000       0.00000000       0.02866951 </v>
   </varray>
  </crystal>
  <varray name="positions" >
   <v>       0.66271498       0.43746311       0.98461573 </v>
   <v>       0.67819481       0.55421475       0.98596153 </v>
   <v>       0.82024024       0.45153243       0.98576628 </v>
   <v>       0.93575061       0.57900175       0.98799866 </v>
   <v>       0.84644150       0.64271978       0.98803547 </v>
   <v>       0.69840104       0.54809580       0.88411600 </v>
   <v>       0.97748225       0.64655560       0.89064646 </v>
   <v>       0.84054558       0.66447094       0.89064033 </v>
   <v>       0.92069072       0.52135191       0.88407473 </v>
   <v>       0.74980735       0.46047009       0.88015871 </v>
   <v>       0.81100153       0.54768374       0.93610651 </v>
   <v>       0.89729472       0.74016595       0.98991417 </v>
   <v>       0.84409697       0.75050946       0.89385513 </v>
   <v>       0.99456474       0.47854349       0.88417919 </v>
   <v>       0.10238878       0.71592471       0.89542376 </v>
   <v>       0.57509967       0.53023073       0.88171789 </v>
   <v>       0.57945446       0.57313384       0.98428006 </v>
   <v>       0.55013005       0.35231963       0.98133071 </v>
   <v>       0.84770198       0.37852571       0.98482851 </v>
   <v>       0.06588148       0.61943344       0.99047013 </v>
   <v>       0.67166629       0.36361947       0.87595185 </v>
   <v>       0.55555566       0.08333325       0.25000928 </v>
   <v>       0.55555566       0.33333325       0.25000928 </v>
   <v>       0.44444432       0.41666674       0.74999076 </v>
   <v>       0.55555566       0.58333325       0.25000928 </v>
   <v>       0.44444432       0.66666674       0.74999076 </v>
   <v>       0.55555566       0.83333325       0.25000928 </v>
   <v>       0.44444432       0.91666674       0.74999076 </v>
   <v>       0.88888899       0.33333325       0.25000928 </v>
   <v>       0.77777765       0.16666674       0.74999076 </v>
   <v>       0.77777765       0.41666674       0.74999076 </v>
   <v>       0.88888899       0.58333325       0.25000928 </v>
   <v>       0.77777765       0.66666674       0.74999076 </v>
   <v>       0.88888899       0.83333325       0.25000928 </v>
   <v>       0.77777765       0.91666674       0.74999076 </v>
   <v>       0.11111099       0.91666674       0.74999076 </v>
   <v>       0.88888899       0.08333325       0.25000928 </v>
   <v>       0.22222233       0.83333325       0.25000928 </v>
   <v>       0.44444432       0.16666674       0.74999076 </v>
   <v>       0.22222233       0.58333325       0.25000928 </v>
   <v>       0.11111099       0.41666674       0.74999076 </v>
   <v>       0.22222233       0.33333325       0.25000928 </v>
   <v>       0.22222233       0.08333325       0.25000928 </v>
   <v>       0.11111099       0.16666674       0.74999076 </v>
   <v>       0.11111099       0.66666674       0.74999076 </v>
   <v>       0.77777765       0.16666674       0.29487388 </v>
   <v>       0.88888899       0.08333325       0.79485533 </v>
   <v>       0.77777765       0.16666674       0.20514467 </v>
   <v>       0.88888899       0.08333325       0.70512613 </v>
   <v>       0.22222233       0.08333325       0.70512613 </v>
   <v>       0.11111099       0.16666674       0.20514467 </v>
   <v>       0.77777765       0.41666674       0.29487388 </v>
   <v>       0.88888899       0.33333325       0.79485533 </v>
   <v>       0.11111099       0.66666674       0.20514467 </v>
   <v>       0.55555566       0.83333325       0.70512613 </v>
   <v>       0.88888899       0.33333325       0.70512613 </v>
   <v>       0.22222233       0.08333325       0.79485533 </v>
   <v>       0.11111099       0.16666674       0.29487388 </v>
   <v>       0.77777765       0.66666674       0.29487388 </v>
   <v>       0.88888899       0.58333325       0.79485533 </v>
   <v>       0.77777765       0.66666674       0.20514467 </v>
   <v>       0.88888899       0.58333325       0.70512613 </v>
   <v>       0.77777765       0.91666674       0.29487388 </v>
   <v>       0.88888899       0.83333325       0.79485533 </v>
   <v>       0.77777765       0.41666674       0.20514467 </v>
   <v>       0.44444432       0.91666674       0.20514467 </v>
   <v>       0.44444432       0.91666674       0.29487388 </v>
   <v>       0.22222233       0.58333325       0.70512613 </v>
   <v>       0.22222233       0.58333325       0.79485533 </v>
   <v>       0.11111099       0.91666674       0.29487388 </v>
   <v>       0.22222233       0.83333325       0.79485533 </v>
   <v>       0.11111099       0.91666674       0.20514467 </v>
   <v>       0.22222233       0.83333325       0.70512613 </v>
   <v>       0.11111099       0.66666674       0.29487388 </v>
   <v>       0.77777765       0.91666674       0.20514467 </v>
   <v>       0.44444432       0.16666674       0.29487388 </v>
   <v>       0.55555566       0.08333325       0.79485533 </v>
   <v>       0.44444432       0.16666674       0.20514467 </v>
   <v>       0.55555566       0.08333325       0.70512613 </v>
   <v>       0.44444432       0.41666674       0.29487388 </v>
   <v>       0.55555566       0.33333325       0.79485533 </v>
   <v>       0.44444432       0.41666674       0.20514467 </v>
   <v>       0.55555566       0.33333325       0.70512613 </v>
   <v>       0.22222233       0.33333325       0.70512613 </v>
   <v>       0.11111099       0.41666674       0.20514467 </v>
   <v>       0.44444432       0.66666674       0.29487388 </v>
   <v>       0.55555566       0.58333325       0.79485533 </v>
   <v>       0.44444432       0.66666674       0.20514467 </v>
   <v>       0.55555566       0.58333325       0.70512613 </v>
   <v>       0.22222233       0.33333325       0.79485533 </v>
   <v>       0.11111099       0.41666674       0.29487388 </v>
   <v>       0.55555566       0.83333325       0.79485533 </v>
   <v>       0.88888899       0.83333325       0.70512613 </v>
  </varray>
 </structure>
 <calculation>
  <scstep>
   <time name="dav">    5.30    5.31</time>
   <time name="total">    5.74    5.76</time>
   <energy>
    <i name="alphaZ">    562.39184220 </i>
    <i name="ewald">  40551.81708159 </i>
    <i name="hartreedc"> -59472.04230605 </i>
    <i name="XCdc">   -737.05491774 </i>
    <i name="pawpsdc">  18197.44745459 </i>
    <i name="pawaedc"> -16322.33343364 </i>
    <i name="eentropy">     -0.11891498 </i>
    <i name="bandstr">   1237.11823780 </i>
    <i name="atom">  20380.58938199 </i>
    <i name="e_fr_energy">   4397.81442576 </i>
    <i name="e_wo_entrp">   4397.93334074 </i>
    <i name="e_0_energy">   4397.87388325 </i>
   </energy>
  </scstep>
  <scstep>
   <time name="dav">    8.77    8.80</time>
   <time name="total">    8.77    8.80</time>
   <energy>
    <i name="e_fr_energy">     -8.48209130 </i>
    <i name="e_wo_entrp">     -8.47012176 </i>
    <i name="e_0_energy">     -8.47610653 </i>
   </energy>
  </scstep>
  <scstep>
   <time name="dav">    6.84    6.86</time>
   <time name="total">    6.84    6.87</time>
   <energy>
    <i name="e_fr_energy">   -680.46628760 </i>
    <i name="e_wo_entrp">   -680.46628720 </i>
    <i name="e_0_energy">   -680.46628740 </i>
   </energy>
  </scstep>
  <scstep>
   <time name="dav">    7.71    7.73</time>
   <time name="total">    7.71    7.74</time>
   <energy>
    <i name="e_fr_energy">   -713.53762951 </i>
    <i name="e_wo_entrp">   -713.53762950 </i>
    <i name="e_0_energy">   -713.53762950 </i>
   </energy>
  </scstep>
  <scstep>
   <time name="dav">    7.98    8.00</time>
   <time name="total">    8.54    8.57</time>
   <energy>
    <i name="e_fr_energy">   -714.77124512 </i>
    <i name="e_wo_entrp">   -714.77124511 </i>
    <i name="e_0_energy">   -714.77124512 </i>
   </energy>
  </scstep>
  <scstep>
   <time name="dav">    7.34    7.37</time>
   <time name="total">    8.33    8.36</time>
   <energy>
    <i name="e_fr_energy">   -699.63961259 </i>
    <i name="e_wo_entrp">   -699.52760358 </i>
    <i name="e_0_energy">   -699.58360808 </i>
   </energy>
  </scstep>
  <scstep>
   <time name="dav">    8.09    8.19</time>
   <time name="total">    9.10    9.20</time>
   <energy>
    <i name="e_fr_energy">   -709.99856438 </i>
    <i name="e_wo_entrp">   -709.83266645 </i>
    <i name="e_0_energy">   -709.91561541 </i>
   </energy>
  </scstep>
  <scstep>
   <time name="dav">    7.00    7.02</time>
   <time name="total">    8.00    8.03</time>
   <energy>
    <i name="e_fr_energy">   -674.97725498 </i>
    <i name="e_wo_entrp">   -674.60209238 </i>
    <i name="e_0_energy">   -674.78967368 </i>
   </energy>
  </scstep>
  <scstep>
   <time name="dav">    7.43    7.45</time>
   <time name="total">    8.43    8.46</time>
   <energy>
    <i name="e_fr_energy">   -683.64386048 </i>
    <i name="e_wo_entrp">   -683.42519619 </i>
    <i name="e_0_energy">   -683.53452833 </i>
   </energy>
  </scstep>
  <scstep>
   <time name="dav">    7.86    7.88</time>
   <time name="total">    8.84    8.86</time>
   <energy>
    <i name="e_fr_energy">   -664.49526367 </i>
    <i name="e_wo_entrp">   -664.42911806 </i>
    <i name="e_0_energy">   -664.46219087 </i>
   </energy>
  </scstep>
  <scstep>
   <time name="dav">    8.21    8.23</time>
   <time name="total">    9.19    9.22</time>
   <energy>
    <i name="e_fr_energy">   -659.04375810 </i>
    <i name="e_wo_entrp">   -658.98320283 </i>
    <i name="e_0_energy">   -659.01348047 </i>
   </energy>
  </scstep>
  <scstep>
   <time name="dav">    7.78    7.80</time>
   <time name="total">    8.76    8.79</time>
   <energy>
    <i name="e_fr_energy">   -659.33351185 </i>
    <i name="e_wo_entrp">   -659.25639375 </i>
    <i name="e_0_energy">   -659.29495280 </i>
   </energy>
  </scstep>
  <scstep>
   <time name="dav">    7.66    7.69</time>
   <time name="total">    8.63    8.66</time>
   <energy>
    <i name="e_fr_energy">   -658.62218895 </i>
    <i name="e_wo_entrp">   -658.51196688 </i>
    <i name="e_0_energy">   -658.56707792 </i>
   </energy>
  </scstep>
  <scstep>
   <time name="dav">    8.06    8.08</time>
   <time name="total">    9.04    9.07</time>
   <energy>
    <i name="e_fr_energy">   -663.04023809 </i>
    <i name="e_wo_entrp">   -662.96882283 </i>
    <i name="e_0_energy">   -663.00453046 </i>
   </energy>
  </scstep>
  <scstep>
   <time name="dav">    7.86    7.88</time>
   <time name="total">    8.84    8.87</time>
   <energy>
    <i name="e_fr_energy">   -662.31660007 </i>
    <i name="e_wo_entrp">   -662.24280335 </i>
    <i name="e_0_energy">   -662.27970171 </i>
   </energy>
  </scstep>
  <scstep>
   <time name="dav">    7.70    7.72</time>
   <time name="total">    8.68    8.71</time>
   <energy>
    <i name="e_fr_energy">   -658.64704876 </i>
    <i name="e_wo_entrp">   -658.54289405 </i>
    <i name="e_0_energy">   -658.59497140 </i>
   </energy>
  </scstep>
  <scstep>
   <time name="dav">    7.01    7.03</time>
   <time name="total">    7.99    8.02</time>
   <energy>
    <i name="e_fr_energy">   -658.57514238 </i>
    <i name="e_wo_entrp">   -658.44529478 </i>
    <i name="e_0_energy">   -658.51021858 </i>
   </energy>
  </scstep>
  <scstep>
   <time name="dav">    7.70    7.72</time>
   <time name="total">    8.69    8.71</time>
   <energy>
    <i name="e_fr_energy">   -658.51848391 </i>
    <i name="e_wo_entrp">   -658.40242974 </i>
    <i name="e_0_energy">   -658.46045683 </i>
   </energy>
  </scstep>
  <scstep>
   <time name="dav">    8.04    8.11</time>
   <time name="total">    9.02    9.10</time>
   <energy>
    <i name="e_fr_energy">   -658.29627627 </i>
    <i name="e_wo_entrp">   -658.18689575 </i>
    <i name="e_0_energy">   -658.24158601 </i>
   </energy>
  </scstep>
  <scstep>
   <time name="dav">    8.11    8.16</time>
   <time name="total">    9.10    9.16</time>
   <energy>
    <i name="e_fr_energy">   -658.22312688 </i>
    <i name="e_wo_entrp">   -658.12356157 </i>
    <i name="e_0_energy">   -658.17334422 </i>
   </energy>
  </scstep>
  <scstep>
   <time name="dav">    7.32    7.34</time>
   <time name="total">    8.32    8.35</time>
   <energy>
    <i name="e_fr_energy">   -658.21720075 </i>
    <i name="e_wo_entrp">   -658.11133336 </i>
    <i name="e_0_energy">   -658.16426706 </i>
   </energy>
  </scstep>
  <scstep>
   <time name="dav">    8.04    8.06</time>
   <time name="total">    9.03    9.06</time>
   <energy>
    <i name="e_fr_energy">   -658.16959069 </i>
    <i name="e_wo_entrp">   -658.06086810 </i>
    <i name="e_0_energy">   -658.11522939 </i>
   </energy>
  </scstep>
  <scstep>
   <time name="dav">    7.22    7.85</time>
   <time name="total">    8.21    8.85</time>
   <energy>
    <i name="e_fr_energy">   -658.15993339 </i>
    <i name="e_wo_entrp">   -658.05526180 </i>
    <i name="e_0_energy">   -658.10759759 </i>
   </energy>
  </scstep>
  <scstep>
   <time name="dav">    7.87    7.89</time>
   <time name="total">    8.87    8.90</time>
   <energy>
    <i name="e_fr_energy">   -658.10001550 </i>
    <i name="e_wo_entrp">   -657.98777868 </i>
    <i name="e_0_energy">   -658.04389709 </i>
   </energy>
  </scstep>
  <scstep>
   <time name="dav">    7.87    7.89</time>
   <time name="total">    8.87    8.90</time>
   <energy>
    <i name="e_fr_energy">   -658.08829099 </i>
    <i name="e_wo_entrp">   -657.97518699 </i>
    <i name="e_0_energy">   -658.03173899 </i>
   </energy>
  </scstep>
  <scstep>
   <time name="dav">    7.88    7.90</time>
   <time name="total">    8.89    8.92</time>
   <energy>
    <i name="e_fr_energy">   -658.10510678 </i>
    <i name="e_wo_entrp">   -657.94815682 </i>
    <i name="e_0_energy">   -658.02663180 </i>
   </energy>
  </scstep>
  <scstep>
   <time name="dav">    7.28    7.31</time>
   <time name="total">    8.29    8.33</time>
   <energy>
    <i name="e_fr_energy">   -658.09227316 </i>
    <i name="e_wo_entrp">   -657.95011624 </i>
    <i name="e_0_energy">   -658.02119470 </i>
   </energy>
  </scstep>
  <scstep>
   <time name="dav">    6.87    6.89</time>
   <time name="total">    7.89    7.91</time>
   <energy>
    <i name="e_fr_energy">   -658.09456520 </i>
    <i name="e_wo_entrp">   -657.95397506 </i>
    <i name="e_0_energy">   -658.02427013 </i>
   </energy>
  </scstep>
  <scstep>
   <time name="dav">    6.67    6.69</time>
   <time name="total">    7.68    7.71</time>
   <energy>
    <i name="e_fr_energy">   -658.08951343 </i>
    <i name="e_wo_entrp">   -657.94334894 </i>
    <i name="e_0_energy">   -658.01643118 </i>
   </energy>
  </scstep>
  <scstep>
   <time name="dav">    6.87    6.90</time>
   <time name="total">    7.89    7.93</time>
   <energy>
    <i name="e_fr_energy">   -658.08753336 </i>
    <i name="e_wo_entrp">   -657.94354716 </i>
    <i name="e_0_energy">   -658.01554026 </i>
   </energy>
  </scstep>
  <scstep>
   <time name="dav">    5.91    5.92</time>
   <time name="total">    6.92    6.95</time>
   <energy>
    <i name="e_fr_energy">   -658.07904851 </i>
    <i name="e_wo_entrp">   -657.94763559 </i>
    <i name="e_0_energy">   -658.01334205 </i>
   </energy>
  </scstep>
  <scstep>
   <time name="dav">    5.39    5.40</time>
   <time name="total">    6.40    6.43</time>
   <energy>
    <i name="e_fr_energy">   -658.07990969 </i>
    <i name="e_wo_entrp">   -657.94331090 </i>
    <i name="e_0_energy">   -658.01161029 </i>
   </energy>
  </scstep>
  <scstep>
   <time name="dav">    4.71    4.72</time>
   <time name="total">    5.72    5.74</time>
   <energy>
    <i name="e_fr_energy">   -658.07653034 </i>
    <i name="e_wo_entrp">   -657.94123115 </i>
    <i name="e_0_energy">   -658.00888074 </i>
   </energy>
  </scstep>
  <scstep>
   <time name="dav">    6.06    6.08</time>
   <time name="total">    7.08    7.10</time>
   <energy>
    <i name="e_fr_energy">   -658.07182853 </i>
    <i name="e_wo_entrp">   -657.93894762 </i>
    <i name="e_0_energy">   -658.00538807 </i>
   </energy>
  </scstep>
  <scstep>
   <time name="dav">    5.39    5.41</time>
   <time name="total">    6.41    6.43</time>
   <energy>
    <i name="e_fr_energy">   -658.06849304 </i>
    <i name="e_wo_entrp">   -657.93482559 </i>
    <i name="e_0_energy">   -658.00165931 </i>
   </energy>
  </scstep>
  <scstep>
   <time name="dav">    5.73    5.75</time>
   <time name="total">    6.75    6.79</time>
   <energy>
    <i name="e_fr_energy">   -658.06327951 </i>
    <i name="e_wo_entrp">   -657.93630317 </i>
    <i name="e_0_energy">   -657.99979134 </i>
   </energy>
  </scstep>
  <scstep>
   <time name="dav">    6.16    6.18</time>
   <time name="total">    7.17    7.20</time>
   <energy>
    <i name="e_fr_energy">   -658.05910187 </i>
    <i name="e_wo_entrp">   -657.93438477 </i>
    <i name="e_0_energy">   -657.99674332 </i>
   </energy>
  </scstep>
  <scstep>
   <time name="dav">    6.15    6.17</time>
   <time name="total">    7.17    7.20</time>
   <energy>
    <i name="e_fr_energy">   -658.05328862 </i>
    <i name="e_wo_entrp">   -657.93091109 </i>
    <i name="e_0_energy">   -657.99209986 </i>
   </energy>
  </scstep>
  <scstep>
   <time name="dav">    5.73    5.75</time>
   <time name="total">    6.75    6.77</time>
   <energy>
    <i name="e_fr_energy">   -658.04873677 </i>
    <i name="e_wo_entrp">   -657.92970667 </i>
    <i name="e_0_energy">   -657.98922172 </i>
   </energy>
  </scstep>
  <scstep>
   <time name="dav">    6.07    6.09</time>
   <time name="total">    7.08    7.11</time>
   <energy>
    <i name="e_fr_energy">   -658.04470206 </i>
    <i name="e_wo_entrp">   -657.93003580 </i>
    <i name="e_0_energy">   -657.98736893 </i>
   </energy>
  </scstep>
  <scstep>
   <time name="dav">    5.21    5.23</time>
   <time name="total">    6.23    6.25</time>
   <energy>
    <i name="e_fr_energy">   -658.04248892 </i>
    <i name="e_wo_entrp">   -657.92736477 </i>
    <i name="e_0_energy">   -657.98492685 </i>
   </energy>
  </scstep>
  <scstep>
   <time name="dav">    4.04    4.05</time>
   <time name="total">    5.06    5.08</time>
   <energy>
    <i name="e_fr_energy">   -658.04178876 </i>
    <i name="e_wo_entrp">   -657.92725225 </i>
    <i name="e_0_energy">   -657.98452051 </i>
   </energy>
  </scstep>
  <scstep>
   <time name="dav">    4.20    4.21</time>
   <time name="total">    5.22    5.24</time>
   <energy>
    <i name="e_fr_energy">   -658.04112348 </i>
    <i name="e_wo_entrp">   -657.92562248 </i>
    <i name="e_0_energy">   -657.98337298 </i>
   </energy>
  </scstep>
  <scstep>
   <time name="dav">    4.71    4.72</time>
   <time name="total">    5.73    5.75</time>
   <energy>
    <i name="e_fr_energy">   -658.03943471 </i>
    <i name="e_wo_entrp">   -657.92357979 </i>
    <i name="e_0_energy">   -657.98150725 </i>
   </energy>
  </scstep>
  <scstep>
   <time name="dav">    5.40    5.42</time>
   <time name="total">    6.42    6.45</time>
   <energy>
    <i name="e_fr_energy">   -658.03654921 </i>
    <i name="e_wo_entrp">   -657.91983870 </i>
    <i name="e_0_energy">   -657.97819395 </i>
   </energy>
  </scstep>
  <scstep>
   <time name="dav">    3.85    3.90</time>
   <time name="total">    4.85    4.94</time>
   <energy>
    <i name="e_fr_energy">   -658.03609146 </i>
    <i name="e_wo_entrp">   -657.91982202 </i>
    <i name="e_0_energy">   -657.97795674 </i>
   </energy>
  </scstep>
  <scstep>
   <time name="dav">    4.20    4.21</time>
   <time name="total">    5.22    5.24</time>
   <energy>
    <i name="e_fr_energy">   -658.03469326 </i>
    <i name="e_wo_entrp">   -657.91787448 </i>
    <i name="e_0_energy">   -657.97628387 </i>
   </energy>
  </scstep>
  <scstep>
   <time name="dav">    6.23    6.25</time>
   <time name="total">    7.25    7.28</time>
   <energy>
    <i name="e_fr_energy">   -658.03007689 </i>
    <i name="e_wo_entrp">   -657.91301078 </i>
    <i name="e_0_energy">   -657.97154384 </i>
   </energy>
  </scstep>
  <scstep>
   <time name="dav">    6.34    6.36</time>
   <time name="total">    7.35    7.38</time>
   <energy>
    <i name="e_fr_energy">   -658.02667346 </i>
    <i name="e_wo_entrp">   -657.90869281 </i>
    <i name="e_0_energy">   -657.96768314 </i>
   </energy>
  </scstep>
  <scstep>
   <time name="dav">    5.98    6.00</time>
   <time name="total">    7.02    7.04</time>
   <energy>
    <i name="e_fr_energy">   -658.02386442 </i>
    <i name="e_wo_entrp">   -657.90501423 </i>
    <i name="e_0_energy">   -657.96443933 </i>
   </energy>
  </scstep>
  <scstep>
   <time name="dav">    6.39    6.42</time>
   <time name="total">    7.43    7.47</time>
   <energy>
    <i name="e_fr_energy">   -658.05369439 </i>
    <i name="e_wo_entrp">   -657.87631041 </i>
    <i name="e_0_energy">   -657.96500240 </i>
   </energy>
  </scstep>
  <scstep>
   <time name="dav">    6.90    6.93</time>
   <time name="total">    7.94    7.99</time>
   <energy>
    <i name="e_fr_energy">   -658.04174003 </i>
    <i name="e_wo_entrp">   -657.87742571 </i>
    <i name="e_0_energy">   -657.95958287 </i>
   </energy>
  </scstep>
  <scstep>
   <time name="dav">    6.48    6.51</time>
   <time name="total">    7.52    7.56</time>
   <energy>
    <i name="e_fr_energy">   -658.02341616 </i>
    <i name="e_wo_entrp">   -657.88559446 </i>
    <i name="e_0_energy">   -657.95450531 </i>
   </energy>
  </scstep>
  <scstep>
   <time name="dav">    5.66    5.91</time>
   <time name="total">    6.70    6.96</time>
   <energy>
    <i name="e_fr_energy">   -658.02304133 </i>
    <i name="e_wo_entrp">   -657.88695178 </i>
    <i name="e_0_energy">   -657.95499656 </i>
   </energy>
  </scstep>
  <scstep>
   <time name="dav">    4.62    4.64</time>
   <time name="total">    5.65    5.69</time>
   <energy>
    <i name="e_fr_energy">   -658.02337891 </i>
    <i name="e_wo_entrp">   -657.88617070 </i>
    <i name="e_0_energy">   -657.95477481 </i>
   </energy>
  </scstep>
  <scstep>
   <time name="dav">    4.45    4.47</time>
   <time name="total">    5.49    5.51</time>
   <energy>
    <i name="e_fr_energy">   -658.02584593 </i>
    <i name="e_wo_entrp">   -657.88158051 </i>
    <i name="e_0_energy">   -657.95371322 </i>
   </energy>
  </scstep>
  <scstep>
   <time name="dav">    4.28    4.30</time>
   <time name="total">    5.32    5.35</time>
   <energy>
    <i name="e_fr_energy">   -658.02457700 </i>
    <i name="e_wo_entrp">   -657.88399480 </i>
    <i name="e_0_energy">   -657.95428590 </i>
   </energy>
  </scstep>
  <scstep>
   <time name="dav">    4.37    4.38</time>
   <time name="total">    5.40    5.43</time>
   <energy>
    <i name="e_fr_energy">   -658.02298504 </i>
    <i name="e_wo_entrp">   -657.88804636 </i>
    <i name="e_0_energy">   -657.95551570 </i>
   </energy>
  </scstep>
  <scstep>
   <time name="dav">    4.29    4.30</time>
   <time name="total">    5.33    5.35</time>
   <energy>
    <i name="e_fr_energy">   -658.02361069 </i>
    <i name="e_wo_entrp">   -657.88595086 </i>
    <i name="e_0_energy">   -657.95478077 </i>
   </energy>
  </scstep>
  <scstep>
   <time name="dav">    4.03    4.04</time>
   <time name="total">    5.07    5.09</time>
   <energy>
    <i name="e_fr_energy">   -658.02346019 </i>
    <i name="e_wo_entrp">   -657.88690694 </i>
    <i name="e_0_energy">   -657.95518357 </i>
   </energy>
  </scstep>
  <scstep>
   <time name="dav">    4.45    4.47</time>
   <time name="total">    5.48    5.57</time>
   <energy>
    <i name="e_fr_energy">   -658.02536263 </i>
    <i name="e_wo_entrp">   -657.88238260 </i>
    <i name="e_0_energy">   -657.95387261 </i>
   </energy>
  </scstep>
  <scstep>
   <time name="dav">    4.11    4.13</time>
   <time name="total">    5.16    5.19</time>
   <energy>
    <i name="e_fr_energy">   -658.02387817 </i>
    <i name="e_wo_entrp">   -657.88663204 </i>
    <i name="e_0_energy">   -657.95525510 </i>
   </energy>
  </scstep>
  <scstep>
   <time name="dav">    4.36    4.38</time>
   <time name="total">    5.41    5.43</time>
   <energy>
    <i name="e_fr_energy">   -658.02284672 </i>
    <i name="e_wo_entrp">   -657.88909015 </i>
    <i name="e_0_energy">   -657.95596844 </i>
   </energy>
  </scstep>
  <scstep>
   <time name="dav">    4.29    4.30</time>
   <time name="total">    5.34    5.36</time>
   <energy>
    <i name="e_fr_energy">   -658.02327643 </i>
    <i name="e_wo_entrp">   -657.88801267 </i>
    <i name="e_0_energy">   -657.95564455 </i>
   </energy>
  </scstep>
  <scstep>
   <time name="dav">    3.92    4.25</time>
   <time name="total">    4.33    4.67</time>
   <energy>
    <i name="alphaZ">    562.39184220 </i>
    <i name="ewald">  40551.81708159 </i>
    <i name="hartreedc"> -59964.08745685 </i>
    <i name="XCdc">   -700.13607834 </i>
    <i name="pawpsdc">  42731.03084738 </i>
    <i name="pawaedc"> -40898.73703710 </i>
    <i name="eentropy">     -0.13539396 </i>
    <i name="bandstr">  -3320.75651249 </i>
    <i name="atom">  20380.58938199 </i>
    <i name="e_fr_energy">   -658.02332557 </i>
    <i name="e_wo_entrp">   -657.88793161 </i>
    <i name="e_0_energy">   -657.95562859 </i>
   </energy>
  </scstep>
  <structure>
   <crystal>
    <varray name="basis" >
     <v>       9.57094646       0.00000000       0.00000000 </v>
     <v>      -6.38062803      11.05157872       0.00000000 </v>
     <v>       0.00000000       0.00000000      34.88026251 </v>
    </varray>
    <i name="volume">   3689.42726549 </i>
    <varray name="rec_basis" >
     <v>       0.10448287       0.06032318       0.00000000 </v>
     <v>       0.00000000       0.09048481       0.00000000 </v>
     <v>       0.00000000       0.00000000       0.02866951 </v>
    </varray>
   </crystal>
   <varray name="positions" >
    <v>       0.66271498       0.43746311       0.98461573 </v>
    <v>       0.67819481       0.55421475       0.98596153 </v>
    <v>       0.82024024       0.45153243       0.98576628 </v>
    <v>       0.93575061       0.57900175       0.98799866 </v>
    <v>       0.84644150       0.64271978       0.98803547 </v>
    <v>       0.69840104       0.54809580       0.88411600 </v>
    <v>       0.97748225       0.64655560       0.89064646 </v>
    <v>       0.84054558       0.66447094       0.89064033 </v>
    <v>       0.92069072       0.52135191       0.88407473 </v>
    <v>       0.74980735       0.46047009       0.88015871 </v>
    <v>       0.81100153       0.54768374       0.93610651 </v>
    <v>       0.89729472       0.74016595       0.98991417 </v>
    <v>       0.84409697       0.75050946       0.89385513 </v>
    <v>       0.99456474       0.47854349       0.88417919 </v>
    <v>       0.10238878       0.71592471       0.89542376 </v>
    <v>       0.57509967       0.53023073       0.88171789 </v>
    <v>       0.57945446       0.57313384       0.98428006 </v>
    <v>       0.55013005       0.35231963       0.98133071 </v>
    <v>       0.84770198       0.37852571       0.98482851 </v>
    <v>       0.06588148       0.61943344       0.99047013 </v>
    <v>       0.67166629       0.36361947       0.87595185 </v>
    <v>       0.55555566       0.08333325       0.25000928 </v>
    <v>       0.55555566       0.33333325       0.25000928 </v>
    <v>       0.44444432       0.41666674       0.74999076 </v>
    <v>       0.55555566       0.58333325       0.25000928 </v>
    <v>       0.44444432       0.66666674       0.74999076 </v>
    <v>       0.55555566       0.83333325       0.25000928 </v>
    <v>       0.44444432       0.91666674       0.74999076 </v>
    <v>       0.88888899       0.33333325       0.25000928 </v>
    <v>       0.77777765       0.16666674       0.74999076 </v>
    <v>       0.77777765       0.41666674       0.74999076 </v>
    <v>       0.88888899       0.58333325       0.25000928 </v>
    <v>       0.77777765       0.66666674       0.74999076 </v>
    <v>       0.88888899       0.83333325       0.25000928 </v>
    <v>       0.77777765       0.91666674       0.74999076 </v>
    <v>       0.11111099       0.91666674       0.74999076 </v>
    <v>       0.88888899       0.08333325       0.25000928 </v>
    <v>       0.22222233       0.83333325       0.25000928 </v>
    <v>       0.44444432       0.16666674       0.74999076 </v>
    <v>       0.22222233       0.58333325       0.25000928 </v>
    <v>       0.11111099       0.41666674       0.74999076 </v>
    <v>       0.22222233       0.33333325       0.25000928 </v>
    <v>       0.22222233       0.08333325       0.25000928 </v>
    <v>       0.11111099       0.16666674       0.74999076 </v>
    <v>       0.11111099       0.66666674       0.74999076 </v>
    <v>       0.77777765       0.16666674       0.29487388 </v>
    <v>       0.88888899       0.08333325       0.79485533 </v>
    <v>       0.77777765       0.16666674       0.20514467 </v>
    <v>       0.88888899       0.08333325       0.70512613 </v>
    <v>       0.22222233       0.08333325       0.70512613 </v>
    <v>       0.11111099       0.16666674       0.20514467 </v>
    <v>       0.77777765       0.41666674       0.29487388 </v>
    <v>       0.88888899       0.33333325       0.79485533 </v>
    <v>       0.11111099       0.66666674       0.20514467 </v>
    <v>       0.55555566       0.83333325       0.70512613 </v>
    <v>       0.88888899       0.33333325       0.70512613 </v>
    <v>       0.22222233       0.08333325       0.79485533 </v>
    <v>       0.11111099       0.16666674       0.29487388 </v>
    <v>       0.77777765       0.66666674       0.29487388 </v>
    <v>       0.88888899       0.58333325       0.79485533 </v>
    <v>       0.77777765       0.66666674       0.20514467 </v>
    <v>       0.88888899       0.58333325       0.70512613 </v>
    <v>       0.77777765       0.91666674       0.29487388 </v>
    <v>       0.88888899       0.83333325       0.79485533 </v>
    <v>       0.77777765       0.41666674       0.20514467 </v>
    <v>       0.44444432       0.91666674       0.20514467 </v>
    <v>       0.44444432       0.91666674       0.29487388 </v>
    <v>       0.22222233       0.58333325       0.70512613 </v>
    <v>       0.22222233       0.58333325       0.79485533 </v>
    <v>       0.11111099       0.91666674       0.29487388 </v>
    <v>       0.22222233       0.83333325       0.79485533 </v>
    <v>       0.11111099       0.91666674       0.20514467 </v>
    <v>       0.22222233       0.83333325       0.70512613 </v>
    <v>       0.11111099       0.66666674       0.29487388 </v>
    <v>       0.77777765       0.91666674       0.20514467 </v>
    <v>       0.44444432       0.16666674       0.29487388 </v>
    <v>       0.55555566       0.08333325       0.79485533 </v>
    <v>       0.44444432       0.16666674       0.20514467 </v>
    <v>       0.55555566       0.08333325       0.70512613 </v>
    <v>       0.44444432       0.41666674       0.29487388 </v>
    <v>       0.55555566       0.33333325       0.79485533 </v>
    <v>       0.44444432       0.41666674       0.20514467 </v>
    <v>       0.55555566       0.33333325       0.70512613 </v>
    <v>       0.22222233       0.33333325       0.70512613 </v>
    <v>       0.11111099       0.41666674       0.20514467 </v>
    <v>       0.44444432       0.66666674       0.29487388 </v>
    <v>       0.55555566       0.58333325       0.79485533 </v>
    <v>       0.44444432       0.66666674       0.20514467 </v>
    <v>       0.55555566       0.58333325       0.70512613 </v>
    <v>       0.22222233       0.33333325       0.79485533 </v>
    <v>       0.11111099       0.41666674       0.29487388 </v>
    <v>       0.55555566       0.83333325       0.79485533 </v>
    <v>       0.88888899       0.83333325       0.70512613 </v>
   </varray>
  </structure>
  <varray name="forces" >
   <v>      -0.00745777      -0.00387896       0.07523979 </v>
   <v>      -0.01661620      -0.01298777       0.05206887 </v>
   <v>      -0.00062634      -0.01998873       0.05082907 </v>
   <v>       0.01481515       0.00947342       0.05269129 </v>
   <v>      -0.02041314       0.01629609       0.05515254 </v>
   <v>      -0.03615641      -0.03701336      -0.04216532 </v>
   <v>       0.04968509      -0.00576538      -0.03824241 </v>
   <v>      -0.00699342       0.05699128      -0.05628602 </v>
   <v>       0.03832462      -0.02290810       0.02317059 </v>
   <v>       0.03914388      -0.03772594       0.01846992 </v>
   <v>       0.00449340       0.00054432      -0.04138930 </v>
   <v>      -0.00590402       0.00172367      -0.00395464 </v>
   <v>       0.00216930       0.00336117      -0.01492220 </v>
   <v>      -0.01438515      -0.00172609      -0.03078520 </v>
   <v>       0.00973643       0.00538849      -0.01904436 </v>
   <v>       0.01750071       0.00559815      -0.00628660 </v>
   <v>      -0.00603019      -0.00346909      -0.00243496 </v>
   <v>       0.00265467      -0.00525990      -0.00515557 </v>
   <v>       0.00629102       0.00164842      -0.00232857 </v>
   <v>      -0.00155647       0.00516148      -0.00204492 </v>
   <v>       0.00265831       0.03133712       0.00363668 </v>
   <v>       0.02060195       0.17578540      -0.00254450 </v>
   <v>       0.02123626       0.17609577      -0.00271408 </v>
   <v>      -0.01123243      -0.16077070       0.01099124 </v>
   <v>       0.02141626       0.17580671      -0.00272481 </v>
   <v>      -0.01110785      -0.17022370      -0.02738754 </v>
   <v>       0.02086137       0.17564836      -0.00263471 </v>
   <v>      -0.02003777      -0.17817708      -0.00672462 </v>
   <v>       0.02191445       0.17625298      -0.00222637 </v>
   <v>      -0.00622186      -0.18336550      -0.00495074 </v>
   <v>      -0.01822504      -0.13718190       0.04085965 </v>
   <v>       0.02246222       0.17572737      -0.00288937 </v>
   <v>       0.01762496      -0.19088684       0.00789093 </v>
   <v>       0.02273128       0.17532043      -0.00230396 </v>
   <v>      -0.00451924      -0.17273749      -0.00182587 </v>
   <v>      -0.02190470      -0.18034452       0.00899514 </v>
   <v>       0.02245268       0.17587146      -0.00188816 </v>
   <v>       0.01491868       0.17712805      -0.00276009 </v>
   <v>      -0.02382686      -0.17804729      -0.01687097 </v>
   <v>       0.01462705       0.17765314      -0.00262237 </v>
   <v>      -0.01914515      -0.16446370       0.00786289 </v>
   <v>       0.01511849       0.17770835      -0.00217392 </v>
   <v>       0.01522120       0.17726205      -0.00246501 </v>
   <v>      -0.01732904      -0.18453914       0.00842498 </v>
   <v>      -0.05906178      -0.18919345       0.00301241 </v>
   <v>      -0.01106091      -0.08870451      -0.20475128 </v>
   <v>       0.00985577       0.08851336      -0.19145474 </v>
   <v>      -0.01110778      -0.08865955       0.20622855 </v>
   <v>       0.00665621       0.08790287       0.19411425 </v>
   <v>       0.00882376       0.08806160       0.19556533 </v>
   <v>      -0.01016714      -0.08857481       0.20637457 </v>
   <v>      -0.01108195      -0.08868737      -0.20455791 </v>
   <v>      -0.00115205       0.09489106      -0.17296032 </v>
   <v>      -0.01038574      -0.08901256       0.20600953 </v>
   <v>       0.00665573       0.08393836       0.19608212 </v>
   <v>       0.00897195       0.08811522       0.19374557 </v>
   <v>       0.00901319       0.08961567      -0.19097466 </v>
   <v>      -0.01012826      -0.08855116      -0.20482220 </v>
   <v>      -0.01105783      -0.08878777      -0.20460007 </v>
   <v>      -0.01158028       0.13149768      -0.33983260 </v>
   <v>      -0.01094831      -0.08920886       0.20581976 </v>
   <v>       0.00682072       0.08841573       0.18489535 </v>
   <v>      -0.01113634      -0.08876504      -0.20479768 </v>
   <v>       0.01120412       0.07285006      -0.17510117 </v>
   <v>      -0.01106275      -0.08865226       0.20578210 </v>
   <v>      -0.01030785      -0.08908054       0.20642208 </v>
   <v>      -0.01032525      -0.08873280      -0.20476554 </v>
   <v>       0.00983985       0.08361318       0.19442959 </v>
   <v>       0.00118404       0.08333957      -0.16249822 </v>
   <v>      -0.01010536      -0.08859876      -0.20482573 </v>
   <v>       0.00157641       0.07233396      -0.17399533 </v>
   <v>      -0.01017802      -0.08902629       0.20639269 </v>
   <v>       0.00831209       0.08749588       0.19447210 </v>
   <v>      -0.01014843      -0.08860976      -0.20462074 </v>
   <v>      -0.01100902      -0.08924051       0.20629179 </v>
   <v>      -0.01030709      -0.08871330      -0.20480088 </v>
   <v>       0.00848619       0.09198632      -0.18562142 </v>
   <v>      -0.01021128      -0.08866008       0.20632874 </v>
   <v>       0.00871484       0.08903092       0.19655461 </v>
   <v>      -0.01029841      -0.08870319      -0.20464014 </v>
   <v>      -0.00095890       0.07416556      -0.23475240 </v>
   <v>      -0.01006126      -0.08862358       0.20591374 </v>
   <v>       0.00685468       0.08890917       0.19286420 </v>
   <v>       0.00931742       0.08758093       0.19183477 </v>
   <v>      -0.01031791      -0.08849888       0.20599837 </v>
   <v>      -0.01033242      -0.08875993      -0.20471008 </v>
   <v>      -0.00043141       0.10018682      -0.20507375 </v>
   <v>      -0.01013282      -0.08905949       0.20606862 </v>
   <v>       0.00700412       0.08418035       0.19298267 </v>
   <v>       0.00970613       0.09081678      -0.18626300 </v>
   <v>      -0.01012133      -0.08850044      -0.20472356 </v>
   <v>       0.01029662       0.08307115      -0.18540523 </v>
   <v>       0.00691366       0.08677017       0.19282870 </v>
  </varray>
  <varray name="stress" >
   <v>       0.15402649      -0.01222260       0.02158664 </v>
   <v>      -0.01222259      -7.54739094      -0.12497998 </v>
   <v>       0.02158663      -0.12498001      -6.47459020 </v>
  </varray>
  <energy>
   <i name="e_fr_energy">   -673.22792044 </i>
   <i name="e_wo_entrp">   -673.16022346 </i>
   <i name="e_0_energy">     -0.13539396 </i>
  </energy>
  <time name="totalsc">  477.68  480.94</time>
 </calculation>
 <calculation>
  <scstep>
   <time name="dav">    5.89    5.90</time>
   <time name="total">    6.91    6.94</time>
   <energy>
    <i name="alphaZ">    562.39184220 </i>
    <i name="ewald">  40774.42903712 </i>
    <i name="hartreedc"> -60177.46839770 </i>
    <i name="XCdc">   -699.10598882 </i>
    <i name="pawpsdc">  42731.14979596 </i>
    <i name="pawaedc"> -40898.85551779 </i>
    <i name="eentropy">     -0.16290664 </i>
    <i name="bandstr">  -3331.00746107 </i>
    <i name="atom">  20380.58938199 </i>
    <i name="e_fr_energy">   -658.04021474 </i>
    <i name="e_wo_entrp">   -657.87730810 </i>
    <i name="e_0_energy">   -657.95876142 </i>
   </energy>
  </scstep>
  <scstep>
   <time name="dav">    7.18    7.21</time>
   <time name="total">    8.14    8.18</time>
   <energy>
    <i name="e_fr_energy">   -658.55297478 </i>
    <i name="e_wo_entrp">   -658.46246166 </i>
    <i name="e_0_energy">   -658.50771822 </i>
   </energy>
  </scstep>
  <scstep>
   <time name="dav">    7.35    7.37</time>
   <time name="total">    8.31    8.34</time>
   <energy>
    <i name="e_fr_energy">   -658.12222610 </i>
    <i name="e_wo_entrp">   -658.01953833 </i>
    <i name="e_0_energy">   -658.07088222 </i>
   </energy>
  </scstep>
  <scstep>
   <time name="dav">    7.50    7.52</time>
   <time name="total">    8.48    8.51</time>
   <energy>
    <i name="e_fr_energy">   -658.11906148 </i>
    <i name="e_wo_entrp">   -658.04926131 </i>
    <i name="e_0_energy">   -658.08416140 </i>
   </energy>
  </scstep>
  <scstep>
   <time name="dav">    7.42    7.45</time>
   <time name="total">    8.40    8.44</time>
   <energy>
    <i name="e_fr_energy">   -658.09190456 </i>
    <i name="e_wo_entrp">   -657.97617646 </i>
    <i name="e_0_energy">   -658.03404051 </i>
   </energy>
  </scstep>
  <scstep>
   <time name="dav">    6.88    7.23</time>
   <time name="total">    7.83    8.23</time>
   <energy>
    <i name="e_fr_energy">   -658.09346883 </i>
    <i name="e_wo_entrp">   -658.00992590 </i>
    <i name="e_0_energy">   -658.05169737 </i>
   </energy>
  </scstep>
  <scstep>
   <time name="dav">    6.74    6.87</time>
   <time name="total">    7.72    7.89</time>
   <energy>
    <i name="e_fr_energy">   -658.07552476 </i>
    <i name="e_wo_entrp">   -657.93775679 </i>
    <i name="e_0_energy">   -658.00664077 </i>
   </energy>
  </scstep>
  <scstep>
   <time name="dav">    6.78    6.80</time>
   <time name="total">    7.78    7.81</time>
   <energy>
    <i name="e_fr_energy">   -658.07391957 </i>
    <i name="e_wo_entrp">   -657.96781703 </i>
    <i name="e_0_energy">   -658.02086830 </i>
   </energy>
  </scstep>
  <scstep>
   <time name="dav">    6.71    6.73</time>
   <time name="total">    7.71    7.73</time>
   <energy>
    <i name="e_fr_energy">   -658.06892821 </i>
    <i name="e_wo_entrp">   -657.94253519 </i>
    <i name="e_0_energy">   -658.00573170 </i>
   </energy>
  </scstep>
  <scstep>
   <time name="dav">    6.95    6.97</time>
   <time name="total">    7.96    7.99</time>
   <energy>
    <i name="e_fr_energy">   -658.06963545 </i>
    <i name="e_wo_entrp">   -657.94010419 </i>
    <i name="e_0_energy">   -658.00486982 </i>
   </energy>
  </scstep>
  <scstep>
   <time name="dav">    5.74    5.76</time>
   <time name="total">    6.74    6.77</time>
   <energy>
    <i name="e_fr_energy">   -658.06733312 </i>
    <i name="e_wo_entrp">   -657.94126663 </i>
    <i name="e_0_energy">   -658.00429988 </i>
   </energy>
  </scstep>
  <scstep>
   <time name="dav">    4.70    4.72</time>
   <time name="total">    5.71    5.73</time>
   <energy>
    <i name="e_fr_energy">   -658.06738022 </i>
    <i name="e_wo_entrp">   -657.94289452 </i>
    <i name="e_0_energy">   -658.00513737 </i>
   </energy>
  </scstep>
  <scstep>
   <time name="dav">    4.44    4.46</time>
   <time name="total">    5.45    5.47</time>
   <energy>
    <i name="e_fr_energy">   -658.06694466 </i>
    <i name="e_wo_entrp">   -657.94276163 </i>
    <i name="e_0_energy">   -658.00485314 </i>
   </energy>
  </scstep>
  <scstep>
   <time name="dav">    4.61    4.63</time>
   <time name="total">    5.62    5.64</time>
   <energy>
    <i name="e_fr_energy">   -658.06690737 </i>
    <i name="e_wo_entrp">   -657.94564069 </i>
    <i name="e_0_energy">   -658.00627403 </i>
   </energy>
  </scstep>
  <scstep>
   <time name="dav">    4.02    4.23</time>
   <time name="total">    4.43    4.64</time>
   <energy>
    <i name="alphaZ">    562.39184220 </i>
    <i name="ewald">  40774.42903712 </i>
    <i name="hartreedc"> -60177.77097515 </i>
    <i name="XCdc">   -699.13246606 </i>
    <i name="pawpsdc">  43092.73728990 </i>
    <i name="pawaedc"> -41261.06338909 </i>
    <i name="eentropy">     -0.12132612 </i>
    <i name="bandstr">  -3330.12625162 </i>
    <i name="atom">  20380.58938199 </i>
    <i name="e_fr_energy">   -658.06685684 </i>
    <i name="e_wo_entrp">   -657.94553072 </i>
    <i name="e_0_energy">   -658.00619378 </i>
   </energy>
  </scstep>
  <structure>
   <crystal>
    <varray name="basis" >
     <v>       9.57094646       0.00000000       0.00000000 </v>
     <v>      -6.38062803      11.05157872       0.00000000 </v>
     <v>       0.00000000       0.00000000      34.88026251 </v>
    </varray>
    <i name="volume">   3689.42726549 </i>
    <varray name="rec_basis" >
     <v>       0.10448287       0.06032318       0.00000000 </v>
     <v>       0.00000000       0.09048481       0.00000000 </v>
     <v>       0.00000000       0.00000000       0.02866951 </v>
    </varray>
   </crystal>
   <varray name="positions" >
    <v>       0.66266610       0.43744618       0.98471980 </v>
    <v>       0.67807326       0.55415805       0.98603355 </v>
    <v>       0.82017891       0.45144517       0.98583658 </v>
    <v>       0.93585286       0.57904311       0.98807153 </v>
    <v>       0.84638603       0.64279092       0.98811175 </v>
    <v>       0.69811108       0.54793423       0.88405768 </v>
    <v>       0.97771592       0.64653043       0.89059356 </v>
    <v>       0.84067618       0.66471972       0.89056248 </v>
    <v>       0.92081723       0.52125191       0.88410677 </v>
    <v>       0.74989487       0.46030541       0.88018426 </v>
    <v>       0.81102576       0.54768612       0.93604926 </v>
    <v>       0.89726997       0.74017348       0.98990870 </v>
    <v>       0.84411769       0.75052413       0.89383449 </v>
    <v>       0.99448720       0.47853596       0.88413661 </v>
    <v>       0.10245354       0.71594824       0.89539742 </v>
    <v>       0.57520418       0.53025517       0.88170920 </v>
    <v>       0.57941397       0.57311870       0.98427670 </v>
    <v>       0.55012812       0.35229667       0.98132358 </v>
    <v>       0.84773849       0.37853291       0.98482529 </v>
    <v>       0.06588865       0.61945598       0.99046730 </v>
    <v>       0.67177088       0.36375626       0.87595688 </v>
    <v>       0.55617107       0.08410059       0.25000576 </v>
    <v>       0.55617517       0.33410195       0.25000553 </v>
    <v>       0.44391984       0.41596494       0.75000596 </v>
    <v>       0.55617523       0.58410068       0.25000551 </v>
    <v>       0.44389295       0.66592368       0.74995288 </v>
    <v>       0.55617197       0.83409999       0.25000564 </v>
    <v>       0.44382480       0.91588896       0.74998146 </v>
    <v>       0.88951238       0.33410263       0.25000620 </v>
    <v>       0.77721267       0.16586631       0.74998391 </v>
    <v>       0.77728657       0.41606791       0.75004727 </v>
    <v>       0.88951361       0.58410034       0.25000529 </v>
    <v>       0.77731098       0.66583348       0.75000167 </v>
    <v>       0.88951378       0.83409856       0.25000610 </v>
    <v>       0.77725218       0.91591270       0.74998823 </v>
    <v>       0.11047575       0.91587950       0.75000320 </v>
    <v>       0.88951398       0.08410097       0.25000667 </v>
    <v>       0.22281299       0.83410645       0.25000547 </v>
    <v>       0.44380607       0.16588953       0.74996742 </v>
    <v>       0.22281305       0.58410874       0.25000566 </v>
    <v>       0.11053587       0.41594882       0.75000163 </v>
    <v>       0.22281569       0.33410898       0.25000628 </v>
    <v>       0.22281491       0.08410704       0.25000587 </v>
    <v>       0.11048660       0.16586119       0.75000241 </v>
    <v>       0.11026270       0.66584087       0.74999492 </v>
    <v>       0.77746376       0.16627953       0.29459069 </v>
    <v>       0.88919626       0.08371963       0.79459053 </v>
    <v>       0.77746365       0.16627972       0.20542990 </v>
    <v>       0.88917835       0.08371696       0.70539461 </v>
    <v>       0.22252307       0.08371766       0.70539662 </v>
    <v>       0.11080197       0.16628009       0.20543011 </v>
    <v>       0.77746370       0.41627960       0.29459096 </v>
    <v>       0.88915933       0.33374747       0.79461611 </v>
    <v>       0.11079960       0.66627818       0.20542960 </v>
    <v>       0.55583348       0.83369966       0.70539733 </v>
    <v>       0.88919064       0.33371789       0.70539410 </v>
    <v>       0.22252855       0.08372444       0.79459119 </v>
    <v>       0.11080224       0.16628020       0.29459059 </v>
    <v>       0.77746353       0.66627916       0.29459090 </v>
    <v>       0.88921330       0.58390726       0.79438531 </v>
    <v>       0.77746286       0.66627733       0.20542934 </v>
    <v>       0.88918068       0.58371920       0.70538186 </v>
    <v>       0.77746320       0.91627926       0.29459063 </v>
    <v>       0.88915747       0.83365125       0.79461315 </v>
    <v>       0.77746390       0.41627976       0.20542929 </v>
    <v>       0.44413312       0.91627789       0.20543017 </v>
    <v>       0.44413405       0.91627940       0.29459067 </v>
    <v>       0.22251525       0.58369824       0.70539505 </v>
    <v>       0.22247082       0.58369704       0.79463058 </v>
    <v>       0.11080221       0.91627999       0.29459059 </v>
    <v>       0.22244077       0.83364900       0.79461468 </v>
    <v>       0.11080060       0.91627812       0.20543013 </v>
    <v>       0.22251885       0.83371519       0.70539511 </v>
    <v>       0.11080196       0.66627994       0.29459087 </v>
    <v>       0.77746246       0.91627719       0.20542999 </v>
    <v>       0.44413420       0.16627949       0.29459062 </v>
    <v>       0.55586613       0.08373479       0.79459860 </v>
    <v>       0.44413483       0.16627972       0.20543004 </v>
    <v>       0.55585868       0.08372189       0.70539799 </v>
    <v>       0.44413427       0.41627953       0.29459085 </v>
    <v>       0.55576666       0.33365700       0.79453064 </v>
    <v>       0.44413570       0.41627988       0.20542947 </v>
    <v>       0.55584895       0.33372136       0.70539288 </v>
    <v>       0.22252416       0.33371556       0.70539146 </v>
    <v>       0.11080143       0.41628043       0.20542959 </v>
    <v>       0.44413393       0.66627929       0.29459075 </v>
    <v>       0.55584504       0.58377059       0.79457169 </v>
    <v>       0.44413407       0.66627798       0.20542968 </v>
    <v>       0.55583594       0.58370071       0.70539305 </v>
    <v>       0.22253554       0.33372968       0.79459771 </v>
    <v>       0.11080242       0.41628042       0.29459073 </v>
    <v>       0.55584931       0.83369587       0.79459890 </v>
    <v>       0.88917636       0.83371202       0.70539283 </v>
   </varray>
  </structure>
  <varray name="forces" >
   <v>       0.02644341       0.00373814      -0.00932455 </v>
   <v>       0.04813513       0.03160747      -0.01594876 </v>
   <v>      -0.01641980       0.09369196      -0.00563521 </v>
   <v>      -0.12671504      -0.04445480      -0.01761247 </v>
   <v>       0.04590733      -0.10925765      -0.01846680 </v>
   <v>       0.23358130       0.08437158       0.04555672 </v>
   <v>      -0.11470415      -0.02846504       0.00296309 </v>
   <v>       0.09262830      -0.23184690      -0.03016568 </v>
   <v>      -0.08743967       0.03195765       0.04894340 </v>
   <v>      -0.03329437       0.13649358       0.06872411 </v>
   <v>      -0.01829209       0.00745436       0.04034378 </v>
   <v>      -0.01319870       0.02724755       0.00440996 </v>
   <v>      -0.02708420       0.07002638      -0.01341335 </v>
   <v>       0.06528221      -0.03733742      -0.02460307 </v>
   <v>       0.03487879       0.01662545      -0.01765565 </v>
   <v>      -0.07692349      -0.02272957      -0.02101690 </v>
   <v>      -0.00980433      -0.00632317       0.00642918 </v>
   <v>       0.00703438       0.00631822       0.00772416 </v>
   <v>       0.00942505      -0.00804924       0.00624153 </v>
   <v>       0.02386239       0.01645688       0.00654210 </v>
   <v>       0.00375876      -0.06671375      -0.00869099 </v>
   <v>      -0.01695331      -0.08115852       0.00234057 </v>
   <v>      -0.01713526      -0.08099736       0.00231920 </v>
   <v>      -0.00251422       0.07852359      -0.01193923 </v>
   <v>      -0.01715700      -0.08116001       0.00241477 </v>
   <v>      -0.00103855       0.08208586       0.00875499 </v>
   <v>      -0.01706744      -0.08120141       0.00238888 </v>
   <v>       0.00657590       0.07284343       0.01676892 </v>
   <v>      -0.01956408      -0.08159501       0.00170495 </v>
   <v>       0.00218355       0.08894379       0.01101539 </v>
   <v>       0.01033737       0.06261583      -0.04176404 </v>
   <v>      -0.01968480      -0.08171177       0.00203005 </v>
   <v>      -0.02951413       0.10307113      -0.04211527 </v>
   <v>      -0.01972810      -0.08177572       0.00183666 </v>
   <v>       0.00732048       0.07325861       0.01101571 </v>
   <v>       0.01366758       0.07986449       0.00818411 </v>
   <v>      -0.01969537      -0.08165726       0.00158101 </v>
   <v>      -0.01349212      -0.08198703       0.00235479 </v>
   <v>       0.01504269       0.07366382      -0.00561980 </v>
   <v>      -0.01338722      -0.08185391       0.00220172 </v>
   <v>       0.01052086       0.07673848       0.00954814 </v>
   <v>      -0.01351099      -0.08160523       0.00194340 </v>
   <v>      -0.01358638      -0.08175803       0.00213524 </v>
   <v>       0.01240594       0.08741322       0.00205947 </v>
   <v>       0.04487743       0.09678506      -0.02877254 </v>
   <v>       0.00835763       0.04004759      -0.00735051 </v>
   <v>      -0.00327512      -0.04193702      -0.01377195 </v>
   <v>       0.00857062       0.04019233       0.00575873 </v>
   <v>      -0.00053467      -0.04133855       0.01176124 </v>
   <v>      -0.01090490      -0.04471792       0.01532553 </v>
   <v>       0.00718874       0.04143429       0.00442368 </v>
   <v>       0.00844918       0.04022629      -0.00726259 </v>
   <v>      -0.00572948      -0.03639477      -0.00466582 </v>
   <v>       0.00708005       0.04123289       0.00367135 </v>
   <v>      -0.00250997      -0.03640703       0.01084274 </v>
   <v>      -0.00953764      -0.03147161       0.03281515 </v>
   <v>      -0.00305647      -0.04038884      -0.01542482 </v>
   <v>       0.00727239       0.04150038      -0.00599368 </v>
   <v>       0.00866754       0.03987087      -0.00738999 </v>
   <v>      -0.01487278      -0.01900601      -0.02218610 </v>
   <v>       0.00876827       0.03991322       0.00501155 </v>
   <v>      -0.00708614      -0.04626377      -0.00860929 </v>
   <v>       0.00854169       0.03989315      -0.00740861 </v>
   <v>      -0.00257625      -0.04809318      -0.00698157 </v>
   <v>       0.00859642       0.04020668       0.00498015 </v>
   <v>       0.00754707       0.03994198       0.00549460 </v>
   <v>       0.00758642       0.03999642      -0.00775234 </v>
   <v>      -0.01317356      -0.04251454       0.01968915 </v>
   <v>      -0.00922661      -0.03475419      -0.01257089 </v>
   <v>       0.00726240       0.04136299      -0.00605236 </v>
   <v>      -0.00935738      -0.04905364      -0.01122412 </v>
   <v>       0.00715138       0.04114127       0.00400777 </v>
   <v>      -0.01265180      -0.04269671       0.01976104 </v>
   <v>       0.00705031       0.04144273      -0.00616917 </v>
   <v>       0.00874286       0.03992555       0.00577713 </v>
   <v>       0.00766959       0.04017483      -0.00759981 </v>
   <v>      -0.00701926      -0.03851448      -0.02253521 </v>
   <v>       0.00761078       0.04024037       0.00539014 </v>
   <v>      -0.00240482      -0.04100499       0.01303442 </v>
   <v>       0.00782813       0.04019381      -0.00763844 </v>
   <v>      -0.01219843      -0.04680856      -0.02213415 </v>
   <v>       0.00772023       0.04018400       0.00532490 </v>
   <v>      -0.00008544      -0.02812997       0.02384133 </v>
   <v>      -0.00402008      -0.03742168       0.02713440 </v>
   <v>       0.00709923       0.04150977       0.00415078 </v>
   <v>       0.00768243       0.04002861      -0.00783470 </v>
   <v>      -0.00934162      -0.02839165      -0.01977742 </v>
   <v>       0.00763529       0.03991490       0.00540831 </v>
   <v>       0.00340733      -0.04190419       0.01320991 </v>
   <v>      -0.00438716      -0.03700478      -0.01382134 </v>
   <v>       0.00706964       0.04159741      -0.00607374 </v>
   <v>      -0.00283239      -0.04341140      -0.02482382 </v>
   <v>       0.00026233      -0.04270058       0.01850670 </v>
  </varray>
  <varray name="stress" >
   <v>       3.82817573       0.07951660       0.10230806 </v>
   <v>       0.07951664      -5.56725984      -0.02659707 </v>
   <v>       0.10230801      -0.02659715      -1.64164718 </v>
  </varray>
  <energy>
   <i name="e_fr_energy">   -673.28912800 </i>
   <i name="e_wo_entrp">   -673.22846493 </i>
   <i name="e_0_energy">     -0.12132612 </i>
  </energy>
  <time name="totalsc">  117.90  119.19</time>
 </calculation>
 <calculation>
  <scstep>
   <time name="dav">    5.77    5.81</time>
   <time name="total">    6.78    6.83</time>
   <energy>
    <i name="alphaZ">    562.39184220 </i>
    <i name="ewald">  40742.13380238 </i>
    <i name="hartreedc"> -60146.81580717 </i>
    <i name="XCdc">   -699.28247947 </i>
    <i name="pawpsdc">  43092.80910469 </i>
    <i name="pawaedc"> -41261.13447888 </i>
    <i name="eentropy">     -0.11924759 </i>
    <i name="bandstr">  -3328.64235684 </i>
    <i name="atom">  20380.58938199 </i>
    <i name="e_fr_energy">   -658.07023870 </i>
    <i name="e_wo_entrp">   -657.95099111 </i>
    <i name="e_0_energy">   -658.01061490 </i>
   </energy>
  </scstep>
  <scstep>
   <time name="dav">    6.69    6.72</time>
   <time name="total">    7.69    7.73</time>
   <energy>
    <i name="e_fr_energy">   -658.07187486 </i>
    <i name="e_wo_entrp">   -657.94216614 </i>
    <i name="e_0_energy">   -658.00702050 </i>
   </energy>
  </scstep>
  <scstep>
   <time name="dav">    7.45    7.48</time>
   <time name="total">    8.45    8.49</time>
   <energy>
    <i name="e_fr_energy">   -658.07524380 </i>
    <i name="e_wo_entrp">   -657.96637591 </i>
    <i name="e_0_energy">   -658.02080986 </i>
   </energy>
  </scstep>
  <scstep>
   <time name="dav">    6.70    6.72</time>
   <time name="total">    7.69    7.73</time>
   <energy>
    <i name="e_fr_energy">   -658.07164598 </i>
    <i name="e_wo_entrp">   -657.95340012 </i>
    <i name="e_0_energy">   -658.01252305 </i>
   </energy>
  </scstep>
  <scstep>
   <time name="dav">    5.15    5.17</time>
   <time name="total">    6.15    6.17</time>
   <energy>
    <i name="e_fr_energy">   -658.07129324 </i>
    <i name="e_wo_entrp">   -657.95307198 </i>
    <i name="e_0_energy">   -658.01218261 </i>
   </energy>
  </scstep>
  <scstep>
   <time name="dav">    5.47    5.49</time>
   <time name="total">    6.47    6.50</time>
   <energy>
    <i name="e_fr_energy">   -658.07125351 </i>
    <i name="e_wo_entrp">   -657.94726475 </i>
    <i name="e_0_energy">   -658.00925913 </i>
   </energy>
  </scstep>
  <scstep>
   <time name="dav">    4.44    4.57</time>
   <time name="total">    5.38    5.58</time>
   <energy>
    <i name="e_fr_energy">   -658.07147033 </i>
    <i name="e_wo_entrp">   -657.94628962 </i>
    <i name="e_0_energy">   -658.00887997 </i>
   </energy>
  </scstep>
  <scstep>
   <time name="dav">    4.47    4.65</time>
   <time name="total">    5.47    5.91</time>
   <energy>
    <i name="e_fr_energy">   -658.07102662 </i>
    <i name="e_wo_entrp">   -657.95049913 </i>
    <i name="e_0_energy">   -658.01076287 </i>
   </energy>
  </scstep>
  <scstep>
   <time name="dav">    3.89    4.23</time>
   <time name="total">    4.88    5.41</time>
   <energy>
    <i name="e_fr_energy">   -658.07102344 </i>
    <i name="e_wo_entrp">   -657.95061011 </i>
    <i name="e_0_energy">   -658.01081678 </i>
   </energy>
  </scstep>
  <scstep>
   <time name="dav">    4.03    4.04</time>
   <time name="total">    5.03    5.06</time>
   <energy>
    <i name="e_fr_energy">   -658.07097980 </i>
    <i name="e_wo_entrp">   -657.95034736 </i>
    <i name="e_0_energy">   -658.01066358 </i>
   </energy>
  </scstep>
  <scstep>
   <time name="dav">    4.03    4.05</time>
   <time name="total">    4.44    4.46</time>
   <energy>
    <i name="alphaZ">    562.39184220 </i>
    <i name="ewald">  40742.13380238 </i>
    <i name="hartreedc"> -60146.62176493 </i>
    <i name="XCdc">   -699.28000171 </i>
    <i name="pawpsdc">  43040.89027218 </i>
[...]
       <r>   -17.3705     0.0000     4.0000 </r>
       <r>   -17.2983     0.0000     4.0000 </r>
       <r>   -17.2261     0.0000     4.0000 </r>
       <r>   -17.1539     0.0000     4.0000 </r>
       <r>   -17.0817     0.0000     4.0000 </r>
       <r>   -17.0095     0.0000     4.0000 </r>
       <r>   -16.9373     0.0000     4.0000 </r>
       <r>   -16.8651     0.0000     4.0000 </r>
       <r>   -16.7929     0.0000     4.0000 </r>
       <r>   -16.7206     0.0000     4.0000 </r>
       <r>   -16.6484     0.0000     4.0000 </r>
       <r>   -16.5762     0.0000     4.0000 </r>
       <r>   -16.5040     0.0000     4.0000 </r>
       <r>   -16.4318     0.0000     4.0000 </r>
       <r>   -16.3596     0.0000     4.0000 </r>
       <r>   -16.2874     0.0000     4.0000 </r>
       <r>   -16.2152     0.0000     4.0000 </r>
       <r>   -16.1430     0.0000     4.0000 </r>
       <r>   -16.0708     0.0006     4.0000 </r>
       <r>   -15.9986     0.0350     4.0026 </r>
       <r>   -15.9264     0.7381     4.0559 </r>
       <r>   -15.8542     5.8503     4.4783 </r>
       <r>   -15.7820    17.6408     5.7520 </r>
       <r>   -15.7098    20.4139     7.2260 </r>
       <r>   -15.6376     9.0773     7.8815 </r>
       <r>   -15.5654     1.5406     7.9927 </r>
       <r>   -15.4932     0.0986     7.9998 </r>
       <r>   -15.4210     0.0023     8.0000 </r>
       <r>   -15.3487     0.0000     8.0000 </r>
       <r>   -15.2765     0.0027     8.0002 </r>
       <r>   -15.2043     0.1301     8.0096 </r>
       <r>   -15.1321     2.2996     8.1756 </r>
       <r>   -15.0599    15.3083     9.2810 </r>
       <r>   -14.9877    38.8551    12.0865 </r>
       <r>   -14.9155    38.0207    14.8318 </r>
       <r>   -14.8433    16.6012    16.0305 </r>
       <r>   -14.7711    17.8327    17.3181 </r>
       <r>   -14.6989    40.6045    20.2500 </r>
       <r>   -14.6267    49.8054    23.8462 </r>
       <r>   -14.5545    58.9834    28.1051 </r>
       <r>   -14.4823    66.0226    32.8723 </r>
       <r>   -14.4101    35.3061    35.4216 </r>
       <r>   -14.3379     8.3391    36.0237 </r>
       <r>   -14.2657     9.2869    36.6943 </r>
       <r>   -14.1935    33.3221    39.1003 </r>
       <r>   -14.1213    64.4663    43.7551 </r>
       <r>   -14.0491   105.9155    51.4028 </r>
       <r>   -13.9768   144.8065    61.8586 </r>
       <r>   -13.9046   116.5847    70.2766 </r>
       <r>   -13.8324    89.9195    76.7693 </r>
       <r>   -13.7602   120.1810    85.4470 </r>
       <r>   -13.6880   133.3662    95.0767 </r>
       <r>   -13.6158   100.4524   102.3299 </r>
       <r>   -13.5436    56.0452   106.3767 </r>
       <r>   -13.4714    19.2647   107.7677 </r>
       <r>   -13.3992     3.0248   107.9861 </r>
       <r>   -13.3270     0.1878   107.9997 </r>
       <r>   -13.2548     0.0044   108.0000 </r>
       <r>   -13.1826     0.0000   108.0000 </r>
       <r>   -13.1104     0.0000   108.0000 </r>
       <r>   -13.0382     0.0000   108.0000 </r>
       <r>   -12.9660     0.0000   108.0000 </r>
       <r>   -12.8938     0.0000   108.0000 </r>
       <r>   -12.8216     0.0000   108.0000 </r>
       <r>   -12.7494     0.0000   108.0000 </r>
       <r>   -12.6772     0.0000   108.0000 </r>
       <r>   -12.6049     0.0000   108.0000 </r>
       <r>   -12.5327     0.0000   108.0000 </r>
       <r>   -12.4605     0.0000   108.0000 </r>
       <r>   -12.3883     0.0000   108.0000 </r>
       <r>   -12.3161     0.0000   108.0000 </r>
       <r>   -12.2439     0.0000   108.0000 </r>
       <r>   -12.1717     0.0000   108.0000 </r>
       <r>   -12.0995     0.0000   108.0000 </r>
       <r>   -12.0273     0.0000   108.0000 </r>
       <r>   -11.9551     0.0000   108.0000 </r>
       <r>   -11.8829     0.0000   108.0000 </r>
       <r>   -11.8107     0.0000   108.0000 </r>
       <r>   -11.7385     0.0000   108.0000 </r>
       <r>   -11.6663     0.0000   108.0000 </r>
       <r>   -11.5941     0.0000   108.0000 </r>
       <r>   -11.5219     0.0000   108.0000 </r>
       <r>   -11.4497     0.0000   108.0000 </r>
       <r>   -11.3775     0.0000   108.0000 </r>
       <r>   -11.3053     0.0000   108.0000 </r>
       <r>   -11.2330     0.0000   108.0000 </r>
       <r>   -11.1608     0.0000   108.0000 </r>
       <r>   -11.0886     0.0000   108.0000 </r>
       <r>   -11.0164     0.0000   108.0000 </r>
       <r>   -10.9442     0.0000   108.0000 </r>
       <r>   -10.8720     0.0000   108.0000 </r>
       <r>   -10.7998     0.0000   108.0000 </r>
       <r>   -10.7276     0.0000   108.0000 </r>
       <r>   -10.6554     0.0000   108.0000 </r>
       <r>   -10.5832     0.0000   108.0000 </r>
       <r>   -10.5110     0.0000   108.0000 </r>
       <r>   -10.4388     0.0000   108.0000 </r>
       <r>   -10.3666     0.0000   108.0000 </r>
       <r>   -10.2944     0.0000   108.0000 </r>
       <r>   -10.2222     0.0000   108.0000 </r>
       <r>   -10.1500     0.0000   108.0000 </r>
       <r>   -10.0778     0.0000   108.0000 </r>
       <r>   -10.0056     0.0000   108.0000 </r>
       <r>    -9.9334     0.0001   108.0000 </r>
       <r>    -9.8611     0.0098   108.0007 </r>
       <r>    -9.7889     0.2677   108.0201 </r>
       <r>    -9.7167     2.8418   108.2252 </r>
       <r>    -9.6445    12.2603   109.1105 </r>
       <r>    -9.5723    23.7278   110.8238 </r>
       <r>    -9.5001    27.7500   112.8275 </r>
       <r>    -9.4279    27.8500   114.8384 </r>
       <r>    -9.3557    22.4697   116.4608 </r>
       <r>    -9.2835    14.3563   117.4974 </r>
       <r>    -9.2113     6.7369   117.9839 </r>
       <r>    -9.1391     6.0205   118.4186 </r>
       <r>    -9.0669    10.4897   119.1760 </r>
       <r>    -8.9947     8.4538   119.7864 </r>
       <r>    -8.9225     2.6324   119.9765 </r>
       <r>    -8.8503     0.3117   119.9990 </r>
       <r>    -8.7781     0.0138   120.0000 </r>
       <r>    -8.7059     0.0002   120.0000 </r>
       <r>    -8.6337     0.0000   120.0000 </r>
       <r>    -8.5614     0.0000   120.0000 </r>
       <r>    -8.4892     0.0000   120.0000 </r>
       <r>    -8.4170     0.0000   120.0000 </r>
       <r>    -8.3448     0.0000   120.0000 </r>
       <r>    -8.2726     0.0000   120.0000 </r>
       <r>    -8.2004     0.0000   120.0000 </r>
       <r>    -8.1282     0.0000   120.0000 </r>
       <r>    -8.0560     0.0000   120.0000 </r>
       <r>    -7.9838     0.0000   120.0000 </r>
       <r>    -7.9116     0.0000   120.0000 </r>
       <r>    -7.8394     0.0000   120.0000 </r>
       <r>    -7.7672     0.0000   120.0000 </r>
       <r>    -7.6950     0.0046   120.0003 </r>
       <r>    -7.6228     0.1642   120.0122 </r>
       <r>    -7.5506     2.1938   120.1706 </r>
       <r>    -7.4784    11.1979   120.9791 </r>
       <r>    -7.4062    23.4168   122.6700 </r>
       <r>    -7.3340    26.5961   124.5903 </r>
       <r>    -7.2618    25.5790   126.4373 </r>
       <r>    -7.1895    16.6878   127.6422 </r>
       <r>    -7.1173     9.0117   128.2929 </r>
       <r>    -7.0451    29.8099   130.4453 </r>
       <r>    -6.9729    87.6592   136.7748 </r>
       <r>    -6.9007   119.9555   145.4362 </r>
       <r>    -6.8285    82.4744   151.3913 </r>
       <r>    -6.7563    70.6027   156.4892 </r>
       <r>    -6.6841   118.3196   165.0325 </r>
       <r>    -6.6119   130.6869   174.4688 </r>
       <r>    -6.5397    94.8603   181.3182 </r>
       <r>    -6.4675    59.0519   185.5821 </r>
       <r>    -6.3953    32.6938   187.9427 </r>
       <r>    -6.3231    17.8382   189.2308 </r>
       <r>    -6.2509     8.8315   189.8684 </r>
       <r>    -6.1787     6.3116   190.3242 </r>
       <r>    -6.1065    15.6227   191.4522 </r>
       <r>    -6.0343    22.6939   193.0908 </r>
       <r>    -5.9621    23.2424   194.7691 </r>
       <r>    -5.8899    46.4761   198.1249 </r>
       <r>    -5.8176    73.4911   203.4313 </r>
       <r>    -5.7454    62.1766   207.9208 </r>
       <r>    -5.6732    54.3902   211.8481 </r>
       <r>    -5.6010   126.8410   221.0067 </r>
       <r>    -5.5288   233.6372   237.8765 </r>
       <r>    -5.4566   211.6005   253.1552 </r>
       <r>    -5.3844   108.1636   260.9652 </r>
       <r>    -5.3122    62.2470   265.4597 </r>
       <r>    -5.2400    58.5622   269.6882 </r>
       <r>    -5.1678    47.8743   273.1450 </r>
       <r>    -5.0956    27.1602   275.1061 </r>
       <r>    -5.0234    20.8523   276.6118 </r>
       <r>    -4.9512    54.2602   280.5296 </r>
       <r>    -4.8790   104.7567   288.0936 </r>
       <r>    -4.8068    95.5422   294.9923 </r>
       <r>    -4.7346    71.8725   300.1819 </r>
       <r>    -4.6624    80.0356   305.9609 </r>
       <r>    -4.5902    82.9973   311.9537 </r>
       <r>    -4.5180    67.7542   316.8459 </r>
       <r>    -4.4457    39.0020   319.6621 </r>
       <r>    -4.3735    31.3406   321.9250 </r>
       <r>    -4.3013    52.7113   325.7310 </r>
       <r>    -4.2291    65.0326   330.4267 </r>
       <r>    -4.1569    60.8163   334.8180 </r>
       <r>    -4.0847    54.5330   338.7556 </r>
       <r>    -4.0125    46.4816   342.1118 </r>
       <r>    -3.9403    21.6995   343.6786 </r>
       <r>    -3.8681     4.2401   343.9848 </r>
       <r>    -3.7959     2.1765   344.1419 </r>
       <r>    -3.7237    13.7559   345.1352 </r>
       <r>    -3.6515    41.3282   348.1193 </r>
       <r>    -3.5793    68.1152   353.0376 </r>
       <r>    -3.5071   105.0749   360.6245 </r>
       <r>    -3.4349   143.8598   371.0120 </r>
       <r>    -3.3627   138.0785   380.9820 </r>
       <r>    -3.2905   108.3778   388.8074 </r>
       <r>    -3.2183    86.3885   395.0451 </r>
       <r>    -3.1461    70.6855   400.1490 </r>
       <r>    -3.0738    80.9639   405.9950 </r>
       <r>    -3.0016   107.7894   413.7780 </r>
       <r>    -2.9294   103.3113   421.2376 </r>
       <r>    -2.8572    62.8212   425.7736 </r>
       <r>    -2.7850    33.1394   428.1665 </r>
       <r>    -2.7128    41.4622   431.1603 </r>
       <r>    -2.6406    71.3750   436.3139 </r>
       <r>    -2.5684    78.4081   441.9754 </r>
       <r>    -2.4962    61.6456   446.4265 </r>
       <r>    -2.4240    52.3093   450.2036 </r>
       <r>    -2.3518    73.3566   455.5003 </r>
       <r>    -2.2796    79.7527   461.2589 </r>
       <r>    -2.2074    63.9120   465.8736 </r>
       <r>    -2.1352    51.6013   469.5995 </r>
       <r>    -2.0630    27.2277   471.5655 </r>
       <r>    -1.9908    11.6368   472.4058 </r>
       <r>    -1.9186    25.7694   474.2664 </r>
       <r>    -1.8464    43.4117   477.4010 </r>
       <r>    -1.7742    31.2493   479.6574 </r>
       <r>    -1.7019    19.8102   481.0878 </r>
       <r>    -1.6297    22.1947   482.6903 </r>
       <r>    -1.5575    14.1818   483.7143 </r>
       <r>    -1.4853     3.5948   483.9739 </r>
       <r>    -1.4131     0.3485   483.9991 </r>
       <r>    -1.3409     0.0127   484.0000 </r>
       <r>    -1.2687     0.0002   484.0000 </r>
       <r>    -1.1965     0.0000   484.0000 </r>
       <r>    -1.1243     0.0000   484.0000 </r>
       <r>    -1.0521     0.0000   484.0000 </r>
       <r>    -0.9799     0.0000   484.0000 </r>
       <r>    -0.9077     0.0000   484.0000 </r>
       <r>    -0.8355     0.0000   484.0000 </r>
       <r>    -0.7633     0.0000   484.0000 </r>
       <r>    -0.6911     0.0000   484.0000 </r>
       <r>    -0.6189     0.0000   484.0000 </r>
       <r>    -0.5467     0.0000   484.0000 </r>
       <r>    -0.4745     0.0008   484.0001 </r>
       <r>    -0.4022     0.0378   484.0028 </r>
       <r>    -0.3300     0.6395   484.0490 </r>
       <r>    -0.2578     4.0806   484.3436 </r>
       <r>    -0.1856    10.0742   485.0710 </r>
       <r>    -0.1134    11.3398   485.8898 </r>
       <r>    -0.0412    13.6403   486.8747 </r>
       <r>     0.0310    22.2984   488.4848 </r>
       <r>     0.1032    28.4192   490.5368 </r>
       <r>     0.1754    41.1979   493.5115 </r>
       <r>     0.2476    44.5630   496.7292 </r>
       <r>     0.3198    37.8350   499.4611 </r>
       <r>     0.3920    62.0938   503.9446 </r>
       <r>     0.4642   119.1966   512.5512 </r>
       <r>     0.5364   169.0191   524.7553 </r>
       <r>     0.6086   151.6378   535.7043 </r>
       <r>     0.6808   134.2398   545.3972 </r>
       <r>     0.7530   110.6596   553.3874 </r>
       <r>     0.8252    51.7587   557.1246 </r>
       <r>     0.8974    16.5372   558.3187 </r>
       <r>     0.9697    31.0531   560.5609 </r>
       <r>     1.0419    79.1817   566.2782 </r>
       <r>     1.1141   112.0269   574.3672 </r>
       <r>     1.1863   111.3846   582.4097 </r>
       <r>     1.2585   103.0762   589.8524 </r>
       <r>     1.3307    84.3393   595.9421 </r>
       <r>     1.4029    43.4968   599.0828 </r>
       <r>     1.4751    11.2913   599.8981 </r>
       <r>     1.5473     1.3411   599.9950 </r>
       <r>     1.6195     0.0684   599.9999 </r>
       <r>     1.6917     0.0014   600.0000 </r>
       <r>     1.7639     0.0000   600.0000 </r>
       <r>     1.8361     0.0000   600.0000 </r>
       <r>     1.9083     0.0000   600.0000 </r>
       <r>     1.9805     0.0000   600.0000 </r>
       <r>     2.0527     0.0000   600.0000 </r>
       <r>     2.1249     0.0000   600.0000 </r>
       <r>     2.1971     0.0000   600.0000 </r>
       <r>     2.2693     0.0000   600.0000 </r>
       <r>     2.3416     0.0000   600.0000 </r>
      </set>
     </set>
    </array>
   </total>
  </dos>
 </calculation>
 <structure name="finalpos" >
  <crystal>
   <varray name="basis" >
    <v>       9.57094646       0.00000000       0.00000000 </v>
    <v>      -6.38062803      11.05157872       0.00000000 </v>
    <v>       0.00000000       0.00000000      34.88026251 </v>
   </varray>
   <i name="volume">   3689.42726549 </i>
   <varray name="rec_basis" >
    <v>       0.10448287       0.06032318       0.00000000 </v>
    <v>       0.00000000       0.09048481       0.00000000 </v>
    <v>       0.00000000       0.00000000       0.02866951 </v>
   </varray>
  </crystal>
  <varray name="positions" >
   <v>       0.66504317       0.43775035       0.98491358 </v>
   <v>       0.67767048       0.55374940       0.98519570 </v>
   <v>       0.82318261       0.45397940       0.98710888 </v>
   <v>       0.93651612       0.58150230       0.98897116 </v>
   <v>       0.84558879       0.64393169       0.98776715 </v>
   <v>       0.70130968       0.54558045       0.88431150 </v>
   <v>       0.98058242       0.64339285       0.88992497 </v>
   <v>       0.84470921       0.66220914       0.88945696 </v>
   <v>       0.92272899       0.51755168       0.88506956 </v>
   <v>       0.75149178       0.45668396       0.88173014 </v>
   <v>       0.81365807       0.54852824       0.93638789 </v>
   <v>       0.89469052       0.74117920       0.98958402 </v>
   <v>       0.84952655       0.74897783       0.89151136 </v>
   <v>       0.99612606       0.47442974       0.88550005 </v>
   <v>       0.10594603       0.71296750       0.89402648 </v>
   <v>       0.57853349       0.52848593       0.88151151 </v>
   <v>       0.57754740       0.57096864       0.98309457 </v>
   <v>       0.55393464       0.35166097       0.98148340 </v>
   <v>       0.85279196       0.38204431       0.98646282 </v>
   <v>       0.06670471       0.62306820       0.99169848 </v>
   <v>       0.67258728       0.35971188       0.87822430 </v>
   <v>       0.55565706       0.08383416       0.24992564 </v>
   <v>       0.55566136       0.33383758       0.24992464 </v>
   <v>       0.44324191       0.41673546       0.74995297 </v>
   <v>       0.55566137       0.58383495       0.24992500 </v>
   <v>       0.44312254       0.66667338       0.74992247 </v>
   <v>       0.55565767       0.83383209       0.24992587 </v>
   <v>       0.44316230       0.91658353       0.74999843 </v>
   <v>       0.88899466       0.33384627       0.24993534 </v>
   <v>       0.77662935       0.16665149       0.75003204 </v>
   <v>       0.77656913       0.41677701       0.74990536 </v>
   <v>       0.88899404       0.58384074       0.24993354 </v>
   <v>       0.77649215       0.66666479       0.74980080 </v>
   <v>       0.88899483       0.83383740       0.24993591 </v>
   <v>       0.77664134       0.91661917       0.75000241 </v>
   <v>       0.10985076       0.91656396       0.75000252 </v>
   <v>       0.88899647       0.08384341       0.24993730 </v>
   <v>       0.22230817       0.83385045       0.24993381 </v>
   <v>       0.44322744       0.16660562       0.74991535 </v>
   <v>       0.22231163       0.58385702       0.24993359 </v>
   <v>       0.10986756       0.41669508       0.75007149 </v>
   <v>       0.22231629       0.33386039       0.24993489 </v>
   <v>       0.22231166       0.08385379       0.24993475 </v>
   <v>       0.10995141       0.16662214       0.75005224 </v>
   <v>       0.10968284       0.66659082       0.74988726 </v>
   <v>       0.77725342       0.16636091       0.29450439 </v>
   <v>       0.88832069       0.08406883       0.79460399 </v>
   <v>       0.77728147       0.16636805       0.20536570 </v>
   <v>       0.88841437       0.08417002       0.70546382 </v>
   <v>       0.22146069       0.08404586       0.70542752 </v>
   <v>       0.11060299       0.16638294       0.20536791 </v>
   <v>       0.77725532       0.41636076       0.29450382 </v>
   <v>       0.88806123       0.33430000       0.79461100 </v>
   <v>       0.11059759       0.66637664       0.20536416 </v>
   <v>       0.55501386       0.83418468       0.70540983 </v>
   <v>       0.88843205       0.33409194       0.70545007 </v>
   <v>       0.22179066       0.08406401       0.79456209 </v>
   <v>       0.11061122       0.16638549       0.29450874 </v>
   <v>       0.77725678       0.66635519       0.29450393 </v>
   <v>       0.88803702       0.58436404       0.79422965 </v>
   <v>       0.77728117       0.66636549       0.20536242 </v>
   <v>       0.88823627       0.58408880       0.70521866 </v>
   <v>       0.77725524       0.91635668       0.29450451 </v>
   <v>       0.88810100       0.83377628       0.79455020 </v>
   <v>       0.77728116       0.41636868       0.20536198 </v>
   <v>       0.44391612       0.91635534       0.20536152 </v>
   <v>       0.44394212       0.91636658       0.29449998 </v>
   <v>       0.22141904       0.58391211       0.70540385 </v>
   <v>       0.22147528       0.58427329       0.79459306 </v>
   <v>       0.11060741       0.91637971       0.29450798 </v>
   <v>       0.22135820       0.83381666       0.79457453 </v>
   <v>       0.11059813       0.91637621       0.20536666 </v>
   <v>       0.22166292       0.83419683       0.70539939 </v>
   <v>       0.11060247       0.66637990       0.29450743 </v>
   <v>       0.77728314       0.91636589       0.20536605 </v>
   <v>       0.44394779       0.16637203       0.29449998 </v>
   <v>       0.55489666       0.08414296       0.79455520 </v>
   <v>       0.44391907       0.16636016       0.20536117 </v>
   <v>       0.55512946       0.08407657       0.70542206 </v>
   <v>       0.44395196       0.41637263       0.29450005 </v>
   <v>       0.55493265       0.33410027       0.79443968 </v>
   <v>       0.44392282       0.41636255       0.20535993 </v>
   <v>       0.55485236       0.33412400       0.70534958 </v>
   <v>       0.22143538       0.33407248       0.70546798 </v>
   <v>       0.11060238       0.41638295       0.20536594 </v>
   <v>       0.44394671       0.66636813       0.29449959 </v>
   <v>       0.55508701       0.58433790       0.79444936 </v>
   <v>       0.44392043       0.66635775       0.20536065 </v>
   <v>       0.55461784       0.58403962       0.70530910 </v>
   <v>       0.22184482       0.33424217       0.79460575 </v>
   <v>       0.11060700       0.41638583       0.29450802 </v>
   <v>       0.55491723       0.83400609       0.79454983 </v>
   <v>       0.88843451       0.83433973       0.70535564 </v>
  </varray>
 </structure>
</modeling>
