basalPlane                              
           1
     9.570946    0.000000    0.000000
    -6.380628   11.051579    0.000000
     0.000000    0.000000   34.880263
   C    Cr   H    Mo   S 
  10   1  10  24  48
Direct configuration=     1
   0.66271498  0.43746311  0.98461573
   0.67819481  0.55421475  0.98596153
   0.82024024  0.45153243  0.98576628
   0.93575061  0.57900175  0.98799866
   0.84644150  0.64271978  0.98803547
   0.69840104  0.54809580  0.88411600
   0.97748225  0.64655560  0.89064646
   0.84054558  0.66447094  0.89064033
   0.92069072  0.52135191  0.88407473
   0.74980735  0.46047009  0.88015871
   0.81100153  0.54768374  0.93610651
   0.89729472  0.74016595  0.98991417
   0.84409697  0.75050946  0.89385513
   0.99456474  0.47854349  0.88417919
   0.10238878  0.71592471  0.89542376
   0.57509967  0.53023073  0.88171789
   0.57945446  0.57313384  0.98428006
   0.55013005  0.35231963  0.98133071
   0.84770198  0.37852571  0.98482851
   0.06588148  0.61943344  0.99047013
   0.67166629  0.36361947  0.87595185
   0.55555566  0.08333325  0.25000928
   0.55555566  0.33333325  0.25000928
   0.44444432  0.41666674  0.74999076
   0.55555566  0.58333325  0.25000928
   0.44444432  0.66666674  0.74999076
   0.55555566  0.83333325  0.25000928
   0.44444432  0.91666674  0.74999076
   0.88888899  0.33333325  0.25000928
   0.77777765  0.16666674  0.74999076
   0.77777765  0.41666674  0.74999076
   0.88888899  0.58333325  0.25000928
   0.77777765  0.66666674  0.74999076
   0.88888899  0.83333325  0.25000928
   0.77777765  0.91666674  0.74999076
   0.11111099  0.91666674  0.74999076
   0.88888899  0.08333325  0.25000928
   0.22222233  0.83333325  0.25000928
   0.44444432  0.16666674  0.74999076
   0.22222233  0.58333325  0.25000928
   0.11111099  0.41666674  0.74999076
   0.22222233  0.33333325  0.25000928
   0.22222233  0.08333325  0.25000928
   0.11111099  0.16666674  0.74999076
   0.11111099  0.66666674  0.74999076
   0.77777765  0.16666674  0.29487388
   0.88888899  0.08333325  0.79485533
   0.77777765  0.16666674  0.20514467
   0.88888899  0.08333325  0.70512613
   0.22222233  0.08333325  0.70512613
   0.11111099  0.16666674  0.20514467
   0.77777765  0.41666674  0.29487388
   0.88888899  0.33333325  0.79485533
   0.11111099  0.66666674  0.20514467
   0.55555566  0.83333325  0.70512613
   0.88888899  0.33333325  0.70512613
   0.22222233  0.08333325  0.79485533
   0.11111099  0.16666674  0.29487388
   0.77777765  0.66666674  0.29487388
   0.88888899  0.58333325  0.79485533
   0.77777765  0.66666674  0.20514467
   0.88888899  0.58333325  0.70512613
   0.77777765  0.91666674  0.29487388
   0.88888899  0.83333325  0.79485533
   0.77777765  0.41666674  0.20514467
   0.44444432  0.91666674  0.20514467
   0.44444432  0.91666674  0.29487388
   0.22222233  0.58333325  0.70512613
   0.22222233  0.58333325  0.79485533
   0.11111099  0.91666674  0.29487388
   0.22222233  0.83333325  0.79485533
   0.11111099  0.91666674  0.20514467
   0.22222233  0.83333325  0.70512613
   0.11111099  0.66666674  0.29487388
   0.77777765  0.91666674  0.20514467
   0.44444432  0.16666674  0.29487388
   0.55555566  0.08333325  0.79485533
   0.44444432  0.16666674  0.20514467
   0.55555566  0.08333325  0.70512613
   0.44444432  0.41666674  0.29487388
   0.55555566  0.33333325  0.79485533
   0.44444432  0.41666674  0.20514467
   0.55555566  0.33333325  0.70512613
   0.22222233  0.33333325  0.70512613
   0.11111099  0.41666674  0.20514467
   0.44444432  0.66666674  0.29487388
   0.55555566  0.58333325  0.79485533
   0.44444432  0.66666674  0.20514467
   0.55555566  0.58333325  0.70512613
   0.22222233  0.33333325  0.79485533
   0.11111099  0.41666674  0.29487388
   0.55555566  0.83333325  0.79485533
   0.88888899  0.83333325  0.70512613
Direct configuration=     2
   0.66266610  0.43744618  0.98471980
   0.67807326  0.55415805  0.98603355
   0.82017891  0.45144517  0.98583658
   0.93585286  0.57904311  0.98807153
   0.84638603  0.64279092  0.98811175
   0.69811108  0.54793423  0.88405768
   0.97771592  0.64653043  0.89059356
   0.84067618  0.66471972  0.89056248
   0.92081723  0.52125191  0.88410677
   0.74989487  0.46030541  0.88018426
   0.81102576  0.54768612  0.93604926
   0.89726997  0.74017348  0.98990870
   0.84411769  0.75052413  0.89383449
   0.99448720  0.47853596  0.88413661
   0.10245354  0.71594824  0.89539742
   0.57520418  0.53025517  0.88170920
   0.57941397  0.57311870  0.98427670
   0.55012812  0.35229667  0.98132358
   0.84773849  0.37853291  0.98482529
   0.06588865  0.61945598  0.99046730
   0.67177088  0.36375626  0.87595688
   0.55617107  0.08410059  0.25000576
   0.55617517  0.33410195  0.25000553
   0.44391984  0.41596494  0.75000596
   0.55617523  0.58410068  0.25000551
   0.44389295  0.66592368  0.74995288
   0.55617197  0.83409999  0.25000564
   0.44382480  0.91588896  0.74998146
   0.88951238  0.33410263  0.25000620
   0.77721267  0.16586631  0.74998391
   0.77728657  0.41606791  0.75004727
   0.88951361  0.58410034  0.25000529
   0.77731098  0.66583348  0.75000167
   0.88951378  0.83409856  0.25000610
   0.77725218  0.91591270  0.74998823
   0.11047575  0.91587950  0.75000320
   0.88951398  0.08410097  0.25000667
   0.22281299  0.83410645  0.25000547
   0.44380607  0.16588953  0.74996742
   0.22281305  0.58410874  0.25000566
   0.11053587  0.41594882  0.75000163
   0.22281569  0.33410898  0.25000628
   0.22281491  0.08410704  0.25000587
   0.11048660  0.16586119  0.75000241
   0.11026270  0.66584087  0.74999492
   0.77746376  0.16627953  0.29459069
   0.88919626  0.08371963  0.79459053
   0.77746365  0.16627972  0.20542990
   0.88917835  0.08371696  0.70539461
   0.22252307  0.08371766  0.70539662
   0.11080197  0.16628009  0.20543011
   0.77746370  0.41627960  0.29459096
   0.88915933  0.33374747  0.79461611
   0.11079960  0.66627818  0.20542960
   0.55583348  0.83369966  0.70539733
   0.88919064  0.33371789  0.70539410
   0.22252855  0.08372444  0.79459119
   0.11080224  0.16628020  0.29459059
   0.77746353  0.66627916  0.29459090
   0.88921330  0.58390726  0.79438531
   0.77746286  0.66627733  0.20542934
   0.88918068  0.58371920  0.70538186
   0.77746320  0.91627926  0.29459063
   0.88915747  0.83365125  0.79461315
   0.77746390  0.41627976  0.20542929
   0.44413312  0.91627789  0.20543017
   0.44413405  0.91627940  0.29459067
   0.22251525  0.58369824  0.70539505
   0.22247082  0.58369704  0.79463058
   0.11080221  0.91627999  0.29459059
   0.22244077  0.83364900  0.79461468
   0.11080060  0.91627812  0.20543013
   0.22251885  0.83371519  0.70539511
   0.11080196  0.66627994  0.29459087
   0.77746246  0.91627719  0.20542999
   0.44413420  0.16627949  0.29459062
   0.55586613  0.08373479  0.79459860
   0.44413483  0.16627972  0.20543004
   0.55585868  0.08372189  0.70539799
   0.44413427  0.41627953  0.29459085
   0.55576666  0.33365700  0.79453064
   0.44413570  0.41627988  0.20542947
   0.55584895  0.33372136  0.70539288
   0.22252416  0.33371556  0.70539146
   0.11080143  0.41628043  0.20542959
   0.44413393  0.66627929  0.29459075
   0.55584504  0.58377059  0.79457169
   0.44413407  0.66627798  0.20542968
   0.55583594  0.58370071  0.70539305
   0.22253554  0.33372968  0.79459771
   0.11080242  0.41628042  0.29459073
   0.55584931  0.83369587  0.79459890
   0.88917636  0.83371202  0.70539283
Direct configuration=     3
   0.66267318  0.43744863  0.98470472
   0.67809087  0.55416627  0.98602311
   0.82018780  0.45145782  0.98582639
   0.93583805  0.57903711  0.98806097
   0.84639406  0.64278061  0.98810070
   0.69815309  0.54795764  0.88406613
   0.97768206  0.64653407  0.89060123
   0.84065726  0.66468368  0.89057376
   0.92079890  0.52126640  0.88410213
   0.74988219  0.46032927  0.88018056
   0.81102225  0.54768577  0.93605756
   0.89727356  0.74017239  0.98990949
   0.84411469  0.75052200  0.89383748
   0.99449844  0.47853705  0.88414278
   0.10244415  0.71594483  0.89540124
   0.57518904  0.53025162  0.88171046
   0.57941984  0.57312089  0.98427718
   0.55012840  0.35230000  0.98132461
   0.84773320  0.37853187  0.98482575
   0.06588761  0.61945271  0.99046771
   0.67175573  0.36373645  0.87595615
   0.55608190  0.08398942  0.25000627
   0.55608541  0.33399057  0.25000607
   0.44399582  0.41606662  0.75000376
   0.55608547  0.58398950  0.25000606
   0.44397284  0.66603134  0.74995837
   0.55608268  0.83398890  0.25000617
   0.44391455  0.91600165  0.74998280
   0.88942206  0.33399116  0.25000665
   0.77729453  0.16598228  0.74998490
   0.77735772  0.41615467  0.75003908
   0.88942311  0.58398920  0.25000587
   0.77737859  0.66595420  0.75000009
   0.88942326  0.83398768  0.25000656
   0.77732831  0.91602195  0.74998860
   0.11056778  0.91599356  0.75000140
   0.88942343  0.08398974  0.25000705
   0.22272742  0.83399443  0.25000602
   0.44389855  0.16600213  0.74997080
   0.22272747  0.58399639  0.25000618
   0.11061919  0.41605284  0.75000006
   0.22272972  0.33399659  0.25000671
   0.22272905  0.08399493  0.25000637
   0.11057706  0.16597790  0.75000072
   0.11038560  0.66596053  0.74999432
   0.77750923  0.16633563  0.29463172
   0.88915174  0.08366365  0.79462889
   0.77750914  0.16633580  0.20538858
   0.88913643  0.08366137  0.70535571
   0.22247950  0.08366196  0.70535743
   0.11084674  0.16633611  0.20538875
   0.77750919  0.41633569  0.29463195
   0.88912017  0.33368745  0.79465077
   0.11084471  0.66633448  0.20538832
   0.55579323  0.83364657  0.70535804
   0.88914694  0.33366216  0.70535528
   0.22248419  0.08366776  0.79462946
   0.11084697  0.16633620  0.29463164
   0.77750904  0.66633532  0.29463190
   0.88916631  0.58382410  0.79445341
   0.77750846  0.66633375  0.20538810
   0.88913842  0.58366328  0.70534481
   0.77750876  0.91633540  0.29463167
   0.88911857  0.83360518  0.79464823
   0.77750936  0.41633582  0.20538805
   0.44417821  0.91633422  0.20538881
   0.44417900  0.91633552  0.29463170
   0.22247281  0.58364536  0.70535609
   0.22243482  0.58364434  0.79466314
   0.11084695  0.91633602  0.29463163
   0.22240913  0.83360325  0.79464954
   0.11084557  0.91633443  0.20538877
   0.22247589  0.83365985  0.70535614
   0.11084674  0.66633598  0.29463188
   0.77750812  0.91633363  0.20538865
   0.44417913  0.16633560  0.29463166
   0.55582115  0.08367661  0.79463579
   0.44417967  0.16633579  0.20538870
   0.55581478  0.08366558  0.70535860
   0.44417919  0.41633563  0.29463185
   0.55573609  0.33361009  0.79457769
   0.44418041  0.41633593  0.20538821
   0.55580646  0.33366513  0.70535423
   0.22248043  0.33366017  0.70535302
   0.11084628  0.41633640  0.20538831
   0.44417890  0.66633542  0.29463177
   0.55580312  0.58370722  0.79461279
   0.44417902  0.66633430  0.20538839
   0.55579533  0.58364747  0.70535437
   0.22249016  0.33367225  0.79463503
   0.11084713  0.41633639  0.29463175
   0.55580676  0.83364333  0.79463605
   0.88913472  0.83365714  0.70535419
Direct configuration=     4
   0.66276956  0.43744521  0.98469720
   0.67839577  0.55426324  0.98601865
   0.82032690  0.45181836  0.98583220
   0.93519498  0.57887404  0.98804497
   0.84630997  0.64239377  0.98808130
   0.69931681  0.54823598  0.88411331
   0.97717708  0.64642000  0.89061054
   0.84049937  0.66385893  0.89052718
   0.92049941  0.52138101  0.88416806
   0.75006542  0.46076334  0.88028407
   0.81097939  0.54771993  0.93609175
   0.89728182  0.74026921  0.98991483
   0.84418336  0.75077815  0.89381757
   0.99466096  0.47840023  0.88410624
   0.10263557  0.71600884  0.89537216
   0.57483914  0.53016979  0.88168437
   0.57935321  0.57309274  0.98428206
   0.55018199  0.35232386  0.98133494
   0.84775591  0.37850270  0.98483067
   0.06602463  0.61952155  0.99047528
   0.67164138  0.36353895  0.87594471
   0.55595468  0.08387395  0.25000759
   0.55595859  0.33387584  0.25000734
   0.44405525  0.41618903  0.74999333
   0.55595830  0.58387397  0.25000741
   0.44403916  0.66615790  0.74995983
   0.55595499  0.83387297  0.25000753
   0.44397590  0.91608601  0.74999986
   0.88928806  0.33387835  0.25000769
   0.77738547  0.16611687  0.74999547
   0.77743996  0.41624265  0.75000420
   0.88928868  0.58387556  0.25000707
   0.77739683  0.66613313  0.74995487
   0.88928845  0.83387330  0.25000773
   0.77741498  0.91611381  0.75000063
   0.11066891  0.91609575  0.75001369
   0.88928923  0.08387646  0.25000806
   0.22260777  0.83387678  0.25000759
   0.44398952  0.16608778  0.74995937
   0.22260971  0.58388071  0.25000778
   0.11071179  0.41616042  0.75001361
   0.22261264  0.33388176  0.25000816
   0.22261104  0.08387917  0.25000794
   0.11069392  0.16610381  0.75000585
   0.11060854  0.66611697  0.74996293
   0.77757012  0.16639004  0.29455981
   0.88910832  0.08360307  0.79455168
   0.77757038  0.16639085  0.20545864
   0.88910172  0.08360245  0.70543237
   0.22239560  0.08359022  0.70543850
   0.11090700  0.16639589  0.20545739
   0.77757074  0.41639034  0.29456014
   0.88907270  0.33365349  0.79458985
   0.11090329  0.66639300  0.20545597
   0.55575935  0.83360061  0.70543413
   0.88910205  0.33363904  0.70545578
   0.22244484  0.08361291  0.79455076
   0.11090693  0.16639548  0.29456116
   0.77757068  0.66638900  0.29455996
   0.88913472  0.58389202  0.79431818
   0.77756975  0.66638715  0.20545717
   0.88906575  0.58358677  0.70539544
   0.77756984  0.91638896  0.29455966
   0.88905533  0.83350630  0.79458433
   0.77757085  0.41639083  0.20545704
   0.44423527  0.91638793  0.20545869
   0.44423648  0.91638972  0.29455927
   0.22238252  0.58357697  0.70544185
   0.22236890  0.58360305  0.79459686
   0.11090631  0.91639467  0.29456106
   0.22230099  0.83349965  0.79458117
   0.11090427  0.91639244  0.20545698
   0.22238829  0.83359515  0.70544204
   0.11090566  0.66639500  0.29456124
   0.77756946  0.91638713  0.20545872
   0.44423735  0.16639045  0.29455941
   0.55577091  0.08363071  0.79455040
   0.44423812  0.16639101  0.20545843
   0.55577596  0.08360812  0.70543761
   0.44423803  0.41639053  0.29455959
   0.55562115  0.33351709  0.79447708
   0.44423937  0.41639099  0.20545770
   0.55580619  0.33365469  0.70544441
   0.22244322  0.33361527  0.70544670
   0.11090591  0.41639639  0.20545652
   0.44423678  0.66638981  0.29455928
   0.55576269  0.58370705  0.79452458
   0.44423660  0.66638794  0.20545805
   0.55577330  0.58358168  0.70543246
   0.22245519  0.33363203  0.79455930
   0.11090640  0.41639603  0.29456121
   0.55575852  0.83357130  0.79454820
   0.88910019  0.83359200  0.70543810
Direct configuration=     5
   0.66270650  0.43744745  0.98470212
   0.67819628  0.55419979  0.98602157
   0.82023588  0.45158245  0.98582840
   0.93561574  0.57898074  0.98805544
   0.84636499  0.64264689  0.98809400
   0.69855538  0.54805386  0.88408244
   0.97750750  0.64649464  0.89060445
   0.84060268  0.66439857  0.89055766
   0.92069537  0.52130602  0.88412492
   0.74994553  0.46047932  0.88021634
   0.81100743  0.54769758  0.93606938
   0.89727641  0.74020586  0.98991133
   0.84413843  0.75061055  0.89383060
   0.99455462  0.47848975  0.88413015
   0.10251032  0.71596696  0.89539119
   0.57506808  0.53022334  0.88170144
   0.57939681  0.57311116  0.98427887
   0.55014693  0.35230825  0.98132818
   0.84774105  0.37852178  0.98482745
   0.06593498  0.61947651  0.99047032
   0.67171620  0.36366817  0.87595220
   0.55603792  0.08394950  0.25000673
   0.55604157  0.33395091  0.25000651
   0.44401637  0.41610894  0.75000015
   0.55604151  0.58394956  0.25000653
   0.44399577  0.66607509  0.74995887
   0.55603854  0.83394883  0.25000664
   0.44393576  0.91603081  0.74998870
   0.88937574  0.33395216  0.25000701
   0.77732596  0.16602880  0.74998855
   0.77738615  0.41618509  0.75002702
   0.88937664  0.58394991  0.25000628
   0.77738490  0.66601606  0.74998446
   0.88937666  0.83394814  0.25000696
   0.77735827  0.91605371  0.74999276
   0.11060274  0.91602888  0.75000565
   0.88937704  0.08395058  0.25000740
   0.22268606  0.83395376  0.25000656
   0.44392999  0.16603174  0.74996685
   0.22268676  0.58395640  0.25000674
   0.11065120  0.41609003  0.75000474
   0.22268925  0.33395690  0.25000721
   0.22268826  0.08395491  0.25000691
   0.11061746  0.16602142  0.75000249
   0.11046267  0.66601461  0.74998347
   0.77753028  0.16635444  0.29460686
   0.88913673  0.08364271  0.79460220
   0.77753031  0.16635483  0.20541280
   0.88912443  0.08364100  0.70538221
   0.22245050  0.08363716  0.70538545
   0.11086757  0.16635678  0.20541248
   0.77753046  0.41635459  0.29460712
   0.88910376  0.33367571  0.79462971
   0.11086496  0.66635471  0.20541171
   0.55578152  0.83363068  0.70538434
   0.88913142  0.33365417  0.70539002
   0.22247058  0.08364880  0.79460225
   0.11086770  0.16635669  0.29460727
   0.77753035  0.66635387  0.29460703
   0.88915539  0.58384758  0.79440666
   0.77752965  0.66635221  0.20541197
   0.88911330  0.58363683  0.70536231
   0.77752987  0.91635392  0.29460677
   0.88909671  0.83357100  0.79462614
   0.77753062  0.41635484  0.20541190
   0.44419794  0.91635279  0.20541297
   0.44419887  0.91635426  0.29460666
   0.22244160  0.58362172  0.70538573
   0.22241203  0.58363006  0.79464023
   0.11086747  0.91635630  0.29460724
   0.22237174  0.83356744  0.79462591
   0.11086586  0.91635448  0.20541235
   0.22244561  0.83363748  0.70538583
   0.11086710  0.66635638  0.29460746
   0.77752933  0.91635212  0.20541288
   0.44419926  0.16635456  0.29460669
   0.55580378  0.08366074  0.79460627
   0.44419988  0.16635488  0.20541281
   0.55580136  0.08364572  0.70538591
   0.44419953  0.41635461  0.29460687
   0.55569635  0.33357794  0.79454291
   0.44420079  0.41635496  0.20541223
   0.55580637  0.33366152  0.70538541
   0.22246757  0.33364465  0.70538540
   0.11086690  0.41635713  0.20541189
   0.44419891  0.66635422  0.29460671
   0.55578914  0.58370716  0.79458229
   0.44419892  0.66635284  0.20541247
   0.55578772  0.58362473  0.70538137
   0.22247807  0.33365834  0.79460885
   0.11086762  0.41635701  0.29460737
   0.55579009  0.83361843  0.79460568
   0.88912278  0.83363462  0.70538320
Direct configuration=     6
   0.66276109  0.43746524  0.98468861
   0.67815128  0.55421163  0.98599439
   0.82030445  0.45157869  0.98582192
   0.93568089  0.57902817  0.98806110
   0.84642688  0.64269982  0.98808916
   0.69845675  0.54805972  0.88409869
   0.97758803  0.64656624  0.89062780
   0.84066794  0.66449840  0.89053918
   0.92081339  0.52123697  0.88421388
   0.74984545  0.46036848  0.88029830
   0.81091331  0.54763330  0.93612485
   0.89718129  0.74009218  0.98991276
   0.84416900  0.75044600  0.89378738
   0.99454521  0.47844828  0.88408814
   0.10245536  0.71590714  0.89534885
   0.57531905  0.53024475  0.88168324
   0.57944672  0.57307619  0.98428937
   0.55022664  0.35234141  0.98133908
   0.84775305  0.37863663  0.98483732
   0.06573952  0.61944587  0.99047214
   0.67178821  0.36371873  0.87595500
   0.55588242  0.08379019  0.25000770
   0.55588658  0.33379232  0.25000739
   0.44410740  0.41627527  0.74999165
   0.55588612  0.58379017  0.25000747
   0.44408417  0.66624138  0.74996194
   0.55588265  0.83378894  0.25000762
   0.44403023  0.91616146  0.75000560
   0.88921661  0.33379803  0.25000751
   0.77745259  0.16621037  0.75000081
   0.77749306  0.41631091  0.74999300
   0.88921699  0.58379483  0.25000690
   0.77742895  0.66624469  0.74993732
   0.88921663  0.83379234  0.25000758
   0.77747820  0.91619024  0.75000463
   0.11072613  0.91616831  0.75001925
   0.88921767  0.08379593  0.25000791
   0.22253861  0.83379357  0.25000772
   0.44404936  0.16615915  0.74995567
   0.22254019  0.58379733  0.25000778
   0.11076902  0.41624088  0.75002187
   0.22254343  0.33379878  0.25000814
   0.22254153  0.08379577  0.25000798
   0.11076342  0.16619053  0.75000759
   0.11072140  0.66621602  0.74995215
   0.77760427  0.16643098  0.29455701
   0.88907766  0.08356024  0.79454648
   0.77760490  0.16643174  0.20546063
   0.88907364  0.08355963  0.70544063
   0.22234289  0.08353862  0.70544613
   0.11094118  0.16643823  0.20545894
   0.77760512  0.41643139  0.29455737
   0.88903543  0.33362473  0.79458942
   0.11093705  0.66643492  0.20545718
   0.55573477  0.83356877  0.70544048
   0.88907574  0.33360934  0.70547065
   0.22242031  0.08357285  0.79454424
   0.11094118  0.16643793  0.29455873
   0.77760509  0.66642952  0.29455717
   0.88910560  0.58389604  0.79429474
   0.77760427  0.66642740  0.20545880
   0.88902574  0.58354046  0.70538597
   0.77760409  0.91642950  0.29455685
   0.88901301  0.83344653  0.79458230
   0.77760544  0.41643171  0.20545864
   0.44426855  0.91642780  0.20546054
   0.44427010  0.91643004  0.29455645
   0.22233656  0.58352605  0.70544925
   0.22233104  0.58357384  0.79459227
   0.11094028  0.91643667  0.29455859
   0.22224606  0.83343581  0.79457826
   0.11093807  0.91643414  0.20545841
   0.22234705  0.83355839  0.70545059
   0.11093936  0.66643718  0.29455875
   0.77760404  0.91642745  0.20546071
   0.44427153  0.16643122  0.29455669
   0.55573325  0.08359262  0.79454132
   0.44427209  0.16643156  0.20546021
   0.55574856  0.08356081  0.70544463
   0.44427245  0.41643130  0.29455685
   0.55556840  0.33346609  0.79446299
   0.44427350  0.41643150  0.20545939
   0.55578641  0.33363004  0.70545215
   0.22240916  0.33357795  0.70545924
   0.11093992  0.41643875  0.20545794
   0.44427081  0.66643029  0.29455647
   0.55573524  0.58369012  0.79451280
   0.44427023  0.66642786  0.20545980
   0.55573525  0.58353730  0.70543403
   0.22243175  0.33359837  0.79455465
   0.11094039  0.41643857  0.29455874
   0.55572410  0.83352298  0.79453904
   0.88908061  0.83355948  0.70544494
Direct configuration=     7
   0.66274324  0.43745942  0.98469303
   0.67816599  0.55420776  0.98600327
   0.82028203  0.45157992  0.98582404
   0.93565959  0.57901266  0.98805925
   0.84640665  0.64268251  0.98809074
   0.69848899  0.54805780  0.88409338
   0.97756170  0.64654283  0.89062016
   0.84064660  0.66446576  0.89054522
   0.92077480  0.52125954  0.88418480
   0.74987817  0.46040472  0.88027150
   0.81094409  0.54765432  0.93610671
   0.89721239  0.74012935  0.98991230
   0.84415900  0.75049980  0.89380151
   0.99454828  0.47846184  0.88410188
   0.10247333  0.71592670  0.89536269
   0.57523700  0.53023775  0.88168919
   0.57943040  0.57308763  0.98428594
   0.55020058  0.35233056  0.98133552
   0.84774913  0.37859908  0.98483409
   0.06580343  0.61945589  0.99047155
   0.67176467  0.36370220  0.87595408
   0.55593326  0.08384228  0.25000738
   0.55593726  0.33384417  0.25000710
   0.44407764  0.41622089  0.74999443
   0.55593693  0.58384229  0.25000716
   0.44405527  0.66618701  0.74996094
   0.55593362  0.83384122  0.25000730
   0.44399934  0.91611874  0.75000007
   0.88926864  0.33384842  0.25000735
   0.77741119  0.16615101  0.74999680
   0.77745810  0.41626977  0.75000412
   0.88926918  0.58384554  0.25000670
   0.77741455  0.66616994  0.74995273
   0.88926895  0.83384328  0.25000738
   0.77743899  0.91614560  0.75000075
   0.11068579  0.91612272  0.75001480
   0.88926978  0.08384650  0.25000774
   0.22258682  0.83384594  0.25000734
   0.44401033  0.16611750  0.74995933
   0.22258811  0.58384934  0.25000744
   0.11073050  0.41619156  0.75001627
   0.22259111  0.33385048  0.25000784
   0.22258950  0.08384780  0.25000763
   0.11071569  0.16613524  0.75000592
   0.11063681  0.66615017  0.74996239
   0.77758008  0.16640596  0.29457331
   0.88909698  0.08358721  0.79456470
   0.77758051  0.16640659  0.20544499
   0.88909025  0.08358623  0.70542153
   0.22237807  0.08357084  0.70542629
   0.11091711  0.16641160  0.20544375
   0.77758071  0.41640628  0.29457364
   0.88905777  0.33364140  0.79460259
   0.11091348  0.66640869  0.20544231
   0.55575005  0.83358901  0.70542213
   0.88909395  0.33362399  0.70544429
   0.22243675  0.08359769  0.79456321
   0.11091716  0.16641137  0.29457460
   0.77758065  0.66640478  0.29457347
   0.88912188  0.58388019  0.79433134
   0.77757987  0.66640281  0.20544349
   0.88905437  0.58357197  0.70537823
   0.77757982  0.91640478  0.29457317
   0.88904038  0.83348722  0.79459663
   0.77758097  0.41640658  0.20544336
   0.44424546  0.91640328  0.20544499
   0.44424681  0.91640527  0.29457287
   0.22237090  0.58355733  0.70542848
   0.22235752  0.58359222  0.79460795
   0.11091648  0.91641039  0.29457450
   0.22228715  0.83347884  0.79459384
   0.11091446  0.91640810  0.20544335
   0.22237927  0.83358425  0.70542942
   0.11091574  0.66641076  0.29457467
   0.77757961  0.91640282  0.20544507
   0.44424790  0.16640615  0.29457303
   0.55575631  0.08361489  0.79456255
   0.44424848  0.16640649  0.20544471
   0.55576583  0.08358857  0.70542543
   0.44424861  0.41640623  0.29457320
   0.55561024  0.33350266  0.79448912
   0.44424973  0.41640648  0.20544397
   0.55579294  0.33364033  0.70543032
   0.22242826  0.33359976  0.70543510
   0.11091604  0.41641206  0.20544288
   0.44424730  0.66640542  0.29457289
   0.55575286  0.58369570  0.79453552
   0.44424692  0.66640333  0.20544433
   0.55575240  0.58356589  0.70541681
   0.22244690  0.33361798  0.79457237
   0.11091660  0.41641190  0.29457464
   0.55574568  0.83355419  0.79456083
   0.88909440  0.83358405  0.70542475
Direct configuration=     8
   0.66275990  0.43747808  0.98468758
   0.67820154  0.55417401  0.98599236
   0.82024959  0.45159087  0.98583093
   0.93571849  0.57901744  0.98807208
   0.84635809  0.64271755  0.98809190
   0.69843776  0.54802102  0.88409980
   0.97757735  0.64645117  0.89062836
   0.84069687  0.66452308  0.89053472
   0.92072976  0.52125665  0.88423242
   0.74994917  0.46036023  0.88031760
   0.81089981  0.54762271  0.93611077
   0.89719792  0.74011779  0.98991359
   0.84418058  0.75046795  0.89377660
   0.99456583  0.47843501  0.88408373
   0.10250767  0.71594521  0.89534143
   0.57531167  0.53025105  0.88167773
   0.57940184  0.57308264  0.98428964
   0.55023742  0.35233413  0.98134051
   0.84779367  0.37861709  0.98483833
   0.06578645  0.61947287  0.99047357
   0.67177988  0.36371499  0.87596013
   0.55594611  0.08384663  0.25000623
   0.55595093  0.33384889  0.25000584
   0.44407841  0.41623262  0.74999803
   0.55595054  0.58384663  0.25000586
   0.44402955  0.66617800  0.74995773
   0.55594662  0.83384526  0.25000609
   0.44398748  0.91611453  0.75000039
   0.88928447  0.33385724  0.25000612
   0.77741201  0.16614771  0.75000059
   0.77744977  0.41627851  0.75000710
   0.88928501  0.58385368  0.25000526
   0.77740100  0.66617663  0.74994081
   0.88928474  0.83385099  0.25000612
   0.77743939  0.91613860  0.75000140
   0.11065478  0.91609821  0.75002124
   0.88928573  0.08385487  0.25000668
   0.22259914  0.83385464  0.25000605
   0.44398697  0.16610165  0.74995390
   0.22260031  0.58385828  0.25000608
   0.11071476  0.41619459  0.75002770
   0.22260397  0.33385979  0.25000665
   0.22260208  0.08385653  0.25000642
   0.11070405  0.16612724  0.75000898
   0.11061244  0.66614658  0.74995571
   0.77757031  0.16640229  0.29457467
   0.88910381  0.08358972  0.79456723
   0.77757044  0.16640245  0.20544364
   0.88909506  0.08358909  0.70542776
   0.22235660  0.08355894  0.70542808
   0.11090888  0.16640888  0.20544276
   0.77757110  0.41640264  0.29457504
   0.88904517  0.33366492  0.79460890
   0.11090436  0.66640515  0.20544103
   0.55576006  0.83360501  0.70542487
   0.88911256  0.33363191  0.70544973
   0.22245499  0.08360407  0.79456380
   0.11090866  0.16640853  0.29457583
   0.77757099  0.66640051  0.29457487
   0.88912384  0.58393451  0.79430094
   0.77756975  0.66639792  0.20544187
   0.88905843  0.58357909  0.70535900
   0.77757007  0.91640061  0.29457453
   0.88902390  0.83346343  0.79460014
   0.77757099  0.41640245  0.20544168
   0.44423553  0.91639774  0.20544333
   0.44423764  0.91639996  0.29457453
   0.22236990  0.58354131  0.70542618
   0.22235331  0.58361243  0.79461004
   0.11090755  0.91640695  0.29457573
   0.22226695  0.83345113  0.79459859
   0.11090548  0.91640458  0.20544222
   0.22239058  0.83360621  0.70542960
   0.11090652  0.66640737  0.29457592
   0.77756957  0.91639805  0.20544374
   0.44423931  0.16640141  0.29457472
   0.55575136  0.08362125  0.79456247
   0.44423906  0.16640155  0.20544303
   0.55577840  0.08357881  0.70542750
   0.44424029  0.41640147  0.29457491
   0.55559987  0.33349897  0.79447733
   0.44424060  0.41640158  0.20544217
   0.55579194  0.33365136  0.70542562
   0.22241896  0.33360554  0.70543971
   0.11090759  0.41640939  0.20544174
   0.44423851  0.66640024  0.29457456
   0.55576495  0.58372810  0.79452703
   0.44423722  0.66639775  0.20544260
   0.55571848  0.58356605  0.70540567
   0.22246502  0.33363022  0.79457656
   0.11090776  0.41640890  0.29457587
   0.55574443  0.83354820  0.79456253
   0.88912078  0.83361750  0.70542142
Direct configuration=     9
   0.66275888  0.43747693  0.98468791
   0.67819935  0.55417608  0.98599303
   0.82025159  0.45159020  0.98583051
   0.93571486  0.57901715  0.98807129
   0.84636108  0.64271539  0.98809183
   0.69844092  0.54802328  0.88409941
   0.97757638  0.64645682  0.89062786
   0.84069377  0.66451955  0.89053537
   0.92073253  0.52125683  0.88422949
   0.74994480  0.46036297  0.88031476
   0.81090253  0.54762465  0.93611052
   0.89719881  0.74011851  0.98991351
   0.84417925  0.75046991  0.89377813
   0.99456475  0.47843666  0.88408485
   0.10250556  0.71594407  0.89534273
   0.57530708  0.53025023  0.88167843
   0.57940360  0.57308295  0.98428941
   0.55023515  0.35233391  0.98134020
   0.84779093  0.37861598  0.98483807
   0.06578749  0.61947182  0.99047345
   0.67177895  0.36371421  0.87595976
   0.55594532  0.08384636  0.25000630
   0.55595009  0.33384860  0.25000592
   0.44407836  0.41623190  0.74999780
   0.55594970  0.58384636  0.25000594
   0.44403113  0.66617855  0.74995793
   0.55594582  0.83384501  0.25000617
   0.44398821  0.91611479  0.75000037
   0.88928350  0.33385669  0.25000619
   0.77741196  0.16614791  0.75000035
   0.77745028  0.41627797  0.75000691
   0.88928403  0.58385318  0.25000535
   0.77740184  0.66617622  0.74994155