  93  93   0   0
  0.3967126E+02  0.9570947E-09  0.1276126E-08  0.3488026E-08  0.5000000E-15
  1.000000000000000E-004
  CAR 
 basalPlane                              
      2.56662853    -20.64271763  301      0.29886468      1.00000000
    -20.643  0.0000E+00  0.0000E+00
    -20.565  0.0000E+00  0.0000E+00
    -20.488  0.0000E+00  0.0000E+00
    -20.411  0.0000E+00  0.0000E+00
    -20.333  0.0000E+00  0.0000E+00
    -20.256  0.0000E+00  0.0000E+00
    -20.179  0.1435E-18  0.1110E-19
    -20.101  0.4971E-15  0.3847E-16
    -20.024  0.9006E-12  0.6971E-13
    -19.946  0.5062E-09  0.3923E-10
    -19.869  0.8912E-07  0.6934E-08
    -19.792  0.4979E-05  0.3921E-06
    -19.714  0.8981E-04  0.7340E-05
    -19.637  0.5337E-03  0.4863E-04
    -19.560  0.1064E-02  0.1309E-03
    -19.482  0.7174E-03  0.1864E-03
    -19.405  0.1637E-03  0.1991E-03
    -19.328  0.3710E-04  0.2020E-03
    -19.250  0.2548E-03  0.2217E-03
    -19.173  0.8674E-03  0.2888E-03
    -19.095  0.9974E-03  0.3659E-03
    -19.018  0.3877E-03  0.3959E-03
    -18.941  0.5037E-04  0.3998E-03
    -18.863  0.2145E-05  0.4000E-03
    -18.786  0.2938E-07  0.4000E-03
    -18.709  0.1272E-09  0.4000E-03
    -18.631  0.1721E-12  0.4000E-03
    -18.554  0.7233E-16  0.4000E-03
    -18.477  0.0000E+00  0.4000E-03
    -18.399  0.0000E+00  0.4000E-03
    -18.322  0.0000E+00  0.4000E-03
    -18.244  0.0000E+00  0.4000E-03
    -18.167  0.0000E+00  0.4000E-03
    -18.090  0.0000E+00  0.4000E-03
    -18.012  0.0000E+00  0.4000E-03
    -17.935  0.0000E+00  0.4000E-03
    -17.858  0.0000E+00  0.4000E-03
    -17.780  0.0000E+00  0.4000E-03
    -17.703  0.0000E+00  0.4000E-03
    -17.626  0.0000E+00  0.4000E-03
    -17.548  0.0000E+00  0.4000E-03
    -17.471  0.0000E+00  0.4000E-03
    -17.393  0.0000E+00  0.4000E-03
    -17.316  0.0000E+00  0.4000E-03
    -17.239  0.0000E+00  0.4000E-03
    -17.161  0.0000E+00  0.4000E-03
    -17.084  0.0000E+00  0.4000E-03
    -17.007  0.0000E+00  0.4000E-03
    -16.929  0.0000E+00  0.4000E-03
    -16.852  0.0000E+00  0.4000E-03
    -16.774  0.0000E+00  0.4000E-03
    -16.697  0.0000E+00  0.4000E-03
    -16.620  0.0000E+00  0.4000E-03
    -16.542  0.0000E+00  0.4000E-03
    -16.465  0.0000E+00  0.4000E-03
    -16.388  0.0000E+00  0.4000E-03
    -16.310  0.0000E+00  0.4000E-03
    -16.233  0.0000E+00  0.4000E-03
    -16.156  0.2870E-18  0.4000E-03
    -16.078  0.1744E-14  0.4000E-03
    -16.001  0.2663E-11  0.4000E-03
    -15.923  0.1275E-08  0.4000E-03
    -15.846  0.1945E-06  0.4000E-03
    -15.769  0.9685E-05  0.4008E-03
    -15.691  0.1625E-03  0.4133E-03
    -15.614  0.9521E-03  0.4870E-03
    -15.537  0.2010E-02  0.6425E-03
    -15.459  0.1554E-02  0.7627E-03
    -15.382  0.4370E-03  0.7965E-03
    -15.305  0.4365E-04  0.7999E-03
    -15.227  0.1537E-05  0.8000E-03
    -15.150  0.3338E-05  0.8003E-03
    -15.072  0.8495E-04  0.8068E-03
    -14.995  0.7601E-03  0.8656E-03
    -14.918  0.2708E-02  0.1075E-02
    -14.840  0.5070E-02  0.1467E-02
    -14.763  0.6300E-02  0.1955E-02
    -14.686  0.4376E-02  0.2293E-02
    -14.608  0.1733E-02  0.2427E-02
    -14.531  0.2473E-02  0.2619E-02
    -14.454  0.4550E-02  0.2971E-02
    -14.376  0.5239E-02  0.3376E-02
    -14.299  0.6509E-02  0.3880E-02
    -14.221  0.5025E-02  0.4268E-02
    -14.144  0.1574E-02  0.4390E-02
    -14.067  0.7354E-03  0.4447E-02
    -13.989  0.2733E-02  0.4658E-02
    -13.912  0.6048E-02  0.5126E-02
    -13.835  0.1032E-01  0.5925E-02
    -13.757  0.1408E-01  0.7014E-02
    -13.680  0.1090E-01  0.7858E-02
    -13.603  0.7421E-02  0.8432E-02
    -13.525  0.8778E-02  0.9111E-02
    -13.448  0.9565E-02  0.9851E-02
    -13.370  0.7440E-02  0.1043E-01
    -13.293  0.3792E-02  0.1072E-01
    -13.216  0.9425E-03  0.1079E-01
    -13.138  0.9053E-04  0.1080E-01
    -13.061  0.3032E-05  0.1080E-01
    -12.984  0.3373E-07  0.1080E-01
    -12.906  0.1211E-09  0.1080E-01
    -12.829  0.1375E-12  0.1080E-01
    -12.752  0.4937E-16  0.1080E-01
    -12.674  0.0000E+00  0.1080E-01
    -12.597  0.0000E+00  0.1080E-01
    -12.519  0.0000E+00  0.1080E-01
    -12.442  0.0000E+00  0.1080E-01
    -12.365  0.0000E+00  0.1080E-01
    -12.287  0.0000E+00  0.1080E-01
    -12.210  0.0000E+00  0.1080E-01
    -12.133  0.0000E+00  0.1080E-01
    -12.055  0.0000E+00  0.1080E-01
    -11.978  0.0000E+00  0.1080E-01
    -11.901  0.0000E+00  0.1080E-01
    -11.823  0.0000E+00  0.1080E-01
    -11.746  0.0000E+00  0.1080E-01
    -11.668  0.0000E+00  0.1080E-01
    -11.591  0.0000E+00  0.1080E-01
    -11.514  0.0000E+00  0.1080E-01
    -11.436  0.0000E+00  0.1080E-01
    -11.359  0.0000E+00  0.1080E-01
    -11.282  0.0000E+00  0.1080E-01
    -11.204  0.1436E-15  0.1080E-01
    -11.127  0.3311E-12  0.1080E-01
    -11.050  0.2384E-09  0.1080E-01
    -10.972  0.5421E-07  0.1080E-01
    -10.895  0.3943E-05  0.1080E-01
    -10.817  0.9332E-04  0.1081E-01
    -10.740  0.7334E-03  0.1086E-01
    -10.663  0.1954E-02  0.1102E-01
    -10.585  0.1867E-02  0.1116E-01
    -10.508  0.1345E-02  0.1126E-01
    -10.431  0.2555E-02  0.1146E-01
    -10.353  0.2909E-02  0.1169E-01
    -10.276  0.1261E-02  0.1178E-01
    -10.199  0.2886E-03  0.1181E-01
    -10.121  0.5460E-03  0.1185E-01
    -10.044  0.1064E-02  0.1193E-01
     -9.966  0.7162E-03  0.1199E-01
     -9.889  0.1623E-03  0.1200E-01
     -9.812  0.1218E-04  0.1200E-01
     -9.734  0.2966E-06  0.1200E-01
     -9.657  0.2303E-08  0.1200E-01
     -9.580  0.5616E-11  0.1200E-01
     -9.502  0.4260E-14  0.1200E-01
     -9.425  0.1148E-17  0.1200E-01
     -9.348  0.0000E+00  0.1200E-01
     -9.270  0.0000E+00  0.1200E-01
     -9.193  0.0000E+00  0.1200E-01
     -9.115  0.0000E+00  0.1200E-01
     -9.038  0.0000E+00  0.1200E-01
     -8.961  0.0000E+00  0.1200E-01
     -8.883  0.0000E+00  0.1200E-01
     -8.806  0.0000E+00  0.1200E-01
     -8.729  0.0000E+00  0.1200E-01
     -8.651  0.0000E+00  0.1200E-01
     -8.574  0.0000E+00  0.1200E-01
     -8.496  0.0000E+00  0.1200E-01
     -8.419  0.0000E+00  0.1200E-01
     -8.342  0.0000E+00  0.1200E-01
     -8.264  0.5740E-18  0.1200E-01
     -8.187  0.2602E-14  0.1200E-01
     -8.110  0.3693E-11  0.1200E-01
     -8.032  0.1630E-08  0.1200E-01
     -7.955  0.2258E-06  0.1200E-01
     -7.878  0.9958E-05  0.1200E-01
     -7.800  0.1424E-03  0.1201E-01
     -7.723  0.6735E-03  0.1206E-01
     -7.645  0.1072E-02  0.1215E-01
     -7.568  0.5770E-03  0.1219E-01
     -7.491  0.1097E-03  0.1220E-01
     -7.413  0.1258E-03  0.1221E-01
     -7.336  0.9540E-03  0.1228E-01
     -7.259  0.2996E-02  0.1252E-01
     -7.181  0.4146E-02  0.1284E-01
     -7.104  0.3388E-02  0.1310E-01
     -7.027  0.2736E-02  0.1331E-01
     -6.949  0.2654E-02  0.1352E-01
     -6.872  0.3441E-02  0.1378E-01
     -6.794  0.6314E-02  0.1427E-01
     -6.717  0.1108E-01  0.1513E-01
     -6.640  0.1040E-01  0.1593E-01
     -6.562  0.7708E-02  0.1653E-01
     -6.485  0.1219E-01  0.1747E-01
     -6.408  0.1551E-01  0.1867E-01
     -6.330  0.1259E-01  0.1964E-01
     -6.253  0.8767E-02  0.2032E-01
     -6.176  0.4656E-02  0.2068E-01
     -6.098  0.1343E-02  0.2079E-01
     -6.021  0.1617E-03  0.2080E-01
     -5.943  0.7125E-05  0.2080E-01
     -5.866  0.8049E-05  0.2080E-01
     -5.789  0.1801E-03  0.2081E-01
     -5.711  0.1436E-02  0.2093E-01
     -5.634  0.4311E-02  0.2126E-01
     -5.557  0.5515E-02  0.2169E-01
     -5.479  0.4823E-02  0.2206E-01
     -5.402  0.9854E-02  0.2282E-01
     -5.325  0.2091E-01  0.2444E-01
     -5.247  0.2067E-01  0.2604E-01
     -5.170  0.8580E-02  0.2670E-01
     -5.092  0.2582E-02  0.2690E-01
     -5.015  0.3695E-02  0.2719E-01
     -4.938  0.3760E-02  0.2748E-01
     -4.860  0.1616E-02  0.2760E-01
     -4.783  0.2302E-02  0.2778E-01
     -4.706  0.7463E-02  0.2836E-01
     -4.628  0.1051E-01  0.2917E-01
     -4.551  0.7979E-02  0.2979E-01
     -4.474  0.7538E-02  0.3037E-01
     -4.396  0.8805E-02  0.3105E-01
     -4.319  0.9024E-02  0.3175E-01
     -4.241  0.6443E-02  0.3225E-01
     -4.164  0.3775E-02  0.3254E-01
     -4.087  0.5053E-02  0.3293E-01
     -4.009  0.6472E-02  0.3343E-01
     -3.932  0.6219E-02  0.3392E-01
     -3.855  0.5564E-02  0.3435E-01
     -3.777  0.4290E-02  0.3468E-01
     -3.700  0.2505E-02  0.3487E-01
     -3.623  0.2365E-02  0.3505E-01
     -3.545  0.2156E-02  0.3522E-01
     -3.468  0.3172E-02  0.3547E-01
     -3.390  0.5726E-02  0.3591E-01
     -3.313  0.9013E-02  0.3661E-01
     -3.236  0.1378E-01  0.3767E-01
     -3.158  0.1439E-01  0.3879E-01
     -3.081  0.1087E-01  0.3963E-01
     -3.004  0.8354E-02  0.4027E-01
     -2.926  0.7170E-02  0.4083E-01
     -2.849  0.8751E-02  0.4150E-01
     -2.772  0.1104E-01  0.4236E-01
     -2.694  0.8479E-02  0.4301E-01
     -2.617  0.3853E-02  0.4331E-01
     -2.539  0.2908E-02  0.4354E-01
     -2.462  0.6428E-02  0.4404E-01
     -2.385  0.9668E-02  0.4478E-01
     -2.307  0.8166E-02  0.4542E-01
     -2.230  0.5240E-02  0.4582E-01
     -2.153  0.5189E-02  0.4622E-01
     -2.075  0.6201E-02  0.4670E-01
     -1.998  0.5532E-02  0.4713E-01
     -1.921  0.5045E-02  0.4752E-01
     -1.843  0.2948E-02  0.4775E-01
     -1.766  0.1258E-02  0.4785E-01
     -1.688  0.2730E-02  0.4806E-01
     -1.611  0.4272E-02  0.4839E-01
     -1.534  0.2874E-02  0.4861E-01
     -1.456  0.2184E-02  0.4878E-01
     -1.379  0.1981E-02  0.4893E-01
     -1.302  0.7733E-03  0.4899E-01
     -1.224  0.1063E-03  0.4900E-01
     -1.147  0.4965E-05  0.4900E-01
     -1.070  0.7686E-07  0.4900E-01
     -0.992  0.3853E-09  0.4900E-01
     -0.915  0.6142E-12  0.4900E-01
     -0.837  0.3074E-15  0.4900E-01
     -0.760  0.0000E+00  0.4900E-01
     -0.683  0.0000E+00  0.4900E-01
     -0.605  0.0000E+00  0.4900E-01
     -0.528  0.0000E+00  0.4900E-01
     -0.451  0.0000E+00  0.4900E-01
     -0.373  0.0000E+00  0.4900E-01
     -0.296  0.0000E+00  0.4900E-01
     -0.218  0.2870E-18  0.4900E-01
     -0.141  0.1853E-14  0.4900E-01
     -0.064  0.2931E-11  0.4900E-01
      0.014  0.1478E-08  0.4900E-01
      0.091  0.2439E-06  0.4900E-01
      0.168  0.1363E-04  0.4900E-01
      0.246  0.2694E-03  0.4902E-01
      0.323  0.1958E-02  0.4917E-01
      0.400  0.5381E-02  0.4959E-01
      0.478  0.5960E-02  0.5005E-01
      0.555  0.4640E-02  0.5041E-01
      0.633  0.7268E-02  0.5097E-01
      0.710  0.1345E-01  0.5201E-01
      0.787  0.1673E-01  0.5331E-01
      0.865  0.1426E-01  0.5441E-01
      0.942  0.1275E-01  0.5540E-01
      1.019  0.7849E-02  0.5600E-01
      1.097  0.2488E-02  0.5620E-01
      1.174  0.2205E-02  0.5637E-01
      1.251  0.6723E-02  0.5689E-01
      1.329  0.1109E-01  0.5774E-01
      1.406  0.1140E-01  0.5863E-01
      1.484  0.9562E-02  0.5937E-01
      1.561  0.5985E-02  0.5983E-01
      1.638  0.1938E-02  0.5998E-01
      1.716  0.2512E-03  0.6000E-01
      1.793  0.1161E-04  0.6000E-01
      1.870  0.1809E-06  0.6000E-01
      1.948  0.9184E-09  0.6000E-01
      2.025  0.1489E-11  0.6000E-01
      2.102  0.7600E-15  0.6000E-01
      2.180  0.0000E+00  0.6000E-01
      2.257  0.0000E+00  0.6000E-01
      2.335  0.0000E+00  0.6000E-01
      2.412  0.0000E+00  0.6000E-01
      2.489  0.0000E+00  0.6000E-01
      2.567  0.0000E+00  0.6000E-01
