       N       E                     dE             d eps       ncg     rms          rms(c)
DAV:   1     0.441668649969E+04    0.44167E+04   -0.18191E+05   600   0.112E+03
DAV:   2    -0.153723556262E+01   -0.44182E+04   -0.42587E+04   960   0.268E+02
DAV:   3    -0.674094043676E+03   -0.67256E+03   -0.66455E+03   720   0.115E+02
DAV:   4    -0.706616088564E+03   -0.32522E+02   -0.32343E+02   816   0.278E+01
DAV:   5    -0.707874852490E+03   -0.12588E+01   -0.12516E+01   912   0.571E+00    0.123E+02
DAV:   6    -0.696651548890E+03    0.11223E+02   -0.71679E+02   828   0.509E+01    0.898E+01
DAV:   7    -0.682632663970E+03    0.14019E+02   -0.25572E+02   852   0.752E+01    0.632E+01
DAV:   8    -0.728262685305E+03   -0.45630E+02   -0.14650E+02   852   0.317E+01    0.715E+01
DAV:   9    -0.711159108857E+03    0.17104E+02   -0.58044E+01   720   0.125E+01    0.447E+01
DAV:  10    -0.670163698117E+03    0.40995E+02   -0.44668E+01   912   0.198E+01    0.265E+01
DAV:  11    -0.664634164313E+03    0.55295E+01   -0.25772E+01   840   0.723E+00    0.253E+01
DAV:  12    -0.662626695500E+03    0.20075E+01   -0.33005E+00   900   0.289E+00    0.241E+01
DAV:  13    -0.661850428395E+03    0.77627E+00   -0.33988E-01   864   0.109E+00    0.236E+01
DAV:  14    -0.661550377418E+03    0.30005E+00   -0.41414E-02   888   0.545E-01    0.230E+01
DAV:  15    -0.662058137892E+03   -0.50776E+00   -0.52407E-02   876   0.748E-01    0.231E+01
DAV:  16    -0.662073627160E+03   -0.15489E-01   -0.25907E-03   696   0.632E-02    0.232E+01
DAV:  17    -0.660690073647E+03    0.13836E+01   -0.28936E-01   912   0.182E+00    0.217E+01
DAV:  18    -0.657909048191E+03    0.27810E+01   -0.17644E+00   924   0.535E+00    0.189E+01
DAV:  19    -0.659469107495E+03   -0.15601E+01   -0.31530E+00   876   0.258E+00    0.198E+01
DAV:  20    -0.673370504551E+03   -0.13901E+02   -0.13478E+02   924   0.427E+01    0.622E+01
DAV:  21    -0.666518301648E+03    0.68522E+01   -0.12660E+01   744   0.360E+00    0.566E+01
DAV:  22    -0.660309400689E+03    0.62089E+01   -0.98429E+00   876   0.234E+00    0.389E+01
DAV:  23    -0.660309669181E+03   -0.26849E-03   -0.30162E-01   804   0.482E-01    0.398E+01
DAV:  24    -0.660399734159E+03   -0.90065E-01   -0.12190E-02   912   0.149E-01    0.399E+01
DAV:  25    -0.660466892942E+03   -0.67159E-01   -0.39282E-03   768   0.512E-02    0.401E+01
DAV:  26    -0.660504876605E+03   -0.37984E-01   -0.10601E-02   780   0.682E-02    0.403E+01
DAV:  27    -0.660514600672E+03   -0.97241E-02   -0.10161E-02   792   0.811E-02    0.402E+01
DAV:  28    -0.660651749033E+03   -0.13715E+00   -0.65824E-03   840   0.760E-02    0.406E+01
DAV:  29    -0.660717405298E+03   -0.65656E-01   -0.39240E-03   792   0.637E-02    0.405E+01
DAV:  30    -0.659649116387E+03    0.10683E+01   -0.65254E-01   864   0.576E-01    0.358E+01
DAV:  31    -0.660498525184E+03   -0.84941E+00   -0.29570E+00   936   0.601E-01    0.414E+01
DAV:  32    -0.654882735943E+03    0.56158E+01   -0.18637E+01   900   0.444E+00    0.176E+01
DAV:  33    -0.655030587644E+03   -0.14785E+00   -0.11391E+00   864   0.172E+00    0.203E+01
DAV:  34    -0.655981661407E+03   -0.95107E+00   -0.10986E+00   876   0.991E-01    0.246E+01
DAV:  35    -0.655936774299E+03    0.44887E-01   -0.43033E-02   852   0.301E-01    0.243E+01
DAV:  36    -0.655865742128E+03    0.71032E-01   -0.12812E-02   888   0.196E-01    0.236E+01
DAV:  37    -0.655437350591E+03    0.42839E+00   -0.11131E+00   852   0.109E+00    0.165E+01
DAV:  38    -0.654831122349E+03    0.60623E+00   -0.24770E+00   912   0.255E+00    0.109E+01
DAV:  39    -0.654551020818E+03    0.28010E+00   -0.45636E-01   924   0.831E-01    0.873E+00
DAV:  40    -0.654313480949E+03    0.23754E+00   -0.19616E-01   900   0.906E-01    0.819E+00
DAV:  41    -0.654057165295E+03    0.25632E+00   -0.42552E-01   864   0.163E+00    0.794E+00
DAV:  42    -0.653929900788E+03    0.12726E+00   -0.39192E-01   828   0.105E+00    0.762E+00
DAV:  43    -0.653939239577E+03   -0.93388E-02   -0.40985E-02   948   0.678E-01    0.770E+00
DAV:  44    -0.653947081662E+03   -0.78421E-02   -0.29159E-01   936   0.145E+00    0.609E+00
DAV:  45    -0.654080906616E+03   -0.13382E+00   -0.75139E-02   900   0.647E-01    0.495E+00
DAV:  46    -0.654154285466E+03   -0.73379E-01   -0.55855E-02   876   0.653E-01    0.472E+00
DAV:  47    -0.654184759375E+03   -0.30474E-01   -0.13261E-02   924   0.407E-01    0.444E+00
DAV:  48    -0.654191110101E+03   -0.63507E-02   -0.86357E-03   948   0.261E-01    0.423E+00
DAV:  49    -0.654186642810E+03    0.44673E-02   -0.40493E-03   888   0.157E-01    0.411E+00
DAV:  50    -0.654157614003E+03    0.29029E-01   -0.51576E-03   864   0.164E-01    0.400E+00
DAV:  51    -0.654149963098E+03    0.76509E-02   -0.12440E-02   924   0.394E-01    0.383E+00
DAV:  52    -0.654122321851E+03    0.27641E-01   -0.23751E-03   828   0.972E-02    0.372E+00
DAV:  53    -0.654080399736E+03    0.41922E-01   -0.10856E-03   768   0.936E-02    0.355E+00
DAV:  54    -0.653970295324E+03    0.11010E+00   -0.61668E-03   744   0.203E-01    0.337E+00
DAV:  55    -0.653918702493E+03    0.51593E-01   -0.40777E-03   780   0.898E-02    0.332E+00
DAV:  56    -0.653660888120E+03    0.25781E+00   -0.13726E-01   780   0.111E+00    0.453E+00
DAV:  57    -0.653649320371E+03    0.11568E-01   -0.48816E-02   852   0.354E-01    0.431E+00
DAV:  58    -0.653643309530E+03    0.60108E-02   -0.25919E-03   888   0.944E-02    0.423E+00
DAV:  59    -0.653613584493E+03    0.29725E-01   -0.24828E-03   816   0.173E-01    0.383E+00
DAV:  60    -0.653596868808E+03    0.16716E-01   -0.20006E-03   888   0.123E-01    0.346E+00
DAV:  61    -0.653688380999E+03   -0.91512E-01   -0.24991E+00   984   0.297E+00    0.353E+00
DAV:  62    -0.653689495543E+03   -0.11145E-02   -0.11514E-01   708   0.447E-01    0.373E+00
DAV:  63    -0.653658483059E+03    0.31012E-01   -0.59701E-03   828   0.174E-01    0.366E+00
DAV:  64    -0.653647770651E+03    0.10712E-01   -0.29319E-03   816   0.103E-01    0.360E+00
DAV:  65    -0.653631983731E+03    0.15787E-01   -0.15538E-02   960   0.343E-01    0.368E+00
DAV:  66    -0.653548243190E+03    0.83741E-01   -0.11687E-01   888   0.798E-01    0.187E+00
DAV:  67    -0.653534451746E+03    0.13791E-01   -0.25620E-02   912   0.307E-01    0.141E+00
DAV:  68    -0.653513225346E+03    0.21226E-01   -0.13955E-01   960   0.523E-01    0.172E+00
DAV:  69    -0.653494159508E+03    0.19066E-01   -0.33959E-02   780   0.268E-01    0.862E-01
DAV:  70    -0.653490086924E+03    0.40726E-02   -0.26159E-03   864   0.784E-02    0.818E-01
DAV:  71    -0.653482220765E+03    0.78662E-02   -0.22030E-03   732   0.659E-02    0.672E-01
DAV:  72    -0.653482232101E+03   -0.11335E-04   -0.18745E-03   816   0.618E-02    0.740E-01
DAV:  73    -0.653481456302E+03    0.77580E-03   -0.39314E-04   732   0.320E-02    0.758E-01
DAV:  74    -0.653480592680E+03    0.86362E-03   -0.20917E-04   504   0.233E-02    0.819E-01
DAV:  75    -0.653476633209E+03    0.39595E-02   -0.30753E-04   576   0.282E-02    0.726E-01
DAV:  76    -0.653467815596E+03    0.88176E-02   -0.37723E-03   816   0.883E-02    0.737E-01
DAV:  77    -0.653464504843E+03    0.33108E-02   -0.81448E-04   708   0.494E-02    0.553E-01
DAV:  78    -0.653461742204E+03    0.27626E-02   -0.40415E-03   708   0.782E-02    0.275E-01
DAV:  79    -0.653461832597E+03   -0.90393E-04   -0.66632E-04   744   0.365E-02
   1 F= -.66891980E+03 E0= -.66886382E+03  d E =-.668920E+03
       N       E                     dE             d eps       ncg     rms          rms(c)
DAV:   1    -0.653116228927E+03    0.34551E+00   -0.21829E+02   600   0.182E+01    0.283E+01
DAV:   2    -0.654820589397E+03   -0.17044E+01   -0.17787E+01   816   0.658E+00    0.164E+01
DAV:   3    -0.656234394076E+03   -0.14138E+01   -0.23366E+01   876   0.121E+01    0.165E+01
DAV:   4    -0.654405250284E+03    0.18291E+01   -0.91162E+00   852   0.578E+00    0.120E+01
DAV:   5    -0.654408377335E+03   -0.31271E-02   -0.38932E+00   900   0.331E+00    0.792E+00
DAV:   6    -0.654299007449E+03    0.10937E+00   -0.38515E-01   804   0.933E-01    0.659E+00
DAV:   7    -0.654309610342E+03   -0.10603E-01   -0.13222E+00   780   0.502E-01    0.599E+00
DAV:   8    -0.654309914887E+03   -0.30454E-03   -0.87907E-01   924   0.117E+00    0.480E+00
DAV:   9    -0.654317549921E+03   -0.76350E-02   -0.13995E+00   912   0.114E+00    0.293E+00
DAV:  10    -0.654265885803E+03    0.51664E-01   -0.10098E-01   840   0.491E-01    0.103E+00
DAV:  11    -0.654254773415E+03    0.11112E-01   -0.23203E-02   900   0.234E-01    0.473E-01
DAV:  12    -0.654250962922E+03    0.38105E-02   -0.34315E-03   816   0.103E-01    0.446E-01
DAV:  13    -0.654241512068E+03    0.94509E-02   -0.32853E-03   804   0.693E-02    0.361E-01
DAV:  14    -0.654227665726E+03    0.13846E-01   -0.68117E-03   804   0.114E-01    0.470E-01
DAV:  15    -0.654223791415E+03    0.38743E-02   -0.45973E-03   792   0.704E-02    0.169E-01
DAV:  16    -0.654222878726E+03    0.91269E-03   -0.13041E-03   732   0.476E-02    0.103E-01
DAV:  17    -0.654222621394E+03    0.25733E-03   -0.21323E-04   468   0.231E-02    0.121E-01
DAV:  18    -0.654222492333E+03    0.12906E-03   -0.47607E-04   396   0.276E-02    0.539E-02
DAV:  19    -0.654222598610E+03   -0.10628E-03   -0.10415E-04   468   0.171E-02    0.104E-01
DAV:  20    -0.654223099869E+03   -0.50126E-03   -0.12809E-03   432   0.320E-02    0.324E-01
DAV:  21    -0.654222568105E+03    0.53176E-03   -0.68886E-04   372   0.245E-02    0.268E-02
DAV:  22    -0.654222578135E+03   -0.10030E-04   -0.59431E-05   336   0.169E-02
   2 F= -.66970265E+03 E0= -.66964326E+03  d E =-.782845E+00
       N       E                     dE             d eps       ncg     rms          rms(c)
DAV:   1    -0.654459737649E+03   -0.23717E+00   -0.28485E+01   600   0.667E+00    0.489E+00
DAV:   2    -0.654676913914E+03   -0.21718E+00   -0.23944E+00   816   0.220E+00    0.456E+00
DAV:   3    -0.655208674171E+03   -0.53176E+00   -0.64998E+00   888   0.526E+00    0.759E+00
DAV:   4    -0.654604130125E+03    0.60454E+00   -0.13707E+00   864   0.434E+00    0.155E+00
DAV:   5    -0.654581436143E+03    0.22694E-01   -0.84364E-01   828   0.778E-01    0.131E+00
DAV:   6    -0.654599058416E+03   -0.17622E-01   -0.28869E-01   888   0.659E-01    0.274E+00
DAV:   7    -0.654570106670E+03    0.28952E-01   -0.16772E-01   828   0.428E-01    0.563E-01
DAV:   8    -0.654564045647E+03    0.60610E-02   -0.13148E-02   852   0.206E-01    0.500E-01
DAV:   9    -0.654562936059E+03    0.11096E-02   -0.15473E-02   900   0.177E-01    0.284E-01
DAV:  10    -0.654562388521E+03    0.54754E-03   -0.61867E-03   840   0.101E-01    0.172E-01
DAV:  11    -0.654562218917E+03    0.16960E-03   -0.94540E-04   744   0.452E-02    0.969E-02
DAV:  12    -0.654562174220E+03    0.44697E-04   -0.15879E-04   480   0.247E-02
   3 F= -.67003089E+03 E0= -.66997107E+03  d E =-.111109E+01
       N       E                     dE             d eps       ncg     rms          rms(c)
DAV:   1    -0.653215327580E+03    0.13469E+01   -0.19159E+02   600   0.185E+01    0.891E+00
DAV:   2    -0.654169328711E+03   -0.95400E+00   -0.10219E+01   816   0.503E+00    0.775E+00
DAV:   3    -0.654902437201E+03   -0.73311E+00   -0.13900E+01   912   0.938E+00    0.986E+00
DAV:   4    -0.653867984562E+03    0.10345E+01   -0.36858E+00   852   0.418E+00    0.500E+00
DAV:   5    -0.653936540810E+03   -0.68556E-01   -0.31839E+00   888   0.228E+00    0.440E+00
DAV:   6    -0.653861188021E+03    0.75353E-01   -0.12995E-01   768   0.577E-01    0.407E+00
DAV:   7    -0.653866533786E+03   -0.53458E-02   -0.28255E-01   780   0.335E-01    0.398E+00
DAV:   8    -0.653801565198E+03    0.64969E-01   -0.46954E-02   960   0.567E-01    0.249E+00
DAV:   9    -0.653811868882E+03   -0.10304E-01   -0.49813E-01   924   0.881E-01    0.261E+00
DAV:  10    -0.653788362059E+03    0.23507E-01   -0.19341E-01   816   0.471E-01    0.879E-01
DAV:  11    -0.653786597761E+03    0.17643E-02   -0.75036E-02   852   0.225E-01    0.136E+00
DAV:  12    -0.653791517113E+03   -0.49194E-02   -0.26705E-01   936   0.356E-01    0.191E+00
DAV:  13    -0.653775615814E+03    0.15901E-01   -0.77760E-02   828   0.189E-01    0.366E-01
DAV:  14    -0.653775422143E+03    0.19367E-03   -0.32112E-02   816   0.123E-01    0.140E+00
DAV:  15    -0.653768374983E+03    0.70472E-02   -0.46824E-02   792   0.151E-01    0.127E-01
DAV:  16    -0.653768249431E+03    0.12555E-03   -0.98500E-04   852   0.703E-02    0.186E-01
DAV:  17    -0.653768371040E+03   -0.12161E-03   -0.13164E-04   432   0.238E-02    0.206E-01
DAV:  18    -0.653768267778E+03    0.10326E-03   -0.56947E-04   468   0.312E-02    0.302E-02
DAV:  19    -0.653768323341E+03   -0.55562E-04   -0.64248E-05   420   0.160E-02
   4 F= -.66924958E+03 E0= -.66919414E+03  d E =0.781304E+00
       N       E                     dE             d eps       ncg     rms          rms(c)
DAV:   1    -0.654637966854E+03   -0.86970E+00   -0.86557E+01   600   0.121E+01    0.562E+00
DAV:   2    -0.655094105802E+03   -0.45614E+00   -0.54804E+00   816   0.345E+00    0.543E+00
DAV:   3    -0.655620722554E+03   -0.52662E+00   -0.54191E+00   876   0.570E+00    0.852E+00
DAV:   4    -0.654859658612E+03    0.76106E+00   -0.15824E+00   864   0.464E+00    0.183E+00
DAV:   5    -0.654847202311E+03    0.12456E-01   -0.10128E+00   840   0.982E-01    0.186E+00
DAV:   6    -0.654837837605E+03    0.93647E-02   -0.81778E-02   828   0.611E-01    0.183E+00
DAV:   7    -0.654828144065E+03    0.96935E-02   -0.26477E-01   912   0.577E-01    0.155E+00
DAV:   8    -0.654819341556E+03    0.88025E-02   -0.59312E-02   828   0.246E-01    0.509E-01
DAV:   9    -0.654818945786E+03    0.39577E-03   -0.35018E-02   876   0.250E-01    0.881E-01
DAV:  10    -0.654816404865E+03    0.25409E-02   -0.92096E-03   852   0.107E-01    0.267E-01
DAV:  11    -0.654816472149E+03   -0.67284E-04   -0.20968E-03   840   0.689E-02    0.354E-01
DAV:  12    -0.654816092949E+03    0.37920E-03   -0.11013E-03   528   0.409E-02    0.129E-01
DAV:  13    -0.654816079017E+03    0.13931E-04   -0.84104E-04   552   0.365E-02
   5 F= -.67028836E+03 E0= -.67022907E+03  d E =-.257474E+00
       N       E                     dE             d eps       ncg     rms          rms(c)
DAV:   1    -0.654964341427E+03   -0.14825E+00   -0.52797E+01   600   0.940E+00    0.272E+00
DAV:   2    -0.655033718863E+03   -0.69377E-01   -0.10071E+00   792   0.157E+00    0.156E+00
DAV:   3    -0.655029596821E+03    0.41220E-02   -0.10955E-01   876   0.607E-01    0.160E+00
DAV:   4    -0.655124712716E+03   -0.95116E-01   -0.72564E-01   876   0.141E+00    0.425E+00
DAV:   5    -0.655043275020E+03    0.81438E-01   -0.15344E-01   888   0.979E-01    0.137E+00
DAV:   6    -0.655026013007E+03    0.17262E-01   -0.48226E-02   828   0.414E-01    0.154E+00
DAV:   7    -0.655019285849E+03    0.67272E-02   -0.78544E-03   828   0.146E-01    0.837E-01
DAV:   8    -0.655016059112E+03    0.32267E-02   -0.83912E-03   852   0.143E-01    0.307E-01
DAV:   9    -0.655016481194E+03   -0.42208E-03   -0.42778E-03   804   0.804E-02    0.229E-01
DAV:  10    -0.655016082110E+03    0.39908E-03   -0.25001E-03   696   0.465E-02    0.165E-01
DAV:  11    -0.655016035431E+03    0.46679E-04   -0.77519E-04   564   0.407E-02
   6 F= -.67048038E+03 E0= -.67042301E+03  d E =-.192016E+00
       N       E                     dE             d eps       ncg     rms          rms(c)
DAV:   1    -0.655016354831E+03   -0.27272E-03   -0.35728E-01   600   0.773E-01    0.227E-01
DAV:   2    -0.655016886641E+03   -0.53181E-03   -0.72903E-03   804   0.137E-01    0.143E-01
DAV:   3    -0.655018279076E+03   -0.13924E-02   -0.65397E-03   816   0.124E-01    0.672E-01
DAV:   4    -0.655016950928E+03    0.13281E-02   -0.55595E-03   624   0.109E-01    0.163E-01
DAV:   5    -0.655017038967E+03   -0.88040E-04   -0.49003E-03   708   0.837E-02    0.325E-01
DAV:   6    -0.655016681075E+03    0.35789E-03   -0.13488E-03   576   0.464E-02    0.121E-01
DAV:   7    -0.655016657470E+03    0.23605E-04   -0.19577E-04   504   0.275E-02
   7 F= -.67048179E+03 E0= -.67042407E+03  d E =-.193427E+00
       N       E                     dE             d eps       ncg     rms          rms(c)
DAV:   1    -0.655066905340E+03   -0.50224E-01   -0.34928E+01   600   0.759E+00    0.233E+00
DAV:   2    -0.655163232504E+03   -0.96327E-01   -0.11500E+00   804   0.158E+00    0.284E+00
DAV:   3    -0.655315884942E+03   -0.15265E+00   -0.25181E+00   888   0.209E+00    0.447E+00
DAV:   4    -0.655159091921E+03    0.15679E+00   -0.50085E-01   864   0.189E+00    0.244E+00
DAV:   5    -0.655148886648E+03    0.10205E-01   -0.27786E-01   852   0.546E-01    0.143E+00
DAV:   6    -0.655139591886E+03    0.92948E-02   -0.60087E-02   816   0.357E-01    0.988E-01
DAV:   7    -0.655141574701E+03   -0.19828E-02   -0.46256E-02   816   0.146E-01    0.848E-01
DAV:   8    -0.655136633729E+03    0.49410E-02   -0.33292E-02   804   0.201E-01    0.307E-01
DAV:   9    -0.655136030435E+03    0.60329E-03   -0.38947E-03   816   0.102E-01    0.145E-01
DAV:  10    -0.655136041362E+03   -0.10927E-04   -0.67268E-04   756   0.448E-02
   8 F= -.67059242E+03 E0= -.67053497E+03  d E =-.110628E+00
       N       E                     dE             d eps       ncg     rms          rms(c)
DAV:   1    -0.655138403162E+03   -0.23727E-02   -0.12869E+00   600   0.146E+00    0.485E-01
DAV:   2    -0.655141730383E+03   -0.33272E-02   -0.42187E-02   816   0.340E-01    0.439E-01
DAV:   3    -0.655156935184E+03   -0.15205E-01   -0.16969E-01   888   0.467E-01    0.224E+00
DAV:   4    -0.655142002655E+03    0.14933E-01   -0.10377E-01   864   0.349E-01    0.205E-01
DAV:   5    -0.655141984192E+03    0.18464E-04   -0.36833E-03   816   0.103E-01    0.538E-01
DAV:   6    -0.655141622955E+03    0.36124E-03   -0.53966E-03   756   0.792E-02    0.376E-01
DAV:   7    -0.655141037699E+03    0.58526E-03   -0.17896E-03   696   0.512E-02    0.338E-01
DAV:   8    -0.655140777253E+03    0.26045E-03   -0.89953E-04   516   0.509E-02    0.103E-01
DAV:   9    -0.655140833486E+03   -0.56232E-04   -0.93935E-05   396   0.189E-02
   9 F= -.67059883E+03 E0= -.67054141E+03  d E =-.117038E+00
       N       E                     dE             d eps       ncg     rms          rms(c)
DAV:   1    -0.655229348821E+03   -0.88572E-01   -0.14530E+01   600   0.484E+00    0.164E+00
DAV:   2    -0.655272322656E+03   -0.42974E-01   -0.51176E-01   840   0.103E+00    0.110E+00
DAV:   3    -0.655334187406E+03   -0.61865E-01   -0.56809E-01   864   0.108E+00    0.380E+00
DAV:   4    -0.655276019408E+03    0.58168E-01   -0.11403E-01   876   0.818E-01    0.830E-01
DAV:   5    -0.655274326160E+03    0.16932E-02   -0.23265E-01   828   0.291E-01    0.131E+00
DAV:   6    -0.655276842241E+03   -0.25161E-02   -0.28443E-02   852   0.201E-01    0.503E-01
DAV:   7    -0.655271947524E+03    0.48947E-02   -0.14500E-02   804   0.165E-01    0.448E-01
DAV:   8    -0.655270409467E+03    0.15381E-02   -0.20320E-03   828   0.999E-02    0.436E-01
DAV:   9    -0.655267087227E+03    0.33222E-02   -0.59346E-04   720   0.436E-02    0.279E-01
DAV:  10    -0.655264708563E+03    0.23787E-02   -0.18299E-03   720   0.401E-02    0.158E-01
DAV:  11    -0.655264643484E+03    0.65079E-04   -0.21606E-04   564   0.263E-02
  10 F= -.67071765E+03 E0= -.67066137E+03  d E =-.118824E+00
       N       E                     dE             d eps       ncg     rms          rms(c)
DAV:   1    -0.655275550564E+03   -0.10842E-01   -0.73648E+00   600   0.343E+00    0.119E+00
DAV:   2    -0.655306693532E+03   -0.31143E-01   -0.34325E-01   864   0.872E-01    0.194E+00
DAV:   3    -0.655371126230E+03   -0.64433E-01   -0.73226E-01   864   0.124E+00    0.394E+00
DAV:   4    -0.655299408400E+03    0.71718E-01   -0.84400E-02   852   0.776E-01    0.102E+00
DAV:   5    -0.655293667130E+03    0.57413E-02   -0.19749E-02   864   0.223E-01    0.496E-01
DAV:   6    -0.655294282419E+03   -0.61529E-03   -0.10596E-02   816   0.139E-01    0.394E-01
DAV:   7    -0.655294658984E+03   -0.37657E-03   -0.10672E-02   792   0.108E-01    0.333E-01
DAV:   8    -0.655293920695E+03    0.73829E-03   -0.43423E-03   756   0.472E-02    0.210E-01
DAV:   9    -0.655293662065E+03    0.25863E-03   -0.80334E-04   708   0.517E-02    0.115E-01
DAV:  10    -0.655293619645E+03    0.42420E-04   -0.23058E-04   516   0.291E-02
  11 F= -.67074336E+03 E0= -.67068706E+03  d E =-.144532E+00
       N       E                     dE             d eps       ncg     rms          rms(c)
DAV:   1    -0.655353742155E+03   -0.60080E-01   -0.13600E+01   600   0.475E+00    0.142E+00
DAV:   2    -0.655450701061E+03   -0.96959E-01   -0.10665E+00   876   0.152E+00    0.357E+00
DAV:   3    -0.655443150826E+03    0.75502E-02   -0.10979E+00   876   0.156E+00    0.376E+00
DAV:   4    -0.655391008862E+03    0.52142E-01   -0.46419E-02   852   0.582E-01    0.112E+00
DAV:   5    -0.655384787650E+03    0.62212E-02   -0.93656E-02   864   0.343E-01    0.874E-01
DAV:   6    -0.655379559952E+03    0.52277E-02   -0.25250E-02   864   0.309E-01    0.471E-01
DAV:   7    -0.655379655959E+03   -0.96007E-04   -0.62961E-03   900   0.159E-01    0.417E-01
DAV:   8    -0.655379117106E+03    0.53885E-03   -0.20791E-03   852   0.680E-02    0.126E-01
DAV:   9    -0.655378942438E+03    0.17467E-03   -0.74889E-04   780   0.491E-02    0.933E-02
DAV:  10    -0.655378940180E+03    0.22580E-05   -0.98190E-05   408   0.172E-02
  12 F= -.67082435E+03 E0= -.67076842E+03  d E =-.809934E-01
       N       E                     dE             d eps       ncg     rms          rms(c)
DAV:   1    -0.655382549236E+03   -0.36068E-02   -0.11817E+00   600   0.140E+00    0.436E-01
DAV:   2    -0.655392311550E+03   -0.97623E-02   -0.88627E-02   876   0.451E-01    0.153E+00
DAV:   3    -0.655391379954E+03    0.93160E-03   -0.10704E-01   876   0.454E-01    0.151E+00
DAV:   4    -0.655386116910E+03    0.52630E-02   -0.66814E-03   852   0.159E-01    0.291E-01
DAV:   5    -0.655385662406E+03    0.45450E-03   -0.29627E-03   840   0.101E-01    0.434E-01
DAV:   6    -0.655384817629E+03    0.84478E-03   -0.15990E-03   756   0.803E-02    0.128E-01
DAV:   7    -0.655384984867E+03   -0.16724E-03   -0.46017E-04   636   0.495E-02    0.282E-01
DAV:   8    -0.655384800537E+03    0.18433E-03   -0.14035E-04   408   0.250E-02    0.116E-01
DAV:   9    -0.655384817672E+03   -0.17134E-04   -0.51600E-05   396   0.149E-02
  13 F= -.67082895E+03 E0= -.67077316E+03  d E =-.855863E-01
       N       E                     dE             d eps       ncg     rms          rms(c)
DAV:   1    -0.655425534713E+03   -0.40734E-01   -0.12120E+01   600   0.458E+00    0.104E+00
DAV:   2    -0.655447530827E+03   -0.21996E-01   -0.29431E-01   780   0.776E-01    0.593E-01
DAV:   3    -0.655445586283E+03    0.19445E-02   -0.13888E-02   852   0.200E-01    0.461E-01
DAV:   4    -0.655451346763E+03   -0.57605E-02   -0.42884E-02   852   0.278E-01    0.116E+00
DAV:   5    -0.655454296560E+03   -0.29498E-02   -0.94766E-02   888   0.381E-01    0.139E+00
DAV:   6    -0.655444696503E+03    0.96001E-02   -0.65338E-02   876   0.264E-01    0.378E-01
DAV:   7    -0.655443999510E+03    0.69699E-03   -0.29412E-03   840   0.977E-02    0.166E-01
DAV:   8    -0.655443879190E+03    0.12032E-03   -0.75547E-04   696   0.603E-02    0.125E-01
DAV:   9    -0.655443832022E+03    0.47167E-04   -0.30415E-04   564   0.396E-02
  14 F= -.67088366E+03 E0= -.67082712E+03  d E =-.547164E-01
       N       E                     dE             d eps       ncg     rms          rms(c)
DAV:   1    -0.655444710787E+03   -0.83160E-03   -0.17015E-01   600   0.543E-01    0.131E-01
DAV:   2    -0.655445128323E+03   -0.41754E-03   -0.44911E-03   792   0.100E-01    0.169E-01
DAV:   3    -0.655445994625E+03   -0.86630E-03   -0.43191E-03   792   0.123E-01    0.600E-01
DAV:   4    -0.655445165960E+03    0.82867E-03   -0.29042E-03   672   0.107E-01    0.181E-01
DAV:   5    -0.655445030508E+03    0.13545E-03   -0.23260E-04   516   0.372E-02    0.570E-02
DAV:   6    -0.655444998319E+03    0.32188E-04   -0.14988E-04   432   0.268E-02
  15 F= -.67088431E+03 E0= -.67082763E+03  d E =-.553695E-01
       N       E                     dE             d eps       ncg     rms          rms(c)
DAV:   1    -0.655495286242E+03   -0.50256E-01   -0.95602E+00   600   0.404E+00    0.118E+00
DAV:   2    -0.655547452710E+03   -0.52166E-01   -0.37825E-01   840   0.987E-01    0.311E+00
DAV:   3    -0.655556062824E+03   -0.86101E-02   -0.98720E-01   876   0.126E+00    0.315E+00
DAV:   4    -0.655518428912E+03    0.37634E-01   -0.33855E-01   876   0.718E-01    0.121E+00
DAV:   5    -0.655514957938E+03    0.34710E-02   -0.26850E-02   852   0.218E-01    0.794E-01
DAV:   6    -0.655515242111E+03   -0.28417E-03   -0.35783E-02   888   0.232E-01    0.105E+00
DAV:   7    -0.655513064281E+03    0.21778E-02   -0.63326E-03   768   0.922E-02    0.910E-01
DAV:   8    -0.655510887654E+03    0.21766E-02   -0.40443E-03   852   0.124E-01    0.211E-01
DAV:   9    -0.655510936641E+03   -0.48987E-04   -0.86056E-04   756   0.511E-02
  16 F= -.67094618E+03 E0= -.67088761E+03  d E =-.618633E-01
       N       E                     dE             d eps       ncg     rms          rms(c)
DAV:   1    -0.655516213370E+03   -0.53257E-02   -0.10809E+01   600   0.428E+00    0.131E+00
DAV:   2    -0.655587380535E+03   -0.71167E-01   -0.47640E-01   840   0.113E+00    0.347E+00
DAV:   3    -0.655583908702E+03    0.34718E-02   -0.11430E+00   876   0.151E+00    0.323E+00
DAV:   4    -0.655543583522E+03    0.40325E-01   -0.41639E-01   852   0.769E-01    0.140E+00
DAV:   5    -0.655538324623E+03    0.52589E-02   -0.37485E-02   852   0.265E-01    0.811E-01
DAV:   6    -0.655539320485E+03   -0.99586E-03   -0.43138E-02   912   0.263E-01    0.127E+00
DAV:   7    -0.655536481085E+03    0.28394E-02   -0.87240E-03   768   0.889E-02    0.988E-01
DAV:   8    -0.655533871539E+03    0.26095E-02   -0.60561E-03   792   0.121E-01    0.279E-01
DAV:   9    -0.655533831558E+03    0.39981E-04   -0.10184E-03   744   0.523E-02    0.134E-01
DAV:  10    -0.655533904910E+03   -0.73352E-04   -0.19942E-04   552   0.216E-02
  17 F= -.67096496E+03 E0= -.67090576E+03  d E =-.806417E-01
       N       E                     dE             d eps       ncg     rms          rms(c)
DAV:   1    -0.655556405786E+03   -0.22574E-01   -0.10473E+01   600   0.399E+00    0.149E+00
DAV:   2    -0.655595849919E+03   -0.39444E-01   -0.39275E-01   852   0.924E-01    0.220E+00
DAV:   3    -0.655692995976E+03   -0.97146E-01   -0.16218E+00   864   0.154E+00    0.401E+00
DAV:   4    -0.655586163873E+03    0.10683E+00   -0.29294E-01   840   0.111E+00    0.779E-01
DAV:   5    -0.655587362215E+03   -0.11983E-02   -0.51037E-02   864   0.295E-01    0.124E+00
DAV:   6    -0.655582557063E+03    0.48052E-02   -0.52959E-02   852   0.151E-01    0.735E-01
DAV:   7    -0.655581364993E+03    0.11921E-02   -0.14389E-02   864   0.147E-01    0.279E-01
DAV:   8    -0.655580784507E+03    0.58049E-03   -0.54530E-03   864   0.120E-01    0.293E-01
DAV:   9    -0.655580621049E+03    0.16346E-03   -0.14178E-03   756   0.552E-02    0.802E-02
DAV:  10    -0.655580595563E+03    0.25487E-04   -0.30347E-04   576   0.273E-02
  18 F= -.67100816E+03 E0= -.67094859E+03  d E =-.432011E-01
       N       E                     dE             d eps       ncg     rms          rms(c)
DAV:   1    -0.655581527051E+03   -0.90600E-03   -0.46394E-01   600   0.839E-01    0.322E-01
DAV:   2    -0.655585646797E+03   -0.41197E-02   -0.28209E-02   852   0.254E-01    0.107E+00
DAV:   3    -0.655586322565E+03   -0.67577E-03   -0.61663E-02   864   0.349E-01    0.113E+00
DAV:   4    -0.655583114319E+03    0.32082E-02   -0.22297E-02   792   0.173E-01    0.285E-01
DAV:   5    -0.655582796371E+03    0.31795E-03   -0.68367E-04   636   0.557E-02    0.113E-01
DAV:   6    -0.655582752983E+03    0.43388E-04   -0.12333E-03   672   0.516E-02    0.142E-01
DAV:   7    -0.655582709329E+03    0.43654E-04   -0.31156E-04   492   0.282E-02
  19 F= -.67100957E+03 E0= -.67094930E+03  d E =-.446125E-01
       N       E                     dE             d eps       ncg     rms          rms(c)
DAV:   1    -0.655606647911E+03   -0.23895E-01   -0.89949E+00   600   0.386E+00    0.140E+00
DAV:   2    -0.655646670934E+03   -0.40023E-01   -0.36742E-01   852   0.960E-01    0.239E+00
DAV:   3    -0.655726884397E+03   -0.80213E-01   -0.16033E+00   864   0.147E+00    0.394E+00
DAV:   4    -0.655631425467E+03    0.95459E-01   -0.25072E-01   840   0.995E-01    0.557E-01
DAV:   5    -0.655630431183E+03    0.99428E-03   -0.23324E-02   888   0.217E-01    0.113E+00
DAV:   6    -0.655628835882E+03    0.15953E-02   -0.68521E-03   864   0.962E-02    0.658E-01
DAV:   7    -0.655631134164E+03   -0.22983E-02   -0.57053E-02   816   0.194E-01    0.423E-01
DAV:   8    -0.655627900848E+03    0.32333E-02   -0.45788E-02   804   0.132E-01    0.543E-01
DAV:   9    -0.655627239175E+03    0.66167E-03   -0.14982E-03   684   0.577E-02    0.170E-01
DAV:  10    -0.655627149512E+03    0.89662E-04   -0.40289E-04   672   0.338E-02
  20 F= -.67105112E+03 E0= -.67099136E+03  d E =-.415460E-01
       N       E                     dE             d eps       ncg     rms          rms(c)
DAV:   1    -0.655628167414E+03   -0.92824E-03   -0.40117E-01   600   0.814E-01    0.302E-01
DAV:   2    -0.655631901131E+03   -0.37337E-02   -0.22955E-02   876   0.243E-01    0.100E+00
DAV:   3    -0.655632460952E+03   -0.55982E-03   -0.51032E-02   852   0.310E-01    0.109E+00
DAV:   4    -0.655629501854E+03    0.29591E-02   -0.18144E-02   792   0.160E-01    0.184E-01
DAV:   5    -0.655629225495E+03    0.27636E-03   -0.11960E-03   648   0.539E-02    0.127E-01
DAV:   6    -0.655629199339E+03    0.26156E-04   -0.37406E-04   696   0.347E-02
  21 F= -.67105258E+03 E0= -.67099219E+03  d E =-.430155E-01
       N       E                     dE             d eps       ncg     rms          rms(c)
DAV:   1    -0.655650831548E+03   -0.21606E-01   -0.43925E+00   600   0.275E+00    0.729E-01
DAV:   2    -0.655659942781E+03   -0.91112E-02   -0.11920E-01   816   0.520E-01    0.394E-01
DAV:   3    -0.655658891813E+03    0.10510E-02   -0.43470E-03   828   0.115E-01    0.284E-01
DAV:   4    -0.655660403455E+03   -0.15116E-02   -0.97422E-03   864   0.137E-01    0.649E-01
DAV:   5    -0.655661643617E+03   -0.12402E-02   -0.28902E-02   852   0.239E-01    0.103E+00
DAV:   6    -0.655659876668E+03    0.17669E-02   -0.12016E-02   852   0.167E-01    0.268E-01
DAV:   7    -0.655658622194E+03    0.12545E-02   -0.61612E-03   744   0.770E-02    0.117E-01
DAV:   8    -0.655658541223E+03    0.80971E-04   -0.23954E-04   564   0.321E-02
  22 F= -.67107920E+03 E0= -.67101971E+03  d E =-.266202E-01
       N       E                     dE             d eps       ncg     rms          rms(c)
DAV:   1    -0.655661673148E+03   -0.30510E-02   -0.15020E+00   600   0.161E+00    0.445E-01
DAV:   2    -0.655668456112E+03   -0.67830E-02   -0.58494E-02   900   0.390E-01    0.115E+00
DAV:   3    -0.655672576990E+03   -0.41209E-02   -0.82398E-02   876   0.412E-01    0.167E+00
DAV:   4    -0.655665672937E+03    0.69041E-02   -0.19681E-02   852   0.242E-01    0.292E-01
DAV:   5    -0.655664839354E+03    0.83358E-03   -0.52509E-03   804   0.916E-02    0.243E-01
DAV:   6    -0.655664411731E+03    0.42762E-03   -0.71723E-04   768   0.496E-02    0.763E-02
DAV:   7    -0.655664413571E+03   -0.18395E-05   -0.41048E-04   684   0.348E-02
  23 F= -.67108353E+03 E0= -.67102431E+03  d E =-.309455E-01
       N       E                     dE             d eps       ncg     rms          rms(c)
DAV:   1    -0.655683248781E+03   -0.18837E-01   -0.16193E+00   600   0.163E+00    0.429E-01
DAV:   2    -0.655692059874E+03   -0.88111E-02   -0.70678E-02   864   0.399E-01    0.148E+00
DAV:   3    -0.655691238126E+03    0.82175E-03   -0.84852E-02   876   0.391E-01    0.134E+00
DAV:   4    -0.655686448004E+03    0.47901E-02   -0.11582E-02   852   0.189E-01    0.255E-01
DAV:   5    -0.655686220745E+03    0.22726E-03   -0.21116E-03   876   0.826E-02    0.165E-01
DAV:   6    -0.655686086323E+03    0.13442E-03   -0.29236E-03   768   0.618E-02    0.143E-01
DAV:   7    -0.655685809639E+03    0.27668E-03   -0.14254E-03   612   0.401E-02    0.887E-02
DAV:   8    -0.655685775779E+03    0.33860E-04   -0.67849E-05   396   0.195E-02
  24 F= -.67110296E+03 E0= -.67104384E+03  d E =-.194276E-01
       N       E                     dE             d eps       ncg     rms          rms(c)
DAV:   1    -0.655699595518E+03   -0.13786E-01   -0.14566E+01   600   0.489E+00    0.125E+00
DAV:   2    -0.655752520333E+03   -0.52925E-01   -0.58715E-01   852   0.105E+00    0.280E+00
DAV:   3    -0.655782158619E+03   -0.29638E-01   -0.85475E-01   876   0.115E+00    0.343E+00
DAV:   4    -0.655728713080E+03    0.53446E-01   -0.73684E-02   876   0.696E-01    0.579E-01
DAV:   5    -0.655726913016E+03    0.18001E-02   -0.59960E-02   840   0.234E-01    0.529E-01
DAV:   6    -0.655723621462E+03    0.32916E-02   -0.85328E-03   840   0.171E-01    0.538E-01
DAV:   7    -0.655722965106E+03    0.65636E-03   -0.28298E-03   852   0.949E-02    0.240E-01
DAV:   8    -0.655722784676E+03    0.18043E-03   -0.99258E-04   804   0.673E-02    0.951E-02
DAV:   9    -0.655722644384E+03    0.14029E-03   -0.32919E-04   636   0.309E-02    0.692E-02
DAV:  10    -0.655722650639E+03   -0.62549E-05   -0.10255E-04   432   0.193E-02
  25 F= -.67113419E+03 E0= -.67107569E+03  d E =-.506577E-01
       N       E                     dE             d eps       ncg     rms          rms(c)
DAV:   1    -0.655723948323E+03   -0.13039E-02   -0.97003E-01   600   0.126E+00    0.321E-01
DAV:   2    -0.655726826947E+03   -0.28786E-02   -0.26580E-02   840   0.257E-01    0.659E-01
DAV:   3    -0.655730733284E+03   -0.39063E-02   -0.33253E-02   840   0.280E-01    0.135E+00
DAV:   4    -0.655725965202E+03    0.47681E-02   -0.14128E-02   804   0.201E-01    0.248E-01
DAV:   5    -0.655725741607E+03    0.22360E-03   -0.97048E-04   720   0.591E-02    0.154E-01
DAV:   6    -0.655725654814E+03    0.86793E-04   -0.10245E-03   660   0.525E-02    0.136E-01
DAV:   7    -0.655725594279E+03    0.60535E-04   -0.41787E-04   468   0.285E-02
  26 F= -.67113571E+03 E0= -.67107802E+03  d E =-.521848E-01
       N       E                     dE             d eps       ncg     rms          rms(c)
DAV:   1    -0.655748246588E+03   -0.22592E-01   -0.35347E+00   600   0.236E+00    0.745E-01
DAV:   2    -0.655762169400E+03   -0.13923E-01   -0.12210E-01   852   0.525E-01    0.155E+00
DAV:   3    -0.655783446865E+03   -0.21277E-01   -0.21118E-01   876   0.656E-01    0.276E+00
DAV:   4    -0.655757045454E+03    0.26401E-01   -0.49459E-02   840   0.451E-01    0.338E-01
DAV:   5    -0.655755867164E+03    0.11783E-02   -0.51716E-03   876   0.124E-01    0.312E-01
DAV:   6    -0.655755378968E+03    0.48820E-03   -0.53731E-03   792   0.834E-02    0.176E-01
DAV:   7    -0.655755186794E+03    0.19217E-03   -0.37028E-03   696   0.559E-02    0.122E-01
DAV:   8    -0.655755016657E+03    0.17014E-03   -0.59421E-04   528   0.417E-02    0.973E-02
DAV:   9    -0.655755032044E+03   -0.15387E-04   -0.28821E-04   420   0.335E-02
  27 F= -.67116128E+03 E0= -.67110355E+03  d E =-.255636E-01
       N       E                     dE             d eps       ncg     rms          rms(c)
DAV:   1    -0.655759967925E+03   -0.49513E-02   -0.83985E+00   600   0.364E+00    0.114E+00
DAV:   2    -0.655786216799E+03   -0.26249E-01   -0.26756E-01   876   0.750E-01    0.174E+00
DAV:   3    -0.655846678602E+03   -0.60462E-01   -0.45079E-01   888   0.989E-01    0.360E+00
DAV:   4    -0.655779577162E+03    0.67101E-01   -0.98218E-02   864   0.792E-01    0.425E-01
DAV:   5    -0.655777785142E+03    0.17920E-02   -0.13049E-02   876   0.166E-01    0.447E-01
DAV:   6    -0.655776972361E+03    0.81278E-03   -0.10737E-02   780   0.117E-01    0.315E-01
DAV:   7    -0.655776951609E+03    0.20752E-04   -0.80194E-03   744   0.968E-02    0.227E-01
DAV:   8    -0.655776349070E+03    0.60254E-03   -0.25085E-03   732   0.677E-02    0.248E-01
DAV:   9    -0.655776220939E+03    0.12813E-03   -0.97670E-04   636   0.580E-02    0.121E-01
DAV:  10    -0.655776163951E+03    0.56988E-04   -0.11799E-04   420   0.221E-02
  28 F= -.67117651E+03 E0= -.67111871E+03  d E =-.407968E-01
       N       E                     dE             d eps       ncg     rms          rms(c)
DAV:   1    -0.655797604818E+03   -0.21384E-01   -0.41964E+00   600   0.265E+00    0.884E-01
DAV:   2    -0.655811848224E+03   -0.14243E-01   -0.13952E-01   876   0.590E-01    0.129E+00
DAV:   3    -0.655856548004E+03   -0.44700E-01   -0.27129E-01   864   0.795E-01    0.333E+00
DAV:   4    -0.655809308785E+03    0.47239E-01   -0.76457E-02   852   0.622E-01    0.347E-01
DAV:   5    -0.655807750416E+03    0.15584E-02   -0.95944E-03   864   0.128E-01    0.515E-01
DAV:   6    -0.655806788666E+03    0.96175E-03   -0.59221E-03   804   0.100E-01    0.217E-01
DAV:   7    -0.655806937810E+03   -0.14914E-03   -0.38965E-03   780   0.693E-02    0.149E-01
DAV:   8    -0.655806538729E+03    0.39908E-03   -0.82617E-04   660   0.575E-02    0.936E-02
DAV:   9    -0.655806562288E+03   -0.23560E-04   -0.37466E-04   420   0.392E-02
  29 F= -.67120212E+03 E0= -.67114513E+03  d E =-.256090E-01
       N       E                     dE             d eps       ncg     rms          rms(c)
DAV:   1    -0.655810065552E+03   -0.35268E-02   -0.58387E+00   600   0.312E+00    0.104E+00
DAV:   2    -0.655831262806E+03   -0.21197E-01   -0.20106E-01   888   0.706E-01    0.164E+00
DAV:   3    -0.655886563614E+03   -0.55301E-01   -0.37623E-01   864   0.972E-01    0.357E+00
DAV:   4    -0.655826569836E+03    0.59994E-01   -0.89249E-02   852   0.689E-01    0.489E-01
DAV:   5    -0.655824188154E+03    0.23817E-02   -0.14571E-02   828   0.148E-01    0.639E-01
DAV:   6    -0.655822691198E+03    0.14970E-02   -0.56550E-03   792   0.116E-01    0.207E-01
DAV:   7    -0.655823268355E+03   -0.57716E-03   -0.22771E-03   816   0.869E-02    0.299E-01
DAV:   8    -0.655822653672E+03    0.61468E-03   -0.74635E-04   732   0.507E-02    0.153E-01
DAV:   9    -0.655822580675E+03    0.72997E-04   -0.76632E-04   504   0.513E-02
  30 F= -.67121253E+03 E0= -.67115583E+03  d E =-.360194E-01
       N       E                     dE             d eps       ncg     rms          rms(c)
DAV:   1    -0.655843461960E+03   -0.20808E-01   -0.46145E+00   600   0.275E+00    0.826E-01
DAV:   2    -0.655854295266E+03   -0.10833E-01   -0.13024E-01   828   0.536E-01    0.712E-01
DAV:   3    -0.655886205644E+03   -0.31910E-01   -0.33817E-01   876   0.599E-01    0.303E+00
DAV:   4    -0.655856435353E+03    0.29770E-01   -0.22409E-01   840   0.531E-01    0.863E-01
DAV:   5    -0.655853811196E+03    0.26242E-02   -0.86753E-03   876   0.149E-01    0.339E-01
DAV:   6    -0.655852616527E+03    0.11947E-02   -0.79287E-03   852   0.132E-01    0.284E-01
DAV:   7    -0.655852469672E+03    0.14686E-03   -0.20737E-03   768   0.669E-02    0.423E-01
DAV:   8    -0.655852026245E+03    0.44343E-03   -0.48560E-04   600   0.502E-02    0.158E-01
DAV:   9    -0.655852030698E+03   -0.44529E-05   -0.11160E-04   396   0.203E-02
  31 F= -.67123726E+03 E0= -.67117936E+03  d E =-.247300E-01
       N       E                     dE             d eps       ncg     rms          rms(c)
DAV:   1    -0.655848532309E+03    0.34939E-02   -0.16856E+01   600   0.525E+00    0.161E+00
DAV:   2    -0.655896574824E+03   -0.48043E-01   -0.51635E-01   852   0.108E+00    0.220E+00
DAV:   3    -0.656008541709E+03   -0.11197E+00   -0.17018E+00   876   0.143E+00    0.426E+00
DAV:   4    -0.655888337755E+03    0.12020E+00   -0.28002E-01   840   0.112E+00    0.111E+00
DAV:   5    -0.655886604859E+03    0.17329E-02   -0.49615E-02   876   0.279E-01    0.112E+00
DAV:   6    -0.655882583883E+03    0.40210E-02   -0.71263E-02   864   0.213E-01    0.749E-01
DAV:   7    -0.655880558380E+03    0.20255E-02   -0.10426E-02   804   0.126E-01    0.413E-01
DAV:   8    -0.655879732084E+03    0.82630E-03   -0.52106E-03   876   0.133E-01    0.305E-01
DAV:   9    -0.655879658679E+03    0.73405E-04   -0.12197E-03   636   0.527E-02    0.931E-02
DAV:  10    -0.655879578490E+03    0.80189E-04   -0.25462E-04   612   0.307E-02
  32 F= -.67125589E+03 E0= -.67119860E+03  d E =-.433604E-01
       N       E                     dE             d eps       ncg     rms          rms(c)
DAV:   1    -0.655898427815E+03   -0.18769E-01   -0.31489E+00   600   0.223E+00    0.631E-01
DAV:   2    -0.655911276460E+03   -0.12849E-01   -0.10526E-01   828   0.482E-01    0.161E+00
DAV:   3    -0.655921740505E+03   -0.10464E-01   -0.24401E-01   876   0.560E-01    0.234E+00
DAV:   4    -0.655907011185E+03    0.14729E-01   -0.11166E-01   888   0.387E-01    0.689E-01
DAV:   5    -0.655904574517E+03    0.24367E-02   -0.71839E-03   852   0.124E-01    0.248E-01
DAV:   6    -0.655904040927E+03    0.53359E-03   -0.57577E-03   852   0.119E-01    0.392E-01
DAV:   7    -0.655904031582E+03    0.93447E-05   -0.11552E-03   696   0.466E-02    0.272E-01
DAV:   8    -0.655903657820E+03    0.37376E-03   -0.28289E-04   492   0.382E-02    0.123E-01
DAV:   9    -0.655903662554E+03   -0.47341E-05   -0.63320E-05   372   0.171E-02
  33 F= -.67127651E+03 E0= -.67121835E+03  d E =-.206220E-01
       N       E                     dE             d eps       ncg     rms          rms(c)
DAV:   1    -0.655898601857E+03    0.50560E-02   -0.22104E+01   600   0.591E+00    0.167E+00
DAV:   2    -0.655963107066E+03   -0.64505E-01   -0.64375E-01   816   0.120E+00    0.273E+00
DAV:   3    -0.656058944897E+03   -0.95838E-01   -0.18429E+00   876   0.152E+00    0.417E+00
DAV:   4    -0.655945182450E+03    0.11376E+00   -0.31470E-01   864   0.115E+00    0.117E+00
DAV:   5    -0.655942527350E+03    0.26551E-02   -0.64776E-02   876   0.329E-01    0.116E+00
DAV:   6    -0.655939098369E+03    0.34290E-02   -0.92048E-02   864   0.230E-01    0.880E-01
DAV:   7    -0.655936199049E+03    0.28993E-02   -0.23857E-02   840   0.162E-01    0.322E-01
DAV:   8    -0.655935187426E+03    0.10116E-02   -0.81035E-03   852   0.127E-01    0.275E-01
DAV:   9    -0.655935082910E+03    0.10452E-03   -0.13802E-03   672   0.526E-02    0.847E-02
DAV:  10    -0.655935030135E+03    0.52774E-04   -0.29941E-04   624   0.313E-02
  34 F= -.67129886E+03 E0= -.67124045E+03  d E =-.429719E-01
       N       E                     dE             d eps       ncg     rms          rms(c)
DAV:   1    -0.655952939864E+03   -0.17857E-01   -0.48107E+00   600   0.275E+00    0.785E-01
DAV:   2    -0.655971407032E+03   -0.18467E-01   -0.14902E-01   828   0.567E-01    0.191E+00
DAV:   3    -0.655989292673E+03   -0.17886E-01   -0.49067E-01   900   0.719E-01    0.280E+00
DAV:   4    -0.655964252055E+03    0.25041E-01   -0.22319E-01   888   0.466E-01    0.757E-01
DAV:   5    -0.655962494148E+03    0.17579E-02   -0.13022E-02   852   0.150E-01    0.507E-01
DAV:   6    -0.655961834068E+03    0.66008E-03   -0.16324E-02   888   0.151E-01    0.694E-01
DAV:   7    -0.655961064589E+03    0.76948E-03   -0.34837E-03   780   0.592E-02    0.568E-01
DAV:   8    -0.655960253403E+03    0.81119E-03   -0.18203E-03   660   0.650E-02    0.165E-01
DAV:   9    -0.655960269376E+03   -0.15973E-04   -0.21469E-04   492   0.261E-02
  35 F= -.67132068E+03 E0= -.67126103E+03  d E =-.218159E-01
       N       E                     dE             d eps       ncg     rms          rms(c)
DAV:   1    -0.655957803600E+03    0.24498E-02   -0.15503E+01   600   0.492E+00    0.141E+00
DAV:   2    -0.656003770663E+03   -0.45967E-01   -0.42322E-01   816   0.974E-01    0.252E+00
DAV:   3    -0.656076340385E+03   -0.72570E-01   -0.15239E+00   888   0.129E+00    0.390E+00
DAV:   4    -0.655987787695E+03    0.88553E-01   -0.31109E-01   876   0.870E-01    0.102E+00
DAV:   5    -0.655992769582E+03   -0.49819E-02   -0.86947E-02   900   0.345E-01    0.179E+00
DAV:   6    -0.655985546938E+03    0.72226E-02   -0.48100E-02   876   0.141E-01    0.115E+00
DAV:   7    -0.655982149788E+03    0.33972E-02   -0.18401E-02   900   0.138E-01    0.489E-01
DAV:   8    -0.655981237076E+03    0.91271E-03   -0.57514E-03   888   0.119E-01    0.166E-01
DAV:   9    -0.655981253379E+03   -0.16302E-04   -0.14868E-03   792   0.521E-02    0.141E-01
DAV:  10    -0.655981204049E+03    0.49330E-04   -0.33443E-04   636   0.295E-02
  36 F= -.67133558E+03 E0= -.67127540E+03  d E =-.367158E-01
       N       E                     dE             d eps       ncg     rms          rms(c)
DAV:   1    -0.655993550800E+03   -0.12297E-01   -0.43755E+00   600   0.264E+00    0.875E-01
DAV:   2    -0.656011774147E+03   -0.18223E-01   -0.14194E-01   840   0.603E-01    0.178E+00
DAV:   3    -0.656044880537E+03   -0.33106E-01   -0.72980E-01   876   0.806E-01    0.325E+00
DAV:   4    -0.656004256499E+03    0.40624E-01   -0.23970E-01   876   0.537E-01    0.417E-01
DAV:   5    -0.656004608235E+03   -0.35174E-03   -0.32970E-02   876   0.176E-01    0.908E-01
DAV:   6    -0.656003616529E+03    0.99171E-03   -0.10936E-02   852   0.101E-01    0.914E-01
DAV:   7    -0.656002209394E+03    0.14071E-02   -0.62621E-03   840   0.703E-02    0.459E-01
DAV:   8    -0.656001334588E+03    0.87481E-03   -0.48235E-03   780   0.902E-02    0.798E-02
DAV:   9    -0.656001357734E+03   -0.23146E-04   -0.35993E-04   600   0.293E-02
  37 F= -.67135308E+03 E0= -.67129243E+03  d E =-.174999E-01
       N       E                     dE             d eps       ncg     rms          rms(c)
DAV:   1    -0.656002730806E+03   -0.13962E-02   -0.26085E+00   600   0.203E+00    0.667E-01
DAV:   2    -0.656009953906E+03   -0.72231E-02   -0.75282E-02   840   0.420E-01    0.870E-01
DAV:   3    -0.656040846396E+03   -0.30892E-01   -0.41870E-01   864   0.583E-01    0.301E+00
DAV:   4    -0.656009446075E+03    0.31400E-01   -0.21023E-01   876   0.444E-01    0.304E-01
DAV:   5    -0.656009605659E+03   -0.15958E-03   -0.19144E-02   876   0.125E-01    0.925E-01
DAV:   6    -0.656008610875E+03    0.99478E-03   -0.25218E-03   768   0.533E-02    0.681E-01
DAV:   7    -0.656007996064E+03    0.61481E-03   -0.77917E-04   684   0.517E-02    0.375E-01
DAV:   8    -0.656007498137E+03    0.49793E-03   -0.18982E-03   600   0.510E-02    0.202E-01
DAV:   9    -0.656007408331E+03    0.89805E-04   -0.16452E-04   432   0.243E-02
  38 F= -.67135711E+03 E0= -.67129635E+03  d E =-.215316E-01
       N       E                     dE             d eps       ncg     rms          rms(c)
DAV:   1    -0.656020702768E+03   -0.13205E-01   -0.43879E+00   600   0.267E+00    0.914E-01
DAV:   2    -0.656031017796E+03   -0.10315E-01   -0.13670E-01   864   0.545E-01    0.469E-01
DAV:   3    -0.656032059747E+03   -0.10420E-02   -0.31484E-02   828   0.188E-01    0.689E-01
DAV:   4    -0.656032125867E+03   -0.66120E-04   -0.41774E-02   852   0.236E-01    0.102E+00
DAV:   5    -0.656030751913E+03    0.13740E-02   -0.13166E-02   852   0.155E-01    0.316E-01
DAV:   6    -0.656029473145E+03    0.12788E-02   -0.27675E-03   792   0.864E-02    0.162E-01
DAV:   7    -0.656029379317E+03    0.93828E-04   -0.11812E-03   828   0.551E-02    0.862E-02
DAV:   8    -0.656029343700E+03    0.35618E-04   -0.39376E-04   624   0.303E-02
  39 F= -.67137623E+03 E0= -.67131534E+03  d E =-.191187E-01
       N       E                     dE             d eps       ncg     rms          rms(c)
DAV:   1    -0.656028950385E+03    0.42893E-03   -0.58481E+00   600   0.308E+00    0.105E+00
DAV:   2    -0.656043941860E+03   -0.14991E-01   -0.19178E-01   864   0.636E-01    0.877E-01
DAV:   3    -0.656090470791E+03   -0.46529E-01   -0.24767E-01   852   0.688E-01    0.319E+00
DAV:   4    -0.656045344977E+03    0.45126E-01   -0.11659E-01   876   0.667E-01    0.826E-01
DAV:   5    -0.656042225780E+03    0.31192E-02   -0.42750E-02   780   0.156E-01    0.359E-01
DAV:   6    -0.656040653616E+03    0.15722E-02   -0.31231E-03   864   0.100E-01    0.193E-01
DAV:   7    -0.656040638735E+03    0.14881E-04   -0.24395E-03   876   0.814E-02    0.216E-01
DAV:   8    -0.656040565371E+03    0.73363E-04   -0.11226E-03   732   0.426E-02    0.126E-01
DAV:   9    -0.656040505804E+03    0.59567E-04   -0.19647E-04   516   0.245E-02
  40 F= -.67138420E+03 E0= -.67132320E+03  d E =-.270939E-01
       N       E                     dE             d eps       ncg     rms          rms(c)
DAV:   1    -0.656051987535E+03   -0.11422E-01   -0.36666E+00   600   0.243E+00    0.671E-01
DAV:   2    -0.656060480253E+03   -0.84927E-02   -0.10540E-01   828   0.450E-01    0.749E-01
DAV:   3    -0.656085540642E+03   -0.25060E-01   -0.13262E-01   864   0.485E-01    0.266E+00
DAV:   4    -0.656060890340E+03    0.24650E-01   -0.80350E-02   864   0.484E-01    0.637E-01
DAV:   5    -0.656060070927E+03    0.81941E-03   -0.89766E-03   792   0.128E-01    0.280E-01
DAV:   6    -0.656058440245E+03    0.16307E-02   -0.29862E-03   840   0.846E-02    0.213E-01
DAV:   7    -0.656058259839E+03    0.18041E-03   -0.81515E-04   744   0.461E-02    0.563E-02
DAV:   8    -0.656058284374E+03   -0.24535E-04   -0.22484E-04   552   0.290E-02
  41 F= -.67139859E+03 E0= -.67133757E+03  d E =-.143829E-01
       N       E                     dE             d eps       ncg     rms          rms(c)
DAV:   1    -0.656060531358E+03   -0.22715E-02   -0.19432E+00   600   0.177E+00    0.487E-01
DAV:   2    -0.656064725202E+03   -0.41938E-02   -0.53024E-02   840   0.323E-01    0.436E-01
DAV:   3    -0.656076060201E+03   -0.11335E-01   -0.51541E-02   864   0.306E-01    0.197E+00
DAV:   4    -0.656065318470E+03    0.10742E-01   -0.52180E-02   840   0.313E-01    0.558E-01
DAV:   5    -0.656065207948E+03    0.11052E-03   -0.41782E-03   828   0.105E-01    0.262E-01
DAV:   6    -0.656064022234E+03    0.11857E-02   -0.23743E-03   780   0.704E-02    0.238E-01
DAV:   7    -0.656063885113E+03    0.13712E-03   -0.10646E-03   732   0.419E-02    0.520E-02
DAV:   8    -0.656063885316E+03   -0.20320E-06   -0.20121E-04   528   0.259E-02
  42 F= -.67140174E+03 E0= -.67134079E+03  d E =-.175336E-01
       N       E                     dE             d eps       ncg     rms          rms(c)
DAV:   1    -0.656076598213E+03   -0.12713E-01   -0.31854E+00   600   0.222E+00    0.587E-01
DAV:   2    -0.656083312065E+03   -0.67139E-02   -0.82163E-02   840   0.385E-01    0.711E-01
DAV:   3    -0.656102673320E+03   -0.19361E-01   -0.89201E-02   888   0.417E-01    0.241E+00
DAV:   4    -0.656083498567E+03    0.19175E-01   -0.83787E-02   852   0.410E-01    0.616E-01
DAV:   5    -0.656083602910E+03   -0.10434E-03   -0.34856E-02   828   0.142E-01    0.344E-01
DAV:   6    -0.656081810345E+03    0.17926E-02   -0.18238E-02   780   0.855E-02    0.310E-01
DAV:   7    -0.656081504288E+03    0.30606E-03   -0.10277E-03   792   0.490E-02    0.643E-02
DAV:   8    -0.656081487141E+03    0.17147E-04   -0.34448E-04   612   0.332E-02
  43 F= -.67141534E+03 E0= -.67135446E+03  d E =-.136039E-01
       N       E                     dE             d eps       ncg     rms          rms(c)
DAV:   1    -0.656084738561E+03   -0.32343E-02   -0.57103E+00   600   0.298E+00    0.787E-01
DAV:   2    -0.656099157729E+03   -0.14419E-01   -0.17058E-01   852   0.529E-01    0.134E+00
DAV:   3    -0.656126546763E+03   -0.27389E-01   -0.22115E-01   900   0.590E-01    0.276E+00
DAV:   4    -0.656096040827E+03    0.30506E-01   -0.96539E-02   852   0.519E-01    0.654E-01
DAV:   5    -0.656095358255E+03    0.68257E-03   -0.11151E-02   888   0.154E-01    0.444E-01
DAV:   6    -0.656093920883E+03    0.14374E-02   -0.34421E-03   816   0.100E-01    0.168E-01
DAV:   7    -0.656093703831E+03    0.21705E-03   -0.34464E-03   816   0.745E-02    0.181E-01
DAV:   8    -0.656093587107E+03    0.11672E-03   -0.83178E-04   696   0.382E-02    0.154E-01
DAV:   9    -0.656093517497E+03    0.69609E-04   -0.16825E-04   504   0.243E-02
  44 F= -.67142207E+03 E0= -.67136128E+03  d E =-.203269E-01
       N       E                     dE             d eps       ncg     rms          rms(c)
DAV:   1    -0.656104075662E+03   -0.10489E-01   -0.21858E+00   600   0.190E+00    0.530E-01
DAV:   2    -0.656114125953E+03   -0.10050E-01   -0.97157E-02   852   0.409E-01    0.148E+00
DAV:   3    -0.656118829754E+03   -0.47038E-02   -0.12292E-01   900   0.412E-01    0.181E+00
DAV:   4    -0.656109627490E+03    0.92023E-02   -0.46946E-02   888   0.275E-01    0.412E-01
DAV:   5    -0.656108834797E+03    0.79269E-03   -0.12672E-02   816   0.103E-01    0.222E-01
DAV:   6    -0.656107939610E+03    0.89519E-03   -0.26596E-03   732   0.615E-02    0.970E-02
DAV:   7    -0.656107972541E+03   -0.32931E-04   -0.57574E-04   720   0.378E-02
  45 F= -.67143218E+03 E0= -.67137133E+03  d E =-.101168E-01
       N       E                     dE             d eps       ncg     rms          rms(c)
DAV:   1    -0.656111699100E+03   -0.37595E-02   -0.15141E+00   600   0.158E+00    0.449E-01
DAV:   2    -0.656121270333E+03   -0.95712E-02   -0.90628E-02   888   0.367E-01    0.158E+00
DAV:   3    -0.656120528441E+03    0.74189E-03   -0.11376E-01   876   0.383E-01    0.137E+00
DAV:   4    -0.656115138304E+03    0.53901E-02   -0.24423E-02   828   0.198E-01    0.316E-01
DAV:   5    -0.656115645796E+03   -0.50749E-03   -0.15411E-02   804   0.868E-02    0.229E-01
DAV:   6    -0.656114352450E+03    0.12933E-02   -0.84975E-03   744   0.612E-02    0.124E-01
DAV:   7    -0.656114367858E+03   -0.15408E-04   -0.28418E-04   588   0.293E-02
  46 F= -.67143498E+03 E0= -.67137450E+03  d E =-.129197E-01
       N       E                     dE             d eps       ncg     rms          rms(c)
DAV:   1    -0.656125070153E+03   -0.10718E-01   -0.18615E+00   600   0.178E+00    0.560E-01
DAV:   2    -0.656142374938E+03   -0.17305E-01   -0.17249E-01   864   0.451E-01    0.220E+00
DAV:   3    -0.656137635476E+03    0.47395E-02   -0.23108E-01   888   0.453E-01    0.161E+00
DAV:   4    -0.656130007271E+03    0.76282E-02   -0.41630E-02   876   0.244E-01    0.484E-01
DAV:   5    -0.656129184878E+03    0.82239E-03   -0.96383E-03   804   0.954E-02    0.257E-01
DAV:   6    -0.656128500274E+03    0.68460E-03   -0.25702E-03   804   0.641E-02    0.214E-01
DAV:   7    -0.656128445625E+03    0.54649E-04   -0.14706E-03   804   0.549E-02    0.865E-02
DAV:   8    -0.656128364844E+03    0.80781E-04   -0.31479E-04   600   0.267E-02
  47 F= -.67144484E+03 E0= -.67138400E+03  d E =-.985290E-02
       N       E                     dE             d eps       ncg     rms          rms(c)
DAV:   1    -0.656132542598E+03   -0.40970E-02   -0.43489E+00   600   0.272E+00    0.839E-01
DAV:   2    -0.656157559044E+03   -0.25016E-01   -0.26557E-01   876   0.602E-01    0.239E+00
DAV:   3    -0.656167329372E+03   -0.97703E-02   -0.39630E-01   864   0.618E-01    0.253E+00
DAV:   4    -0.656144558976E+03    0.22770E-01   -0.95498E-02   852   0.433E-01    0.618E-01
DAV:   5    -0.656141438524E+03    0.31205E-02   -0.22350E-02   828   0.146E-01    0.294E-01
DAV:   6    -0.656140633653E+03    0.80487E-03   -0.44419E-03   804   0.807E-02    0.332E-01
DAV:   7    -0.656140581750E+03    0.51903E-04   -0.11756E-03   792   0.546E-02    0.234E-01
DAV:   8    -0.656140415155E+03    0.16660E-03   -0.46671E-04   660   0.364E-02    0.108E-01
DAV:   9    -0.656140377602E+03    0.37553E-04   -0.17099E-04   504   0.234E-02
  48 F= -.67145056E+03 E0= -.67138970E+03  d E =-.155707E-01
       N       E                     dE             d eps       ncg     rms          rms(c)
DAV:   1    -0.656149242754E+03   -0.88276E-02   -0.22633E+00   600   0.189E+00    0.604E-01
DAV:   2    -0.656157450668E+03   -0.82079E-02   -0.82891E-02   840   0.381E-01    0.123E+00
DAV:   3    -0.656173500738E+03   -0.16050E-01   -0.12112E-01   852   0.477E-01    0.233E+00
DAV:   4    -0.656155333073E+03    0.18168E-01   -0.70009E-02   864   0.373E-01    0.532E-01
DAV:   5    -0.656154465812E+03    0.86726E-03   -0.17658E-02   804   0.114E-01    0.239E-01
DAV:   6    -0.656153255444E+03    0.12104E-02   -0.52030E-03   744   0.667E-02    0.107E-01
DAV:   7    -0.656153343467E+03   -0.88022E-04   -0.70903E-04   696   0.398E-02
  49 F= -.67145980E+03 E0= -.67139851E+03  d E =-.924189E-02
       N       E                     dE             d eps       ncg     rms          rms(c)
DAV:   1    -0.656156343602E+03   -0.30882E-02   -0.23668E+00   600   0.193E+00    0.607E-01
DAV:   2    -0.656161572054E+03   -0.52285E-02   -0.67873E-02   852   0.365E-01    0.504E-01
DAV:   3    -0.656176571828E+03   -0.15000E-01   -0.47404E-02   876   0.348E-01    0.214E+00
DAV:   4    -0.656162816457E+03    0.13755E-01   -0.76570E-02   852   0.355E-01    0.760E-01
DAV:   5    -0.656162273128E+03    0.54333E-03   -0.32504E-02   780   0.139E-01    0.265E-01
DAV:   6    -0.656160708873E+03    0.15643E-02   -0.13140E-02   744   0.768E-02    0.254E-01
DAV:   7    -0.656160555757E+03    0.15312E-03   -0.11566E-03   732   0.443E-02    0.882E-02
DAV:   8    -0.656160543426E+03    0.12331E-04   -0.22787E-04   552   0.294E-02
  50 F= -.67146321E+03 E0= -.67140227E+03  d E =-.126496E-01
       N       E                     dE             d eps       ncg     rms          rms(c)
DAV:   1    -0.656168973607E+03   -0.84179E-02   -0.30432E+00   600   0.216E+00    0.632E-01
DAV:   2    -0.656177412638E+03   -0.84390E-02   -0.94413E-02   804   0.405E-01    0.108E+00
DAV:   3    -0.656198213907E+03   -0.20801E-01   -0.12988E-01   864   0.458E-01    0.249E+00
DAV:   4    -0.656175732069E+03    0.22482E-01   -0.68338E-02   852   0.403E-01    0.514E-01
DAV:   5    -0.656175059792E+03    0.67228E-03   -0.13686E-02   840   0.129E-01    0.488E-01
DAV:   6    -0.656174229200E+03    0.83059E-03   -0.39037E-03   792   0.791E-02    0.182E-01
DAV:   7    -0.656174118935E+03    0.11027E-03   -0.74677E-04   708   0.503E-02    0.119E-01
DAV:   8    -0.656173987002E+03    0.13193E-03   -0.17562E-04   444   0.259E-02    0.349E-02
DAV:   9    -0.656173980589E+03    0.64134E-05   -0.63695E-05   372   0.179E-02
  51 F= -.67147356E+03 E0= -.67141291E+03  d E =-.103552E-01
       N       E                     dE             d eps       ncg     rms          rms(c)
DAV:   1    -0.656175730495E+03   -0.17435E-02   -0.22628E+00   600   0.186E+00    0.549E-01
DAV:   2    -0.656184984152E+03   -0.92537E-02   -0.91935E-02   804   0.387E-01    0.142E+00
DAV:   3    -0.656192813952E+03   -0.78298E-02   -0.12981E-01   852   0.382E-01    0.197E+00
DAV:   4    -0.656180700282E+03    0.12114E-01   -0.41437E-02   864   0.289E-01    0.450E-01
DAV:   5    -0.656179936417E+03    0.76386E-03   -0.71723E-03   840   0.943E-02    0.292E-01
DAV:   6    -0.656179597443E+03    0.33897E-03   -0.19211E-03   756   0.606E-02    0.137E-01
DAV:   7    -0.656179593413E+03    0.40301E-05   -0.67125E-04   660   0.407E-02
  52 F= -.67147653E+03 E0= -.67141567E+03  d E =-.133222E-01
       N       E                     dE             d eps       ncg     rms          rms(c)
DAV:   1    -0.656186837452E+03   -0.72400E-02   -0.21667E+00   600   0.188E+00    0.515E-01
DAV:   2    -0.656192809071E+03   -0.59716E-02   -0.64030E-02   828   0.351E-01    0.957E-01
DAV:   3    -0.656205330168E+03   -0.12521E-01   -0.87664E-02   864   0.351E-01    0.208E+00
DAV:   4    -0.656191708826E+03    0.13621E-01   -0.49086E-02   840   0.337E-01    0.552E-01
DAV:   5    -0.656191172199E+03    0.53663E-03   -0.59515E-03   828   0.105E-01    0.336E-01
DAV:   6    -0.656190364563E+03    0.80764E-03   -0.17004E-03   792   0.676E-02    0.158E-01
DAV:   7    -0.656190306763E+03    0.57799E-04   -0.14155E-03   648   0.489E-02    0.683E-02
DAV:   8    -0.656190236714E+03    0.70049E-04   -0.29616E-04   528   0.275E-02
  53 F= -.67148513E+03 E0= -.67142455E+03  d E =-.859843E-02
       N       E                     dE             d eps       ncg     rms          rms(c)
DAV:   1    -0.656188250261E+03    0.20565E-02   -0.83256E+00   600   0.370E+00    0.100E+00
DAV:   2    -0.656206170274E+03   -0.17920E-01   -0.21856E-01   828   0.655E-01    0.113E+00
DAV:   3    -0.656256534140E+03   -0.50364E-01   -0.23877E-01   852   0.643E-01    0.312E+00
DAV:   4    -0.656204857629E+03    0.51677E-01   -0.12353E-01   876   0.697E-01    0.824E-01
DAV:   5    -0.656206622491E+03   -0.17649E-02   -0.13747E-02   876   0.206E-01    0.576E-01
DAV:   6    -0.656202115656E+03    0.45068E-02   -0.66841E-03   828   0.125E-01    0.429E-01
DAV:   7    -0.656201451722E+03    0.66393E-03   -0.23141E-03   852   0.710E-02    0.151E-01
DAV:   8    -0.656201432026E+03    0.19696E-04   -0.45977E-04   612   0.356E-02
  54 F= -.67149236E+03 E0= -.67143190E+03  d E =-.158313E-01
       N       E                     dE             d eps       ncg     rms          rms(c)
DAV:   1    -0.656206735385E+03   -0.52837E-02   -0.10683E+00   600   0.131E+00    0.391E-01
DAV:   2    -0.656213099996E+03   -0.63646E-02   -0.39150E-02   804   0.315E-01    0.114E+00
DAV:   3    -0.656215836009E+03   -0.27360E-02   -0.10696E-01   876   0.326E-01    0.158E+00
DAV:   4    -0.656210046759E+03    0.57892E-02   -0.58573E-02   840   0.191E-01    0.223E-01
DAV:   5    -0.656208947795E+03    0.10990E-02   -0.59416E-03   744   0.770E-02    0.226E-01
DAV:   6    -0.656208846332E+03    0.10146E-03   -0.87103E-04   780   0.440E-02    0.217E-01
DAV:   7    -0.656208768630E+03    0.77703E-04   -0.48887E-04   672   0.326E-02
  55 F= -.67149824E+03 E0= -.67143734E+03  d E =-.588001E-02
       N       E                     dE             d eps       ncg     rms          rms(c)
DAV:   1    -0.656209660103E+03   -0.81377E-03   -0.27114E-01   600   0.661E-01    0.216E-01
DAV:   2    -0.656215073103E+03   -0.54130E-02   -0.22732E-02   864   0.215E-01    0.130E+00
DAV:   3    -0.656211101471E+03    0.39716E-02   -0.27386E-02   828   0.212E-01    0.514E-01
DAV:   4    -0.656210345303E+03    0.75617E-03   -0.44530E-03   648   0.624E-02    0.165E-01
DAV:   5    -0.656210191234E+03    0.15407E-03   -0.40510E-04   468   0.267E-02    0.652E-02
DAV:   6    -0.656210277516E+03   -0.86282E-04   -0.22356E-04   528   0.235E-02
  56 F= -.67149902E+03 E0= -.67143797E+03  d E =-.665659E-02
       N       E                     dE             d eps       ncg     rms          rms(c)
DAV:   1    -0.656216529679E+03   -0.63384E-02   -0.11238E+00   600   0.133E+00    0.428E-01
DAV:   2    -0.656225787882E+03   -0.92582E-02   -0.50821E-02   840   0.322E-01    0.157E+00
DAV:   3    -0.656224248255E+03    0.15396E-02   -0.99667E-02   888   0.336E-01    0.139E+00
DAV:   4    -0.656219736742E+03    0.45115E-02   -0.37086E-02   840   0.168E-01    0.463E-01
DAV:   5    -0.656218925272E+03    0.81147E-03   -0.12211E-03   780   0.671E-02    0.161E-01
DAV:   6    -0.656218780664E+03    0.14461E-03   -0.32724E-03   792   0.650E-02    0.254E-01
DAV:   7    -0.656218665590E+03    0.11507E-03   -0.61927E-04   624   0.320E-02    0.225E-01
DAV:   8    -0.656218550909E+03    0.11468E-03   -0.80398E-05   396   0.170E-02    0.120E-01
DAV:   9    -0.656218526130E+03    0.24779E-04   -0.98290E-05   444   0.125E-02
  57 F= -.67150540E+03 E0= -.67144485E+03  d E =-.638484E-02
       N       E                     dE             d eps       ncg     rms          rms(c)
DAV:   1    -0.656220298635E+03   -0.17477E-02   -0.29536E+00   600   0.216E+00    0.670E-01
DAV:   2    -0.656226683089E+03   -0.63845E-02   -0.79296E-02   840   0.395E-01    0.385E-01
DAV:   3    -0.656233769419E+03   -0.70863E-02   -0.48422E-02   828   0.235E-01    0.167E+00
DAV:   4    -0.656227324337E+03    0.64451E-02   -0.57001E-02   828   0.227E-01    0.625E-01
DAV:   5    -0.656227693425E+03   -0.36909E-03   -0.12234E-02   816   0.121E-01    0.303E-01
DAV:   6    -0.656225719804E+03    0.19736E-02   -0.52162E-03   780   0.833E-02    0.126E-01
DAV:   7    -0.656225758172E+03   -0.38368E-04   -0.78035E-04   696   0.462E-02
  58 F= -.67150962E+03 E0= -.67144890E+03  d E =-.106028E-01
       N       E                     dE             d eps       ncg     rms          rms(c)
DAV:   1    -0.656231826627E+03   -0.61068E-02   -0.19926E+00   600   0.172E+00    0.475E-01
DAV:   2    -0.656236240798E+03   -0.44142E-02   -0.53104E-02   816   0.314E-01    0.514E-01
DAV:   3    -0.656252632830E+03   -0.16392E-01   -0.17705E-01   888   0.348E-01    0.240E+00
DAV:   4    -0.656236958515E+03    0.15674E-01   -0.13903E-01   852   0.281E-01    0.446E-01
DAV:   5    -0.656235539943E+03    0.14186E-02   -0.40113E-03   780   0.744E-02    0.273E-01
DAV:   6    -0.656235435111E+03    0.10483E-03   -0.10879E-03   672   0.461E-02    0.306E-01
DAV:   7    -0.656235364947E+03    0.70164E-04   -0.22738E-04   528   0.271E-02
  59 F= -.67151621E+03 E0= -.67145540E+03  d E =-.659320E-02
       N       E                     dE             d eps       ncg     rms          rms(c)
DAV:   1    -0.656236357869E+03   -0.92276E-03   -0.25839E-01   600   0.620E-01    0.235E-01
DAV:   2    -0.656248581833E+03   -0.12224E-01   -0.35027E-02   888   0.287E-01    0.189E+00
DAV:   3    -0.656238087779E+03    0.10494E-01   -0.44078E-02   828   0.262E-01    0.419E-01
DAV:   4    -0.656237406751E+03    0.68103E-03   -0.10139E-02   792   0.950E-02    0.244E-01
DAV:   5    -0.656236813892E+03    0.59286E-03   -0.93293E-04   612   0.449E-02    0.174E-01
DAV:   6    -0.656236745069E+03    0.68823E-04   -0.31530E-04   420   0.239E-02
  60 F= -.67151651E+03 E0= -.67145609E+03  d E =-.689599E-02
       N       E                     dE             d eps       ncg     rms          rms(c)
DAV:   1    -0.656243716442E+03   -0.69025E-02   -0.15270E+00   600   0.155E+00    0.441E-01
DAV:   2    -0.656247030339E+03   -0.33139E-02   -0.39234E-02   780   0.283E-01    0.484E-01
DAV:   3    -0.656261300401E+03   -0.14270E-01   -0.15042E-01   876   0.326E-01    0.226E+00
DAV:   4    -0.656247847636E+03    0.13453E-01   -0.12589E-01   864   0.265E-01    0.476E-01
DAV:   5    -0.656246491122E+03    0.13565E-02   -0.36565E-03   780   0.716E-02    0.238E-01
DAV:   6    -0.656246373396E+03    0.11773E-03   -0.10241E-03   648   0.426E-02    0.271E-01
DAV:   7    -0.656246284907E+03    0.88489E-04   -0.19060E-04   504   0.225E-02
  61 F= -.67152301E+03 E0= -.67146206E+03  d E =-.649278E-02
       N       E                     dE             d eps       ncg     rms          rms(c)
DAV:   1    -0.656248969515E+03   -0.25961E-02   -0.20953E+00   600   0.182E+00    0.525E-01
DAV:   2    -0.656256333157E+03   -0.73636E-02   -0.60875E-02   816   0.373E-01    0.109E+00
DAV:   3    -0.656267935198E+03   -0.11602E-01   -0.21809E-01   888   0.389E-01    0.225E+00
DAV:   4    -0.656254712582E+03    0.13223E-01   -0.14748E-01   888   0.290E-01    0.568E-01
DAV:   5    -0.656253111156E+03    0.16014E-02   -0.65398E-03   768   0.100E-01    0.201E-01
DAV:   6    -0.656252590397E+03    0.52076E-03   -0.14443E-03   744   0.594E-02    0.149E-01
DAV:   7    -0.656252515711E+03    0.74686E-04   -0.28296E-04   576   0.322E-02
  62 F= -.67152571E+03 E0= -.67146514E+03  d E =-.919723E-02
       N       E                     dE             d eps       ncg     rms          rms(c)
DAV:   1    -0.656258276306E+03   -0.56859E-02   -0.14529E+00   600   0.151E+00    0.436E-01
DAV:   2    -0.656261169324E+03   -0.28930E-02   -0.37998E-02   816   0.275E-01    0.281E-01
DAV:   3    -0.656265709008E+03   -0.45397E-02   -0.29974E-02   876   0.183E-01    0.137E+00
DAV:   4    -0.656261397726E+03    0.43113E-02   -0.34292E-02   720   0.162E-01    0.401E-01
DAV:   5    -0.656260981467E+03    0.41626E-03   -0.40904E-03   792   0.709E-02    0.204E-01
DAV:   6    -0.656260938727E+03    0.42739E-04   -0.16527E-03   720   0.524E-02    0.149E-01
DAV:   7    -0.656260752646E+03    0.18608E-03   -0.68140E-04   588   0.392E-02    0.114E-01
DAV:   8    -0.656260672080E+03    0.80565E-04   -0.34522E-04   468   0.294E-02
  63 F= -.67153126E+03 E0= -.67147056E+03  d E =-.554696E-02
       N       E                     dE             d eps       ncg     rms          rms(c)
DAV:   1    -0.656262089365E+03   -0.13367E-02   -0.38392E-01   600   0.779E-01    0.224E-01
DAV:   2    -0.656262873552E+03   -0.78419E-03   -0.10089E-02   816   0.142E-01    0.127E-01
DAV:   3    -0.656263092000E+03   -0.21845E-03   -0.87862E-04   720   0.542E-02    0.303E-01
DAV:   4    -0.656262888693E+03    0.20331E-03   -0.18552E-03   552   0.550E-02    0.203E-01
DAV:   5    -0.656262891846E+03   -0.31521E-05   -0.20119E-03   552   0.495E-02    0.144E-01
DAV:   6    -0.656262756904E+03    0.13494E-03   -0.55080E-04   540   0.332E-02    0.648E-02
DAV:   7    -0.656262741846E+03    0.15058E-04   -0.12182E-04   420   0.202E-02
  64 F= -.67153199E+03 E0= -.67147134E+03  d E =-.628332E-02
       N       E                     dE             d eps       ncg     rms          rms(c)
DAV:   1    -0.656268037327E+03   -0.52804E-02   -0.15902E+00   600   0.156E+00    0.427E-01
DAV:   2    -0.656271015303E+03   -0.29780E-02   -0.39284E-02   804   0.275E-01    0.245E-01
DAV:   3    -0.656270830665E+03    0.18464E-03   -0.23544E-03   828   0.761E-02    0.235E-01
DAV:   4    -0.656271950970E+03   -0.11203E-02   -0.81927E-03   828   0.109E-01    0.714E-01
DAV:   5    -0.656271881144E+03    0.69826E-04   -0.73490E-03   744   0.117E-01    0.472E-01
DAV:   6    -0.656270760494E+03    0.11206E-02   -0.55654E-03   780   0.724E-02    0.114E-01
DAV:   7    -0.656270566426E+03    0.19407E-03   -0.48834E-04   660   0.365E-02    0.679E-02
DAV:   8    -0.656270548535E+03    0.17891E-04   -0.97373E-05   384   0.186E-02
  65 F= -.67153757E+03 E0= -.67147677E+03  d E =-.557950E-02
       N       E                     dE             d eps       ncg     rms          rms(c)
DAV:   1    -0.656271978633E+03   -0.14122E-02   -0.63632E-01   600   0.985E-01    0.274E-01
DAV:   2    -0.656273370271E+03   -0.13916E-02   -0.16440E-02   792   0.183E-01    0.316E-01
DAV:   3    -0.656279420707E+03   -0.60504E-02   -0.51017E-02   840   0.198E-01    0.156E+00
DAV:   4    -0.656273532350E+03    0.58884E-02   -0.38273E-02   720   0.153E-01    0.172E-01
DAV:   5    -0.656273508232E+03    0.24119E-04   -0.17069E-03   768   0.567E-02    0.375E-01
DAV:   6    -0.656273290832E+03    0.21740E-03   -0.78162E-04   648   0.415E-02    0.308E-01
DAV:   7    -0.656273174626E+03    0.11621E-03   -0.41720E-04   468   0.267E-02    0.272E-01
DAV:   8    -0.656273034975E+03    0.13965E-03   -0.13978E-04   396   0.204E-02    0.142E-01
DAV:   9    -0.656272996934E+03    0.38041E-04   -0.12239E-04   384   0.152E-02
  66 F= -.67153863E+03 E0= -.67147768E+03  d E =-.663385E-02
       N       E                     dE             d eps       ncg     rms          rms(c)
DAV:   1    -0.656278661843E+03   -0.56269E-02   -0.13731E+00   600   0.142E+00    0.402E-01
DAV:   2    -0.656281233396E+03   -0.25716E-02   -0.33822E-02   816   0.246E-01    0.227E-01
DAV:   3    -0.656281654298E+03   -0.42090E-03   -0.48153E-03   828   0.971E-02    0.552E-01
DAV:   4    -0.656281228455E+03    0.42584E-03   -0.67380E-03   672   0.882E-02    0.362E-01
DAV:   5    -0.656280909982E+03    0.31847E-03   -0.12727E-03   792   0.467E-02    0.953E-02
DAV:   6    -0.656280903759E+03    0.62232E-05   -0.68528E-04   756   0.404E-02
  67 F= -.67154489E+03 E0= -.67148435E+03  d E =-.625892E-02
       N       E                     dE             d eps       ncg     rms          rms(c)
DAV:   1    -0.656282212401E+03   -0.13024E-02   -0.31350E+00   600   0.214E+00    0.606E-01
DAV:   2    -0.656288232924E+03   -0.60205E-02   -0.77449E-02   816   0.377E-01    0.349E-01
DAV:   3    -0.656288608761E+03   -0.37584E-03   -0.75690E-03   864   0.127E-01    0.461E-01
DAV:   4    -0.656289544563E+03   -0.93580E-03   -0.10822E-02   852   0.144E-01    0.920E-01
DAV:   5    -0.656289586874E+03   -0.42310E-04   -0.23719E-02   828   0.158E-01    0.537E-01
DAV:   6    -0.656287558256E+03    0.20286E-02   -0.14120E-02   816   0.116E-01    0.337E-01
DAV:   7    -0.656287295005E+03    0.26325E-03   -0.16233E-03   792   0.588E-02    0.747E-02
DAV:   8    -0.656287234217E+03    0.60788E-04   -0.23951E-04   516   0.267E-02
  68 F= -.67154876E+03 E0= -.67148808E+03  d E =-.101337E-01
       N       E                     dE             d eps       ncg     rms          rms(c)
DAV:   1    -0.656290707960E+03   -0.34130E-02   -0.20726E+00   600   0.176E+00    0.502E-01
DAV:   2    -0.656294628076E+03   -0.39201E-02   -0.51765E-02   804   0.312E-01    0.281E-01
DAV:   3    -0.656294840552E+03   -0.21248E-03   -0.40845E-03   828   0.105E-01    0.510E-01
DAV:   4    -0.656294724596E+03    0.11596E-03   -0.63372E-03   720   0.978E-02    0.474E-01
DAV:   5    -0.656294774127E+03   -0.49531E-04   -0.53521E-03   816   0.798E-02    0.213E-01
DAV:   6    -0.656294459272E+03    0.31486E-03   -0.43538E-03   780   0.753E-02    0.143E-01
DAV:   7    -0.656294102001E+03    0.35727E-03   -0.11056E-03   636   0.470E-02    0.558E-02
DAV:   8    -0.656294090256E+03    0.11745E-04   -0.10131E-04   396   0.204E-02
  69 F= -.67155400E+03 E0= -.67149332E+03  d E =-.523397E-02
       N       E                     dE             d eps       ncg     rms          rms(c)
DAV:   1    -0.656294408186E+03   -0.30618E-03   -0.72965E-02   600   0.332E-01    0.966E-02
DAV:   2    -0.656294768820E+03   -0.36063E-03   -0.25177E-03   768   0.719E-02    0.291E-01
DAV:   3    -0.656294921912E+03   -0.15309E-03   -0.37836E-03   600   0.705E-02    0.388E-01
DAV:   4    -0.656294573099E+03    0.34881E-03   -0.17130E-03   420   0.431E-02    0.572E-02
DAV:   5    -0.656294566986E+03    0.61130E-05   -0.20204E-04   360   0.180E-02
  70 F= -.67155417E+03 E0= -.67149352E+03  d E =-.540981E-02
       N       E                     dE             d eps       ncg     rms          rms(c)
DAV:   1    -0.656299177678E+03   -0.46046E-02   -0.17792E+00   600   0.167E+00    0.490E-01
DAV:   2    -0.656304417353E+03   -0.52397E-02   -0.47443E-02   816   0.332E-01    0.812E-01
DAV:   3    -0.656319681964E+03   -0.15265E-01   -0.21416E-01   900   0.355E-01    0.244E+00
DAV:   4    -0.656304135510E+03    0.15546E-01   -0.14891E-01   888   0.269E-01    0.430E-01
DAV:   5    -0.656302512599E+03    0.16229E-02   -0.55916E-03   780   0.925E-02    0.240E-01
DAV:   6    -0.656302278230E+03    0.23437E-03   -0.14531E-03   780   0.555E-02    0.226E-01
DAV:   7    -0.656302077509E+03    0.20072E-03   -0.43466E-04   648   0.347E-02    0.116E-01
DAV:   8    -0.656302029425E+03    0.48085E-04   -0.23094E-04   396   0.260E-02
  71 F= -.67156020E+03 E0= -.67149948E+03  d E =-.602395E-02
       N       E                     dE             d eps       ncg     rms          rms(c)
DAV:   1    -0.656301554011E+03    0.52350E-03   -0.36668E+00   600   0.240E+00    0.704E-01
DAV:   2    -0.656309694345E+03   -0.81403E-02   -0.93895E-02   828   0.446E-01    0.691E-01
DAV:   3    -0.656344785384E+03   -0.35091E-01   -0.40402E-01   876   0.471E-01    0.324E+00
DAV:   4    -0.656310907132E+03    0.33878E-01   -0.25568E-01   864   0.407E-01    0.598E-01
DAV:   5    -0.656308717389E+03    0.21897E-02   -0.85908E-03   828   0.112E-01    0.384E-01
DAV:   6    -0.656309302637E+03   -0.58525E-03   -0.17520E-02   816   0.931E-02    0.464E-01
DAV:   7    -0.656307920058E+03    0.13826E-02   -0.10807E-02   732   0.615E-02    0.325E-01
DAV:   8    -0.656307669300E+03    0.25076E-03   -0.89885E-04   528   0.457E-02    0.832E-02
DAV:   9    -0.656307687306E+03   -0.18006E-04   -0.84605E-05   420   0.167E-02
  72 F= -.67156384E+03 E0= -.67150296E+03  d E =-.966556E-02
       N       E                     dE             d eps       ncg     rms          rms(c)
DAV:   1    -0.656310837165E+03   -0.31679E-02   -0.19726E+00   600   0.170E+00    0.486E-01
DAV:   2    -0.656315783832E+03   -0.49467E-02   -0.51537E-02   768   0.315E-01    0.747E-01
DAV:   3    -0.656331014486E+03   -0.15231E-01   -0.19252E-01   888   0.344E-01    0.239E+00
DAV:   4    -0.656316349442E+03    0.14665E-01   -0.15574E-01   876   0.289E-01    0.636E-01
DAV:   5    -0.656315300508E+03    0.10489E-02   -0.85787E-03   780   0.109E-01    0.309E-01
DAV:   6    -0.656314354935E+03    0.94557E-03   -0.22322E-03   816   0.746E-02    0.316E-01
DAV:   7    -0.656314239408E+03    0.11553E-03   -0.45449E-04   600   0.372E-02    0.271E-01
DAV:   8    -0.656314032394E+03    0.20701E-03   -0.58035E-04   432   0.335E-02    0.105E-01
DAV:   9    -0.656314026246E+03    0.61487E-05   -0.10010E-04   396   0.155E-02
  73 F= -.67156838E+03 E0= -.67150765E+03  d E =-.454731E-02
       N       E                     dE             d eps       ncg     rms          rms(c)
DAV:   1    -0.656314069062E+03   -0.36668E-04   -0.60707E-04   588   0.312E-02    0.240E-02
DAV:   2    -0.656314130489E+03   -0.61427E-04   -0.14310E-04   372   0.216E-02
  74 F= -.67156846E+03 E0= -.67150731E+03  d E =-.462124E-02
       N       E                     dE             d eps       ncg     rms          rms(c)
DAV:   1    -0.656318313929E+03   -0.42449E-02   -0.19698E+00   600   0.175E+00    0.467E-01
DAV:   2    -0.656323018148E+03   -0.47042E-02   -0.54036E-02   852   0.308E-01    0.776E-01
DAV:   3    -0.656335537863E+03   -0.12520E-01   -0.70464E-02   864   0.328E-01    0.211E+00
DAV:   4    -0.656321930536E+03    0.13607E-01   -0.22160E-02   840   0.249E-01    0.190E-01
DAV:   5    -0.656321978775E+03   -0.48239E-04   -0.20667E-03   804   0.785E-02    0.450E-01
DAV:   6    -0.656321339025E+03    0.63975E-03   -0.14814E-03   708   0.634E-02    0.185E-01
DAV:   7    -0.656321087389E+03    0.25164E-03   -0.13742E-03   708   0.521E-02    0.607E-02
DAV:   8    -0.656321057035E+03    0.30354E-04   -0.19479E-04   516   0.257E-02
  75 F= -.67157351E+03 E0= -.67151276E+03  d E =-.505110E-02
       N       E                     dE             d eps       ncg     rms          rms(c)
DAV:   1    -0.656321941822E+03   -0.85443E-03   -0.77652E-01   600   0.110E+00    0.292E-01
DAV:   2    -0.656323369269E+03   -0.14274E-02   -0.18101E-02   804   0.183E-01    0.276E-01
DAV:   3    -0.656329090098E+03   -0.57208E-02   -0.40500E-02   828   0.179E-01    0.152E+00
DAV:   4    -0.656323724929E+03    0.53652E-02   -0.38731E-02   732   0.159E-01    0.300E-01
DAV:   5    -0.656323394272E+03    0.33066E-03   -0.29165E-03   744   0.599E-02    0.278E-01
DAV:   6    -0.656323254685E+03    0.13959E-03   -0.69380E-04   648   0.389E-02    0.225E-01
DAV:   7    -0.656323210604E+03    0.44082E-04   -0.29497E-04   456   0.270E-02
  76 F= -.67157450E+03 E0= -.67151335E+03  d E =-.603779E-02
       N       E                     dE             d eps       ncg     rms          rms(c)
DAV:   1    -0.656325919605E+03   -0.26649E-02   -0.16004E+00   600   0.156E+00    0.439E-01
DAV:   2    -0.656337455296E+03   -0.11536E-01   -0.63005E-02   804   0.369E-01    0.176E+00
DAV:   3    -0.656333454294E+03    0.40010E-02   -0.88114E-02   888   0.337E-01    0.130E+00
DAV:   4    -0.656329718255E+03    0.37360E-02   -0.29505E-02   816   0.158E-01    0.548E-01
DAV:   5    -0.656328733155E+03    0.98510E-03   -0.13476E-03   756   0.665E-02    0.181E-01
DAV:   6    -0.656328755912E+03   -0.22757E-04   -0.41879E-03   780   0.740E-02    0.215E-01
DAV:   7    -0.656328449779E+03    0.30613E-03   -0.10350E-03   660   0.429E-02    0.193E-01
DAV:   8    -0.656328373991E+03    0.75787E-04   -0.65456E-05   372   0.167E-02
  77 F= -.67157815E+03 E0= -.67151708E+03  d E =-.365644E-02
       N       E                     dE             d eps       ncg     rms          rms(c)
DAV:   1    -0.656328631977E+03   -0.18220E-03   -0.58474E-02   600   0.299E-01    0.875E-02
DAV:   2    -0.656329077100E+03   -0.44512E-03   -0.26619E-03   816   0.717E-02    0.364E-01
DAV:   3    -0.656328944011E+03    0.13309E-03   -0.31413E-03   564   0.642E-02    0.273E-01
DAV:   4    -0.656328775466E+03    0.16854E-03   -0.10425E-03   408   0.332E-02    0.993E-02
DAV:   5    -0.656328752033E+03    0.23434E-04   -0.91533E-05   360   0.127E-02
  78 F= -.67157825E+03 E0= -.67151756E+03  d E =-.374990E-02
       N       E                     dE             d eps       ncg     rms          rms(c)
DAV:   1    -0.656330595068E+03   -0.18196E-02   -0.16782E+00   600   0.157E+00    0.442E-01
DAV:   2    -0.656334020975E+03   -0.34259E-02   -0.43836E-02   828   0.299E-01    0.316E-01
[...]
DAV:   8    -0.656385275369E+03    0.14447E-03   -0.14576E-04   420   0.210E-02    0.168E-01
DAV:   9    -0.656385230155E+03    0.45214E-04   -0.86445E-05   408   0.154E-02
 180 F= -.67161062E+03 E0= -.67154939E+03  d E =-.977987E-03
       N       E                     dE             d eps       ncg     rms          rms(c)
DAV:   1    -0.656385899514E+03   -0.62414E-03   -0.56550E-01   600   0.931E-01    0.220E-01
DAV:   2    -0.656387535676E+03   -0.16362E-02   -0.13112E-02   816   0.172E-01    0.601E-01
DAV:   3    -0.656388437786E+03   -0.90211E-03   -0.18898E-02   768   0.137E-01    0.844E-01
DAV:   4    -0.656386882202E+03    0.15556E-02   -0.87168E-03   564   0.878E-02    0.226E-01
DAV:   5    -0.656386728964E+03    0.15324E-03   -0.39166E-04   576   0.395E-02    0.976E-02
DAV:   6    -0.656386713848E+03    0.15116E-04   -0.85255E-04   624   0.426E-02
 181 F= -.67161141E+03 E0= -.67155082E+03  d E =-.786837E-03
       N       E                     dE             d eps       ncg     rms          rms(c)
DAV:   1    -0.656384848272E+03    0.18807E-02   -0.28601E+00   600   0.210E+00    0.487E-01
DAV:   2    -0.656389382314E+03   -0.45340E-02   -0.55644E-02   792   0.339E-01    0.566E-01
DAV:   3    -0.656405762718E+03   -0.16380E-01   -0.18924E-01   876   0.308E-01    0.248E+00
DAV:   4    -0.656390454571E+03    0.15308E-01   -0.14684E-01   792   0.267E-01    0.519E-01
DAV:   5    -0.656388834952E+03    0.16196E-02   -0.23212E-03   804   0.873E-02    0.284E-01
DAV:   6    -0.656389158781E+03   -0.32383E-03   -0.50947E-03   744   0.925E-02    0.313E-01
DAV:   7    -0.656388254773E+03    0.90401E-03   -0.18599E-03   672   0.518E-02    0.214E-01
DAV:   8    -0.656388161143E+03    0.93630E-04   -0.24147E-04   420   0.298E-02
 182 F= -.67161128E+03 E0= -.67155018E+03  d E =-.656262E-03
       N       E                     dE             d eps       ncg     rms          rms(c)
DAV:   1    -0.656387193443E+03    0.10613E-02   -0.51763E-01   600   0.892E-01    0.222E-01
DAV:   2    -0.656390319571E+03   -0.31261E-02   -0.14703E-02   816   0.193E-01    0.989E-01
DAV:   3    -0.656388972534E+03    0.13470E-02   -0.19057E-02   756   0.152E-01    0.644E-01
DAV:   4    -0.656387960423E+03    0.10121E-02   -0.57774E-03   540   0.752E-02    0.194E-01
DAV:   5    -0.656387930420E+03    0.30003E-04   -0.12641E-03   588   0.400E-02    0.153E-01
DAV:   6    -0.656387900970E+03    0.29449E-04   -0.47561E-04   588   0.379E-02
 183 F= -.67161169E+03 E0= -.67154996E+03  d E =-.106848E-02
       N       E                     dE             d eps       ncg     rms          rms(c)
DAV:   1    -0.656388557050E+03   -0.62663E-03   -0.34142E-01   600   0.729E-01    0.220E-01
DAV:   2    -0.656400409320E+03   -0.11852E-01   -0.31852E-02   876   0.277E-01    0.197E+00
DAV:   3    -0.656389995664E+03    0.10414E-01   -0.28064E-02   840   0.247E-01    0.395E-01
DAV:   4    -0.656389454038E+03    0.54163E-03   -0.24351E-03   720   0.697E-02    0.352E-01
DAV:   5    -0.656388987514E+03    0.46652E-03   -0.36094E-04   564   0.391E-02    0.189E-01
DAV:   6    -0.656388883136E+03    0.10438E-03   -0.88002E-04   432   0.333E-02    0.868E-02
DAV:   7    -0.656388903824E+03   -0.20689E-04   -0.10983E-04   348   0.181E-02
 184 F= -.67161216E+03 E0= -.67155101E+03  d E =-.467935E-03
       N       E                     dE             d eps       ncg     rms          rms(c)
DAV:   1    -0.656387745220E+03    0.11379E-02   -0.30591E+00   600   0.218E+00    0.492E-01
DAV:   2    -0.656392035182E+03   -0.42900E-02   -0.56386E-02   768   0.338E-01    0.324E-01
DAV:   3    -0.656396081646E+03   -0.40465E-02   -0.35935E-02   864   0.179E-01    0.135E+00
DAV:   4    -0.656392505866E+03    0.35758E-02   -0.39295E-02   768   0.159E-01    0.554E-01
DAV:   5    -0.656392488779E+03    0.17087E-04   -0.43405E-03   792   0.824E-02    0.255E-01
DAV:   6    -0.656391905443E+03    0.58334E-03   -0.85383E-03   732   0.903E-02    0.155E-01
DAV:   7    -0.656391269836E+03    0.63561E-03   -0.65393E-04   660   0.484E-02    0.600E-02
DAV:   8    -0.656391248743E+03    0.21093E-04   -0.16687E-04   408   0.229E-02
 185 F= -.67161290E+03 E0= -.67155229E+03  d E =-.120268E-02
       N       E                     dE             d eps       ncg     rms          rms(c)
DAV:   1    -0.656391959279E+03   -0.68944E-03   -0.36301E-01   600   0.744E-01    0.173E-01
DAV:   2    -0.656392537068E+03   -0.57779E-03   -0.70269E-03   744   0.120E-01    0.160E-01
DAV:   3    -0.656394498178E+03   -0.19611E-02   -0.10564E-02   636   0.106E-01    0.922E-01
DAV:   4    -0.656392675682E+03    0.18225E-02   -0.10544E-02   564   0.942E-02    0.180E-01
DAV:   5    -0.656392605034E+03    0.70648E-04   -0.12990E-03   624   0.418E-02    0.190E-01
DAV:   6    -0.656392548025E+03    0.57010E-04   -0.35166E-04   564   0.311E-02
 186 F= -.67161363E+03 E0= -.67155213E+03  d E =-.733259E-03
       N       E                     dE             d eps       ncg     rms          rms(c)
DAV:   1    -0.656391113764E+03    0.14913E-02   -0.30139E+00   600   0.214E+00    0.523E-01
DAV:   2    -0.656409713750E+03   -0.18600E-01   -0.85252E-02   816   0.471E-01    0.217E+00
DAV:   3    -0.656401166891E+03    0.85469E-02   -0.11792E-01   888   0.379E-01    0.144E+00
DAV:   4    -0.656396344981E+03    0.48219E-02   -0.31857E-02   792   0.157E-01    0.516E-01
DAV:   5    -0.656395547687E+03    0.79729E-03   -0.21351E-03   732   0.863E-02    0.248E-01
DAV:   6    -0.656395493621E+03    0.54066E-04   -0.81707E-03   768   0.989E-02    0.449E-01
DAV:   7    -0.656394999417E+03    0.49420E-03   -0.13400E-03   648   0.453E-02    0.398E-01
DAV:   8    -0.656394698118E+03    0.30130E-03   -0.39751E-04   480   0.259E-02    0.193E-01
DAV:   9    -0.656394612244E+03    0.85874E-04   -0.23338E-04   420   0.208E-02
 187 F= -.67161406E+03 E0= -.67155307E+03  d E =-.116155E-02
       N       E                     dE             d eps       ncg     rms          rms(c)
DAV:   1    -0.656395170744E+03   -0.47263E-03   -0.23055E-01   600   0.588E-01    0.146E-01
DAV:   2    -0.656396354026E+03   -0.11833E-02   -0.63621E-03   804   0.121E-01    0.597E-01
DAV:   3    -0.656395996306E+03    0.35772E-03   -0.75013E-03   672   0.960E-02    0.439E-01
DAV:   4    -0.656395557674E+03    0.43863E-03   -0.24502E-03   480   0.519E-02    0.150E-01
DAV:   5    -0.656395476913E+03    0.80762E-04   -0.25526E-04   492   0.220E-02
 188 F= -.67161446E+03 E0= -.67155350E+03  d E =-.407566E-03
       N       E                     dE             d eps       ncg     rms          rms(c)
DAV:   1    -0.656395071945E+03    0.48573E-03   -0.20670E+00   600   0.176E+00    0.418E-01
DAV:   2    -0.656400174458E+03   -0.51025E-02   -0.41412E-02   780   0.310E-01    0.959E-01
DAV:   3    -0.656405990682E+03   -0.58162E-02   -0.10349E-01   864   0.260E-01    0.178E+00
DAV:   4    -0.656398874677E+03    0.71160E-02   -0.65628E-02   780   0.179E-01    0.378E-01
DAV:   5    -0.656398215255E+03    0.65942E-03   -0.47717E-03   768   0.858E-02    0.236E-01
DAV:   6    -0.656397722096E+03    0.49316E-03   -0.16622E-03   792   0.658E-02    0.281E-01
DAV:   7    -0.656397551197E+03    0.17090E-03   -0.25928E-04   516   0.271E-02    0.192E-01
DAV:   8    -0.656397466162E+03    0.85035E-04   -0.18773E-04   408   0.206E-02
 189 F= -.67161508E+03 E0= -.67155384E+03  d E =-.102221E-02
       N       E                     dE             d eps       ncg     rms          rms(c)
DAV:   1    -0.656398042718E+03   -0.49152E-03   -0.40804E-02   600   0.253E-01    0.802E-02
DAV:   2    -0.656398954229E+03   -0.91151E-03   -0.34178E-03   804   0.818E-02    0.585E-01
DAV:   3    -0.656398230023E+03    0.72421E-03   -0.34952E-03   528   0.681E-02    0.175E-01
DAV:   4    -0.656398150095E+03    0.79928E-04   -0.52902E-04   360   0.257E-02
 190 F= -.67161563E+03 E0= -.67155511E+03  d E =-.547574E-03
       N       E                     dE             d eps       ncg     rms          rms(c)
DAV:   1    -0.656398602651E+03   -0.37263E-03   -0.36351E-01   600   0.756E-01    0.218E-01
DAV:   2    -0.656401332575E+03   -0.27299E-02   -0.15082E-02   852   0.173E-01    0.950E-01
DAV:   3    -0.656400463515E+03    0.86906E-03   -0.19700E-02   732   0.148E-01    0.685E-01
DAV:   4    -0.656399444033E+03    0.10195E-02   -0.49096E-03   612   0.815E-02    0.169E-01
DAV:   5    -0.656399146078E+03    0.29795E-03   -0.13695E-03   636   0.456E-02    0.974E-02
DAV:   6    -0.656399043149E+03    0.10293E-03   -0.25227E-04   504   0.269E-02    0.463E-02
DAV:   7    -0.656399051256E+03   -0.81074E-05   -0.74581E-05   360   0.184E-02
 191 F= -.67161612E+03 E0= -.67155561E+03  d E =-.104157E-02
       N       E                     dE             d eps       ncg     rms          rms(c)
DAV:   1    -0.656399001207E+03    0.41942E-04   -0.67284E-03   588   0.103E-01    0.472E-02
DAV:   2    -0.656399819432E+03   -0.81823E-03   -0.42115E-03   516   0.676E-02    0.581E-01
DAV:   3    -0.656399082563E+03    0.73687E-03   -0.40322E-03   444   0.624E-02    0.977E-02
DAV:   4    -0.656399019665E+03    0.62898E-04   -0.10074E-04   348   0.178E-02
 192 F= -.67161614E+03 E0= -.67155513E+03  d E =-.106487E-02
       N       E                     dE             d eps       ncg     rms          rms(c)
DAV:   1    -0.656399328997E+03   -0.24643E-03   -0.43847E-02   600   0.271E-01    0.804E-02
DAV:   2    -0.656399683455E+03   -0.35446E-03   -0.21818E-03   864   0.698E-02    0.320E-01
DAV:   3    -0.656399592148E+03    0.91307E-04   -0.26226E-03   516   0.557E-02    0.279E-01
DAV:   4    -0.656399466982E+03    0.12517E-03   -0.26502E-04   396   0.283E-02    0.489E-02
DAV:   5    -0.656399416031E+03    0.50952E-04   -0.57678E-05   324   0.185E-02
 193 F= -.67161645E+03 E0= -.67155538E+03  d E =-.310303E-03
       N       E                     dE             d eps       ncg     rms          rms(c)
DAV:   1    -0.656399495698E+03   -0.28716E-04   -0.97375E-02   600   0.405E-01    0.119E-01
DAV:   2    -0.656400517395E+03   -0.10217E-02   -0.50471E-03   888   0.112E-01    0.581E-01
DAV:   3    -0.656400011771E+03    0.50562E-03   -0.62483E-03   660   0.861E-02    0.378E-01
DAV:   4    -0.656399704495E+03    0.30728E-03   -0.58104E-04   444   0.333E-02    0.683E-02
DAV:   5    -0.656399692379E+03    0.12116E-04   -0.86223E-05   372   0.201E-02
 194 F= -.67161660E+03 E0= -.67155532E+03  d E =-.458652E-03
       N       E                     dE             d eps       ncg     rms          rms(c)
DAV:   1    -0.656400073117E+03   -0.36862E-03   -0.47932E-02   600   0.280E-01    0.142E-01
DAV:   2    -0.656405807842E+03   -0.57347E-02   -0.15967E-02   876   0.188E-01    0.142E+00
DAV:   3    -0.656400984236E+03    0.48236E-02   -0.15051E-02   756   0.175E-01    0.406E-01
DAV:   4    -0.656400255666E+03    0.72857E-03   -0.83832E-04   732   0.583E-02    0.843E-02
DAV:   5    -0.656400083889E+03    0.17178E-03   -0.16858E-04   396   0.248E-02    0.426E-02
DAV:   6    -0.656400086015E+03   -0.21258E-05   -0.41648E-05   300   0.132E-02
 195 F= -.67161686E+03 E0= -.67155601E+03  d E =-.259660E-03
       N       E                     dE             d eps       ncg     rms          rms(c)
DAV:   1    -0.656400341257E+03   -0.25737E-03   -0.14710E-01   600   0.489E-01    0.159E-01
DAV:   2    -0.656402226975E+03   -0.18857E-02   -0.67043E-03   876   0.140E-01    0.806E-01
DAV:   3    -0.656401281629E+03    0.94535E-03   -0.11786E-02   672   0.118E-01    0.518E-01
DAV:   4    -0.656400684632E+03    0.59700E-03   -0.35564E-03   528   0.572E-02    0.875E-02
DAV:   5    -0.656400586758E+03    0.97874E-04   -0.47817E-04   444   0.299E-02
 196 F= -.67161713E+03 E0= -.67155631E+03  d E =-.528045E-03
       N       E                     dE             d eps       ncg     rms          rms(c)
DAV:   1    -0.656400607314E+03    0.77318E-04   -0.16495E-02   600   0.167E-01    0.137E-01
DAV:   2    -0.656408119129E+03   -0.75118E-02   -0.15845E-02   828   0.191E-01    0.164E+00
DAV:   3    -0.656401233451E+03    0.68857E-02   -0.18239E-02   708   0.190E-01    0.296E-01
DAV:   4    -0.656400755843E+03    0.47761E-03   -0.18799E-03   540   0.503E-02    0.199E-01
DAV:   5    -0.656400604822E+03    0.15102E-03   -0.16164E-04   396   0.216E-02    0.743E-02
DAV:   6    -0.656400588778E+03    0.16044E-04   -0.41107E-05   312   0.130E-02
 197 F= -.67161705E+03 E0= -.67155621E+03  d E =-.450921E-03
       N       E                     dE             d eps       ncg     rms          rms(c)
DAV:   1    -0.656400559044E+03    0.45778E-04   -0.46900E-03   576   0.876E-02    0.401E-02
DAV:   2    -0.656400985528E+03   -0.42648E-03   -0.14802E-03   432   0.481E-02    0.410E-01
DAV:   3    -0.656400601091E+03    0.38444E-03   -0.15005E-03   408   0.486E-02    0.948E-02
DAV:   4    -0.656400593166E+03    0.79248E-05   -0.66794E-05   348   0.174E-02
 198 F= -.67161710E+03 E0= -.67155658E+03  d E =-.495949E-03
       N       E                     dE             d eps       ncg     rms          rms(c)
DAV:   1    -0.656401045030E+03   -0.44394E-03   -0.28582E-02   600   0.219E-01    0.703E-02
DAV:   2    -0.656401842285E+03   -0.79726E-03   -0.41445E-03   828   0.742E-02    0.561E-01
DAV:   3    -0.656401203951E+03    0.63833E-03   -0.44448E-03   516   0.649E-02    0.170E-01
DAV:   4    -0.656401112183E+03    0.91769E-04   -0.31637E-04   360   0.240E-02
 199 F= -.67161737E+03 E0= -.67155624E+03  d E =-.267465E-03
       N       E                     dE             d eps       ncg     rms          rms(c)
DAV:   1    -0.656401489588E+03   -0.28564E-03   -0.58914E-02   600   0.315E-01    0.825E-02
DAV:   2    -0.656401602622E+03   -0.11303E-03   -0.14240E-03   804   0.554E-02    0.109E-01
DAV:   3    -0.656402052204E+03   -0.44958E-03   -0.18566E-03   528   0.537E-02    0.442E-01
DAV:   4    -0.656401602498E+03    0.44971E-03   -0.14802E-03   432   0.487E-02    0.913E-02
DAV:   5    -0.656401616751E+03   -0.14253E-04   -0.98395E-05   372   0.178E-02
 200 F= -.67161751E+03 E0= -.67155714E+03  d E =-.410394E-03
       N       E                     dE             d eps       ncg     rms          rms(c)
DAV:   1    -0.656402067254E+03   -0.46476E-03   -0.23438E-02   600   0.205E-01    0.117E-01
DAV:   2    -0.656407380467E+03   -0.53132E-02   -0.34992E-02   864   0.157E-01    0.146E+00
DAV:   3    -0.656402782158E+03    0.45983E-02   -0.35152E-02   696   0.141E-01    0.284E-01
DAV:   4    -0.656402184477E+03    0.59768E-03   -0.67923E-04   552   0.471E-02    0.132E-01
DAV:   5    -0.656402096318E+03    0.88159E-04   -0.16406E-04   360   0.235E-02
 201 F= -.67161773E+03 E0= -.67155666E+03  d E =-.219760E-03
       N       E                     dE             d eps       ncg     rms          rms(c)
DAV:   1    -0.656402459163E+03   -0.27469E-03   -0.38197E-02   600   0.261E-01    0.741E-02
DAV:   2    -0.656402633291E+03   -0.17413E-03   -0.13925E-03   840   0.653E-02    0.175E-01
DAV:   3    -0.656402805662E+03   -0.17237E-03   -0.23040E-03   516   0.537E-02    0.356E-01
DAV:   4    -0.656402587020E+03    0.21864E-03   -0.55314E-04   408   0.342E-02    0.532E-02
DAV:   5    -0.656402533736E+03    0.53284E-04   -0.49000E-05   348   0.199E-02
 202 F= -.67161784E+03 E0= -.67155656E+03  d E =-.327048E-03
       N       E                     dE             d eps       ncg     rms          rms(c)
DAV:   1    -0.656402558218E+03    0.28802E-04   -0.73745E-04   612   0.385E-02    0.346E-02
DAV:   2    -0.656402827972E+03   -0.26975E-03   -0.82286E-04   432   0.425E-02    0.327E-01
DAV:   3    -0.656402595766E+03    0.23221E-03   -0.11944E-03   432   0.441E-02    0.117E-01
DAV:   4    -0.656402563751E+03    0.32014E-04   -0.14479E-04   336   0.151E-02
 203 F= -.67161782E+03 E0= -.67155689E+03  d E =-.309582E-03
       N       E                     dE             d eps       ncg     rms          rms(c)
DAV:   1    -0.656402825807E+03   -0.23004E-03   -0.84555E-03   600   0.120E-01    0.387E-02
DAV:   2    -0.656402922005E+03   -0.96198E-04   -0.55218E-04   516   0.366E-02
 204 F= -.67161804E+03 E0= -.67155749E+03  d E =-.225420E-03
       N       E                     dE             d eps       ncg     rms          rms(c)
DAV:   1    -0.656403325007E+03   -0.49920E-03   -0.64143E-02   600   0.331E-01    0.139E-01
DAV:   2    -0.656408399904E+03   -0.50749E-02   -0.11464E-02   888   0.168E-01    0.135E+00
DAV:   3    -0.656403877355E+03    0.45225E-02   -0.13169E-02   720   0.146E-01    0.249E-01
DAV:   4    -0.656403599581E+03    0.27777E-03   -0.21760E-03   612   0.536E-02    0.132E-01
DAV:   5    -0.656403393790E+03    0.20579E-03   -0.32685E-04   420   0.273E-02    0.444E-02
DAV:   6    -0.656403413452E+03   -0.19662E-04   -0.11600E-04   348   0.177E-02
 205 F= -.67161817E+03 E0= -.67155700E+03  d E =-.354115E-03
       N       E                     dE             d eps       ncg     rms          rms(c)
DAV:   1    -0.656403628665E+03   -0.23487E-03   -0.12725E-02   600   0.149E-01    0.106E-01
DAV:   2    -0.656408221354E+03   -0.45927E-02   -0.99547E-03   768   0.145E-01    0.132E+00
DAV:   3    -0.656404018086E+03    0.42033E-02   -0.11578E-02   624   0.139E-01    0.228E-01
DAV:   4    -0.656403732798E+03    0.28529E-03   -0.12183E-03   444   0.410E-02    0.143E-01
DAV:   5    -0.656403642297E+03    0.90501E-04   -0.10257E-04   348   0.186E-02
 206 F= -.67161833E+03 E0= -.67155769E+03  d E =-.155261E-03
       N       E                     dE             d eps       ncg     rms          rms(c)
DAV:   1    -0.656403741633E+03   -0.88353E-05   -0.16545E-02   600   0.169E-01    0.495E-02
DAV:   2    -0.656403812508E+03   -0.70875E-04   -0.62048E-04   720   0.381E-02
 207 F= -.67161841E+03 E0= -.67155732E+03  d E =-.241977E-03
       N       E                     dE             d eps       ncg     rms          rms(c)
DAV:   1    -0.656403876521E+03   -0.13489E-03   -0.14312E-03   672   0.513E-02    0.225E-01
DAV:   2    -0.656430023263E+03   -0.26147E-01   -0.24451E-01   816   0.343E-01    0.293E+00
DAV:   3    -0.656406121337E+03    0.23902E-01   -0.20014E-01   756   0.306E-01    0.394E-01
DAV:   4    -0.656403957041E+03    0.21643E-02   -0.22603E-03   624   0.694E-02    0.177E-01
DAV:   5    -0.656403822483E+03    0.13456E-03   -0.22123E-04   384   0.275E-02    0.148E-01
DAV:   6    -0.656403784256E+03    0.38227E-04   -0.33565E-05   300   0.130E-02
 208 F= -.67161840E+03 E0= -.67155714E+03  d E =-.230123E-03
       N       E                     dE             d eps       ncg     rms          rms(c)
DAV:   1    -0.656403825200E+03   -0.27164E-05   -0.11552E-02   600   0.142E-01    0.115E-01
DAV:   2    -0.656408620410E+03   -0.47952E-02   -0.96593E-03   696   0.151E-01    0.134E+00
DAV:   3    -0.656404276620E+03    0.43438E-02   -0.12547E-02   600   0.144E-01    0.247E-01
DAV:   4    -0.656403980063E+03    0.29656E-03   -0.18525E-03   504   0.477E-02    0.133E-01
DAV:   5    -0.656403830816E+03    0.14925E-03   -0.15452E-04   336   0.236E-02    0.807E-02
DAV:   6    -0.656403817727E+03    0.13090E-04   -0.39858E-05   300   0.108E-02
 209 F= -.67161849E+03 E0= -.67155771E+03  d E =-.845477E-04
       N       E                     dE             d eps       ncg     rms          rms(c)
DAV:   1    -0.656403816992E+03    0.13824E-04   -0.84079E-03   600   0.120E-01    0.634E-02
DAV:   2    -0.656404463872E+03   -0.64688E-03   -0.15043E-03   528   0.595E-02    0.508E-01
DAV:   3    -0.656403919397E+03    0.54448E-03   -0.25595E-03   480   0.664E-02    0.176E-01
DAV:   4    -0.656403861450E+03    0.57946E-04   -0.51629E-04   360   0.266E-02
 210 F= -.67161857E+03 E0= -.67155776E+03  d E =-.171953E-03
       N       E                     dE             d eps       ncg     rms          rms(c)
DAV:   1    -0.656403876226E+03    0.43171E-04   -0.82103E-03   600   0.115E-01    0.331E-02
DAV:   2    -0.656403917378E+03   -0.41152E-04   -0.23301E-04   480   0.249E-02
 211 F= -.67161866E+03 E0= -.67155738E+03  d E =-.825809E-04
