<?xml version="1.0" encoding="ISO-8859-1"?>
<modeling>
 <generator>
  <i name="program" type="string">vasp </i>
  <i name="version" type="string">5.4.1  </i>
  <i name="subversion" type="string">05Feb16 (build Apr 21 2017 13:36:42) gamma-only                       parallel </i>
  <i name="platform" type="string">IFC91_ompi </i>
  <i name="date" type="string">2020 09 15 </i>
  <i name="time" type="string">06:19:17 </i>
 </generator>
 <incar>
  <i type="string" name="SYSTEM"> basalPlane</i>
  <i type="int" name="ISTART">     0</i>
  <i type="string" name="PREC">accurate  !=accurate, max(enmax) no wra</i>
  <i type="string" name="ALGO"> Normal    !=Normal, blocked Davidson it</i>
  <i type="int" name="NSIM">     4</i>
  <i type="int" name="ISPIN">     1</i>
  <i type="int" name="ICHARG">     2</i>
  <i type="int" name="INIWAV">     1</i>
  <i type="int" name="NELM">   200</i>
  <i type="int" name="NELMDL">    -5</i>
  <i type="int" name="NELMIN">     2</i>
  <i type="int" name="IBRION">     2</i>
  <i name="EDIFF">      0.00010000</i>
  <i name="EDIFFG">     -0.02000000</i>
  <i type="int" name="NSW"> 10000</i>
  <i type="int" name="ISIF">     2</i>
  <i type="int" name="ISYM">     2</i>
  <i name="ENCUT">    400.00000000</i>
  <i name="ENAUG">    645.00000000</i>
  <i type="string" name="LREAL"> Auto     !=Auto projection operators ev</i>
  <i type="logical" name="LPLANE"> T  </i>
  <i type="int" name="ISMEAR">     0</i>
  <i name="SIGMA">      0.10000000</i>
  <i type="int" name="NWRITE">     2</i>
  <i type="logical" name="LWAVE"> F  </i>
  <i type="logical" name="LCHARG"> F  </i>
  <i type="logical" name="LORBIT"> F  </i>
  <i type="logical" name="LELF"> F  </i>
  <i type="logical" name="LSCALU"> F  </i>
  <v type="int" name="KPOINT_BSE">    -1     0     0     0</v>
  <i type="int" name="NELM">   200</i>
 </incar>
 <kpoints>
  <varray name="kpointlist" >
   <v>       0.00000000       0.00000000       0.00000000 </v>
  </varray>
  <varray name="weights" >
   <v>       1.00000000 </v>
  </varray>
 </kpoints>
 <parameters>
  <separator name="general" >
   <i type="string" name="SYSTEM">basalPlane</i>
   <i type="logical" name="LCOMPAT"> F  </i>
  </separator>
  <separator name="electronic" >
   <i type="string" name="PREC">accura</i>
   <i name="ENMAX">    400.00000000</i>
   <i name="ENAUG">    645.00000000</i>
   <i name="EDIFF">      0.00010000</i>
   <i type="int" name="IALGO">    38</i>
   <i type="int" name="IWAVPR">    11</i>
   <i type="int" name="NBANDS">   300</i>
   <i name="NELECT">    491.00000000</i>
   <i type="int" name="TURBO">     0</i>
   <i type="int" name="IRESTART">     0</i>
   <i type="int" name="NREBOOT">     0</i>
   <i type="int" name="NMIN">     0</i>
   <i name="EREF">      0.00000000</i>
   <separator name="electronic smearing" >
    <i type="int" name="ISMEAR">     0</i>
    <i name="SIGMA">      0.10000000</i>
    <i name="KSPACING">      0.50000000</i>
    <i type="logical" name="KGAMMA"> T  </i>
   </separator>
   <separator name="electronic projectors" >
    <i type="logical" name="LREAL"> T  </i>
    <v name="ROPT">     -0.00025000     -0.00025000     -0.00025000     -0.00025000     -0.00025000</v>
    <i type="int" name="LMAXPAW">  -100</i>
    <i type="int" name="LMAXMIX">     2</i>
    <i type="logical" name="NLSPLINE"> F  </i>
   </separator>
   <separator name="electronic startup" >
    <i type="int" name="ISTART">     0</i>
    <i type="int" name="ICHARG">     2</i>
    <i type="int" name="INIWAV">     1</i>
   </separator>
   <separator name="electronic spin" >
    <i type="int" name="ISPIN">     1</i>
    <i type="logical" name="LNONCOLLINEAR"> F  </i>
    <v name="MAGMOM">      1.00000000      1.00000000      1.00000000      1.00000000      1.00000000      1.00000000      1.00000000      1.00000000      1.00000000      1.00000000      1.00000000      1.00000000      1.00000000      1.00000000      1.00000000      1.00000000      1.00000000      1.00000000      1.00000000      1.00000000
      1.00000000      1.00000000      1.00000000      1.00000000      1.00000000      1.00000000      1.00000000      1.00000000      1.00000000      1.00000000      1.00000000      1.00000000      1.00000000      1.00000000      1.00000000      1.00000000      1.00000000      1.00000000      1.00000000      1.00000000
      1.00000000      1.00000000      1.00000000      1.00000000      1.00000000      1.00000000      1.00000000      1.00000000      1.00000000      1.00000000      1.00000000      1.00000000      1.00000000      1.00000000      1.00000000      1.00000000      1.00000000      1.00000000      1.00000000      1.00000000
      1.00000000      1.00000000      1.00000000      1.00000000      1.00000000      1.00000000      1.00000000      1.00000000      1.00000000      1.00000000      1.00000000      1.00000000      1.00000000      1.00000000      1.00000000      1.00000000      1.00000000      1.00000000      1.00000000      1.00000000
      1.00000000      1.00000000      1.00000000      1.00000000      1.00000000      1.00000000      1.00000000      1.00000000      1.00000000      1.00000000      1.00000000      1.00000000      1.00000000</v>
    <i name="NUPDOWN">     -1.00000000</i>
    <i type="logical" name="LSORBIT"> F  </i>
    <v name="SAXIS">      0.00000000      0.00000000      1.00000000</v>
    <i type="logical" name="LSPIRAL"> F  </i>
    <v name="QSPIRAL">      0.00000000      0.00000000      0.00000000</v>
    <i type="logical" name="LZEROZ"> F  </i>
   </separator>
   <separator name="electronic exchange-correlation" >
    <i type="logical" name="LASPH"> F  </i>
    <i type="logical" name="LMETAGGA"> F  </i>
   </separator>
   <separator name="electronic convergence" >
    <i type="int" name="NELM">   200</i>
    <i type="int" name="NELMDL">    -5</i>
    <i type="int" name="NELMIN">     2</i>
    <i name="ENINI">    400.00000000</i>
    <separator name="electronic convergence detail" >
     <i type="logical" name="LDIAG"> T  </i>
     <i type="logical" name="LSUBROT"> F  </i>
     <i name="WEIMIN">      0.00100000</i>
     <i name="EBREAK">      0.00000008</i>
     <i name="DEPER">      0.30000000</i>
     <i type="int" name="NRMM">     4</i>
     <i name="TIME">      0.40000000</i>
    </separator>
   </separator>
   <separator name="electronic mixer" >
    <i name="AMIX">      0.40000000</i>
    <i name="BMIX">      1.00000000</i>
    <i name="AMIN">      0.10000000</i>
    <i name="AMIX_MAG">      1.60000000</i>
    <i name="BMIX_MAG">      1.00000000</i>
    <separator name="electronic mixer details" >
     <i type="int" name="IMIX">     4</i>
     <i type="logical" name="MIXFIRST"> F  </i>
     <i type="int" name="MAXMIX">   -45</i>
     <i name="WC">    100.00000000</i>
     <i type="int" name="INIMIX">     1</i>
     <i type="int" name="MIXPRE">     1</i>
     <i type="int" name="MREMOVE">     5</i>
    </separator>
   </separator>
   <separator name="electronic dipolcorrection" >
    <i type="logical" name="LDIPOL"> F  </i>
    <i type="logical" name="LMONO"> F  </i>
    <i type="int" name="IDIPOL">     0</i>
    <i name="EPSILON">      1.00000000</i>
    <v name="DIPOL">   -100.00000000   -100.00000000   -100.00000000</v>
    <i name="EFIELD">      0.00000000</i>
   </separator>
  </separator>
  <separator name="grids" >
   <i type="int" name="NGX">    64</i>
   <i type="int" name="NGY">    84</i>
   <i type="int" name="NGZ">   240</i>
   <i type="int" name="NGXF">   128</i>
   <i type="int" name="NGYF">   168</i>
   <i type="int" name="NGZF">   480</i>
   <i type="logical" name="ADDGRID"> F  </i>
  </separator>
  <separator name="ionic" >
   <i type="int" name="NSW"> 10000</i>
   <i type="int" name="IBRION">     2</i>
   <i type="int" name="ISIF">     2</i>
   <i name="PSTRESS">      0.00000000</i>
   <i name="EDIFFG">     -0.02000000</i>
   <i type="int" name="NFREE">     1</i>
   <i name="POTIM">      0.50000000</i>
   <i name="SMASS">     -3.00000000</i>
   <i name="SCALEE">      1.00000000</i>
  </separator>
  <separator name="ionic md" >
   <i name="TEBEG">      0.00010000</i>
   <i name="TEEND">      0.00010000</i>
   <i type="int" name="NBLOCK">     1</i>
   <i type="int" name="KBLOCK"> 10000</i>
   <i type="int" name="NPACO">   256</i>
   <i name="APACO">     16.00000000</i>
  </separator>
  <separator name="symmetry" >
   <i type="int" name="ISYM">     2</i>
   <i name="SYMPREC">      0.00001000</i>
  </separator>
  <separator name="dos" >
   <i type="logical" name="LORBIT"> F  </i>
   <v name="RWIGS">     -1.00000000     -1.00000000     -1.00000000     -1.00000000     -1.00000000</v>
   <i type="int" name="NEDOS">   301</i>
   <i name="EMIN">     10.00000000</i>
   <i name="EMAX">    -10.00000000</i>
   <i name="EFERMI">      0.00000000</i>
  </separator>
  <separator name="writing" >
   <i type="int" name="NWRITE">     2</i>
   <i type="logical" name="LWAVE"> F  </i>
   <i type="logical" name="LCHARG"> F  </i>
   <i type="logical" name="LPARD"> F  </i>
   <i type="logical" name="LVTOT"> F  </i>
   <i type="logical" name="LVHAR"> F  </i>
   <i type="logical" name="LELF"> F  </i>
   <i type="logical" name="LOPTICS"> F  </i>
   <v name="STM">      0.00000000      0.00000000      0.00000000      0.00000000      0.00000000      0.00000000      0.00000000</v>
  </separator>
  <separator name="performance" >
   <i type="int" name="NPAR">    12</i>
   <i type="int" name="NSIM">     4</i>
   <i type="int" name="NBLK">    -1</i>
   <i type="logical" name="LPLANE"> T  </i>
   <i type="logical" name="LSCALAPACK"> T  </i>
   <i type="logical" name="LSCAAWARE"> F  </i>
   <i type="logical" name="LSCALU"> F  </i>
   <i type="logical" name="LASYNC"> F  </i>
   <i type="logical" name="LORBITALREAL"> F  </i>
  </separator>
  <separator name="miscellaneous" >
   <i type="int" name="IDIOT">     3</i>
   <i type="logical" name="LMUSIC"> F  </i>
   <v name="POMASS">     12.01100000     58.93300000      1.00000000     95.94000000     32.06600000</v>
   <v name="DARWINR">      0.00000000      0.00000000      0.00000000      0.00000000      0.00000000</v>
   <v name="DARWINV">      1.00000000      1.00000000      1.00000000      1.00000000      1.00000000</v>
   <i type="logical" name="LCORR"> T  </i>
  </separator>
  <i type="logical" name="GGA_COMPAT"> T  </i>
  <i type="logical" name="LBERRY"> F  </i>
  <i type="int" name="ICORELEVEL">     0</i>
  <i type="logical" name="LDAU"> F  </i>
  <i type="int" name="I_CONSTRAINED_M">     0</i>
  <separator name="electronic exchange-correlation" >
   <i type="string" name="GGA">--</i>
   <i type="int" name="VOSKOWN">     0</i>
   <i type="logical" name="LHFCALC"> F  </i>
   <i type="string" name="PRECFOCK"></i>
   <i type="logical" name="LSYMGRAD"> F  </i>
   <i type="logical" name="LHFONE"> F  </i>
   <i type="logical" name="LRHFCALC"> F  </i>
   <i type="logical" name="LTHOMAS"> F  </i>
   <i type="logical" name="LMODELHF"> F  </i>
   <i name="ENCUT4O">     -1.00000000</i>
   <i type="int" name="EXXOEP">     0</i>
   <i type="int" name="FOURORBIT">     0</i>
   <i name="AEXX">      0.00000000</i>
   <i name="HFALPHA">      0.00000000</i>
   <i name="MCALPHA">      0.00000000</i>
   <i name="ALDAX">      1.00000000</i>
   <i name="AGGAX">      1.00000000</i>
   <i name="ALDAC">      1.00000000</i>
   <i name="AGGAC">      1.00000000</i>
   <i type="int" name="NKREDX">     1</i>
   <i type="int" name="NKREDY">     1</i>
   <i type="int" name="NKREDZ">     1</i>
   <i type="logical" name="SHIFTRED"> F  </i>
   <i type="logical" name="ODDONLY"> F  </i>
   <i type="logical" name="EVENONLY"> F  </i>
   <i type="int" name="LMAXFOCK">     0</i>
   <i type="int" name="NMAXFOCKAE">     0</i>
   <i type="logical" name="LFOCKAEDFT"> F  </i>
   <i name="HFSCREEN">      0.00000000</i>
   <i name="HFSCREENC">      0.00000000</i>
   <i type="int" name="NBANDSGWLOW">     0</i>
  </separator>
  <separator name="vdW DFT" >
   <i type="logical" name="LUSE_VDW"> F  </i>
   <i name="Zab_VDW">     -0.84910000</i>
   <i name="PARAM1">      0.12340000</i>
   <i name="PARAM2">      1.00000000</i>
   <i name="PARAM3">      0.00000000</i>
  </separator>
  <separator name="model GW" >
   <i type="int" name="MODEL_GW">     0</i>
   <i name="MODEL_EPS0">     23.80275655</i>
   <i name="MODEL_ALPHA">      1.00000000</i>
  </separator>
  <separator name="linear response parameters" >
   <i type="logical" name="LEPSILON"> F  </i>
   <i type="logical" name="LRPA"> F  </i>
   <i type="logical" name="LNABLA"> F  </i>
   <i type="logical" name="LVEL"> F  </i>
   <i type="int" name="KINTER">     0</i>
   <i name="CSHIFT">      0.10000000</i>
   <i name="OMEGAMAX">     -1.00000000</i>
   <i name="DEG_THRESHOLD">      0.00200000</i>
  </separator>
  <separator name="orbital magnetization" >
   <i type="logical" name="NUCIND"> F  </i>
   <v name="MAGPOS">      0.00000000      0.00000000      0.00000000</v>
   <i type="logical" name="LNICSALL"> T  </i>
   <i type="logical" name="ORBITALMAG"> F  </i>
   <i type="logical" name="LMAGBLOCH"> F  </i>
   <i type="logical" name="LCHIMAG"> F  </i>
   <i type="logical" name="LGAUGE"> T  </i>
   <i type="int" name="MAGATOM">     0</i>
   <v name="MAGDIPOL">      0.00000000      0.00000000      0.00000000</v>
   <v name="AVECCONST">      0.00000000      0.00000000      0.00000000</v>
  </separator>
  <separator name="response functions" >
   <i type="logical" name="LADDER"> F  </i>
   <i type="logical" name="LFXC"> F  </i>
   <i type="logical" name="LHARTREE"> T  </i>
   <i type="int" name="IBSE">     0</i>
   <v type="int" name="KPOINT">    -1     0     0     0</v>
   <i type="logical" name="LTCTE"> F  </i>
   <i type="logical" name="LTETE"> F  </i>
   <i type="logical" name="LTRIPLET"> F  </i>
   <i type="logical" name="LFXCEPS"> F  </i>
   <i type="logical" name="LFXHEG"> F  </i>
   <i type="int" name="NATURALO">     0</i>
   <i type="logical" name="L2ORDER"> F  </i>
   <i type="logical" name="LUSEW"> F  </i>
   <i name="ENCUTGW">     -2.00000000</i>
   <i name="ENCUTGWSOFT">     -2.00000000</i>
   <i name="ENCUTLF">     -1.00000000</i>
   <i type="int" name="LMAXMP2">    -1</i>
   <i name="SCISSOR">      0.00000000</i>
   <i type="int" name="NOMEGA">     0</i>
   <i type="int" name="NOMEGAR">     0</i>
   <i type="int" name="NBANDSGW">    -1</i>
   <i type="int" name="NBANDSO">    -1</i>
   <i type="int" name="NBANDSV">    -1</i>
   <i type="int" name="NELM">   200</i>
   <i type="int" name="NELMHF">     1</i>
   <i type="int" name="DIM">     3</i>
   <i type="int" name="ANTIRES">     0</i>
   <i name="OMEGAMAX">    -30.00000000</i>
   <i name="OMEGAMIN">    -30.00000000</i>
   <i name="OMEGATL">   -200.00000000</i>
   <i type="int" name="OMEGAGRID">     0</i>
   <i name="CSHIFT">     -0.10000000</i>
   <i type="logical" name="SELFENERGY"> F  </i>
   <i type="logical" name="LSPECTRAL"> F  </i>
   <i type="logical" name="LSPECTRALGW"> F  </i>
   <i type="logical" name="LSINGLES"> F  </i>
   <i type="logical" name="LFERMIGW"> F  </i>
   <i type="logical" name="ODDONLYGW"> F  </i>
   <i type="logical" name="EVENONLYGW"> F  </i>
   <i type="int" name="NKREDLFX">     1</i>
   <i type="int" name="NKREDLFY">     1</i>
   <i type="int" name="NKREDLFZ">     1</i>
   <i type="int" name="MAXMEM">  1800</i>
   <i type="int" name="TELESCOPE">     0</i>
   <i type="int" name="TAUPAR">     1</i>
   <i type="int" name="OMEGAPAR">    -1</i>
   <i name="LAMBDA">      1.00000000</i>
  </separator>
  <separator name="External order field" >
   <i name="OFIELD_KAPPA">      0.00000000</i>
   <v name="OFIELD_K">      0.00000000      0.00000000      0.00000000</v>
   <i name="OFIELD_Q6_NEAR">      0.00000000</i>
   <i name="OFIELD_Q6_FAR">      0.00000000</i>
   <i name="OFIELD_A">      0.00000000</i>
  </separator>
 </parameters>
 <atominfo>
  <atoms>      93 </atoms>
  <types>       5 </types>
  <array name="atoms" >
   <dimension dim="1">ion</dimension>
   <field type="string">element</field>
   <field type="int">atomtype</field>
   <set>
    <rc><c>C </c><c>   1</c></rc>
    <rc><c>C </c><c>   1</c></rc>
    <rc><c>C </c><c>   1</c></rc>
    <rc><c>C </c><c>   1</c></rc>
    <rc><c>C </c><c>   1</c></rc>
    <rc><c>C </c><c>   1</c></rc>
    <rc><c>C </c><c>   1</c></rc>
    <rc><c>C </c><c>   1</c></rc>
    <rc><c>C </c><c>   1</c></rc>
    <rc><c>C </c><c>   1</c></rc>
    <rc><c>Co</c><c>   2</c></rc>
    <rc><c>H </c><c>   3</c></rc>
    <rc><c>H </c><c>   3</c></rc>
    <rc><c>H </c><c>   3</c></rc>
    <rc><c>H </c><c>   3</c></rc>
    <rc><c>H </c><c>   3</c></rc>
    <rc><c>H </c><c>   3</c></rc>
    <rc><c>H </c><c>   3</c></rc>
    <rc><c>H </c><c>   3</c></rc>
    <rc><c>H </c><c>   3</c></rc>
    <rc><c>H </c><c>   3</c></rc>
    <rc><c>Mo</c><c>   4</c></rc>
    <rc><c>Mo</c><c>   4</c></rc>
    <rc><c>Mo</c><c>   4</c></rc>
    <rc><c>Mo</c><c>   4</c></rc>
    <rc><c>Mo</c><c>   4</c></rc>
    <rc><c>Mo</c><c>   4</c></rc>
    <rc><c>Mo</c><c>   4</c></rc>
    <rc><c>Mo</c><c>   4</c></rc>
    <rc><c>Mo</c><c>   4</c></rc>
    <rc><c>Mo</c><c>   4</c></rc>
    <rc><c>Mo</c><c>   4</c></rc>
    <rc><c>Mo</c><c>   4</c></rc>
    <rc><c>Mo</c><c>   4</c></rc>
    <rc><c>Mo</c><c>   4</c></rc>
    <rc><c>Mo</c><c>   4</c></rc>
    <rc><c>Mo</c><c>   4</c></rc>
    <rc><c>Mo</c><c>   4</c></rc>
    <rc><c>Mo</c><c>   4</c></rc>
    <rc><c>Mo</c><c>   4</c></rc>
    <rc><c>Mo</c><c>   4</c></rc>
    <rc><c>Mo</c><c>   4</c></rc>
    <rc><c>Mo</c><c>   4</c></rc>
    <rc><c>Mo</c><c>   4</c></rc>
    <rc><c>Mo</c><c>   4</c></rc>
    <rc><c>S </c><c>   5</c></rc>
    <rc><c>S </c><c>   5</c></rc>
    <rc><c>S </c><c>   5</c></rc>
    <rc><c>S </c><c>   5</c></rc>
    <rc><c>S </c><c>   5</c></rc>
    <rc><c>S </c><c>   5</c></rc>
    <rc><c>S </c><c>   5</c></rc>
    <rc><c>S </c><c>   5</c></rc>
    <rc><c>S </c><c>   5</c></rc>
    <rc><c>S </c><c>   5</c></rc>
    <rc><c>S </c><c>   5</c></rc>
    <rc><c>S </c><c>   5</c></rc>
    <rc><c>S </c><c>   5</c></rc>
    <rc><c>S </c><c>   5</c></rc>
    <rc><c>S </c><c>   5</c></rc>
    <rc><c>S </c><c>   5</c></rc>
    <rc><c>S </c><c>   5</c></rc>
    <rc><c>S </c><c>   5</c></rc>
    <rc><c>S </c><c>   5</c></rc>
    <rc><c>S </c><c>   5</c></rc>
    <rc><c>S </c><c>   5</c></rc>
    <rc><c>S </c><c>   5</c></rc>
    <rc><c>S </c><c>   5</c></rc>
    <rc><c>S </c><c>   5</c></rc>
    <rc><c>S </c><c>   5</c></rc>
    <rc><c>S </c><c>   5</c></rc>
    <rc><c>S </c><c>   5</c></rc>
    <rc><c>S </c><c>   5</c></rc>
    <rc><c>S </c><c>   5</c></rc>
    <rc><c>S </c><c>   5</c></rc>
    <rc><c>S </c><c>   5</c></rc>
    <rc><c>S </c><c>   5</c></rc>
    <rc><c>S </c><c>   5</c></rc>
    <rc><c>S </c><c>   5</c></rc>
    <rc><c>S </c><c>   5</c></rc>
    <rc><c>S </c><c>   5</c></rc>
    <rc><c>S </c><c>   5</c></rc>
    <rc><c>S </c><c>   5</c></rc>
    <rc><c>S </c><c>   5</c></rc>
    <rc><c>S </c><c>   5</c></rc>
    <rc><c>S </c><c>   5</c></rc>
    <rc><c>S </c><c>   5</c></rc>
    <rc><c>S </c><c>   5</c></rc>
    <rc><c>S </c><c>   5</c></rc>
    <rc><c>S </c><c>   5</c></rc>
    <rc><c>S </c><c>   5</c></rc>
    <rc><c>S </c><c>   5</c></rc>
    <rc><c>S </c><c>   5</c></rc>
   </set>
  </array>
  <array name="atomtypes" >
   <dimension dim="1">type</dimension>
   <field type="int">atomspertype</field>
   <field type="string">element</field>
   <field>mass</field>
   <field>valence</field>
   <field type="string">pseudopotential</field>
   <set>
    <rc><c>  10</c><c>C </c><c>     12.01100000</c><c>      4.00000000</c><c>  PAW_PBE C 08Apr2002                   </c></rc>
    <rc><c>   1</c><c>Co</c><c>     58.93300000</c><c>      9.00000000</c><c>  PAW_PBE Co 02Aug2007                  </c></rc>
    <rc><c>  10</c><c>H </c><c>      1.00000000</c><c>      1.00000000</c><c>  PAW_PBE H 15Jun2001                   </c></rc>
    <rc><c>  24</c><c>Mo</c><c>     95.94000000</c><c>      6.00000000</c><c>  PAW_PBE Mo 08Apr2002                  </c></rc>
    <rc><c>  48</c><c>S </c><c>     32.06600000</c><c>      6.00000000</c><c>  PAW_PBE S 06Sep2000                   </c></rc>
   </set>
  </array>
 </atominfo>
 <structure name="initialpos" >
  <crystal>
   <varray name="basis" >
    <v>       9.57094646       0.00000000       0.00000000 </v>
    <v>      -6.38062803      11.05157872       0.00000000 </v>
    <v>       0.00000000       0.00000000      34.88026251 </v>
   </varray>
   <i name="volume">   3689.42726549 </i>
   <varray name="rec_basis" >
    <v>       0.10448287       0.06032318       0.00000000 </v>
    <v>       0.00000000       0.09048481       0.00000000 </v>
    <v>       0.00000000       0.00000000       0.02866951 </v>
   </varray>
  </crystal>
  <varray name="positions" >
   <v>       0.06952961       0.84202529       0.11418686 </v>
   <v>       0.08377670       0.73935659       0.10364991 </v>
   <v>       0.93670355       0.80183349       0.14020144 </v>
   <v>       0.86921313       0.67435779       0.14584190 </v>
   <v>       0.95993175       0.63573492       0.12321271 </v>
   <v>       0.84442625       0.72354741       0.02854275 </v>
   <v>       0.62903394       0.58976788       0.06620615 </v>
   <v>       0.75169095       0.59985152       0.04046292 </v>
   <v>       0.64630625       0.70734612       0.07029750 </v>
   <v>       0.77936290       0.78997248       0.04698263 </v>
   <v>       0.85702527       0.71094201       0.08799112 </v>
   <v>       0.93634647       0.54334468       0.12071922 </v>
   <v>       0.77284420       0.52691775       0.03201371 </v>
   <v>       0.57283764       0.73021833       0.08837892 </v>
   <v>       0.54096324       0.50779219       0.08079760 </v>
   <v>       0.94824615       0.76102143       0.00949276 </v>
   <v>       0.17114414       0.73957102       0.08367082 </v>
   <v>       0.14429870       0.93382045       0.10360918 </v>
   <v>       0.89322600       0.85799029       0.15294262 </v>
   <v>       0.76506266       0.61637054       0.16348268 </v>
   <v>       0.82502714       0.88663340       0.04433620 </v>
   <v>       0.55555566       0.08333325       0.25000928 </v>
   <v>       0.55555566       0.33333325       0.25000928 </v>
   <v>       0.44444432       0.41666674       0.74999076 </v>
   <v>       0.55555566       0.58333325       0.25000928 </v>
   <v>       0.44444432       0.66666674       0.74999076 </v>
   <v>       0.55555566       0.83333325       0.25000928 </v>
   <v>       0.44444432       0.91666674       0.74999076 </v>
   <v>       0.88888899       0.33333325       0.25000928 </v>
   <v>       0.77777765       0.16666674       0.74999076 </v>
   <v>       0.77777765       0.41666674       0.74999076 </v>
   <v>       0.88888899       0.58333325       0.25000928 </v>
   <v>       0.77777765       0.66666674       0.74999076 </v>
   <v>       0.88888899       0.83333325       0.25000928 </v>
   <v>       0.77777765       0.91666674       0.74999076 </v>
   <v>       0.11111099       0.91666674       0.74999076 </v>
   <v>       0.88888899       0.08333325       0.25000928 </v>
   <v>       0.22222233       0.83333325       0.25000928 </v>
   <v>       0.44444432       0.16666674       0.74999076 </v>
   <v>       0.22222233       0.58333325       0.25000928 </v>
   <v>       0.11111099       0.41666674       0.74999076 </v>
   <v>       0.22222233       0.33333325       0.25000928 </v>
   <v>       0.22222233       0.08333325       0.25000928 </v>
   <v>       0.11111099       0.16666674       0.74999076 </v>
   <v>       0.11111099       0.66666674       0.74999076 </v>
   <v>       0.77777765       0.16666674       0.29487388 </v>
   <v>       0.88888899       0.08333325       0.79485533 </v>
   <v>       0.77777765       0.16666674       0.20514467 </v>
   <v>       0.88888899       0.08333325       0.70512613 </v>
   <v>       0.22222233       0.08333325       0.70512613 </v>
   <v>       0.11111099       0.16666674       0.20514467 </v>
   <v>       0.77777765       0.41666674       0.29487388 </v>
   <v>       0.88888899       0.33333325       0.79485533 </v>
   <v>       0.11111099       0.66666674       0.20514467 </v>
   <v>       0.55555566       0.83333325       0.70512613 </v>
   <v>       0.88888899       0.33333325       0.70512613 </v>
   <v>       0.22222233       0.08333325       0.79485533 </v>
   <v>       0.11111099       0.16666674       0.29487388 </v>
   <v>       0.77777765       0.66666674       0.29487388 </v>
   <v>       0.88888899       0.58333325       0.79485533 </v>
   <v>       0.77777765       0.66666674       0.20514467 </v>
   <v>       0.88888899       0.58333325       0.70512613 </v>
   <v>       0.77777765       0.91666674       0.29487388 </v>
   <v>       0.88888899       0.83333325       0.79485533 </v>
   <v>       0.77777765       0.41666674       0.20514467 </v>
   <v>       0.44444432       0.91666674       0.20514467 </v>
   <v>       0.44444432       0.91666674       0.29487388 </v>
   <v>       0.22222233       0.58333325       0.70512613 </v>
   <v>       0.22222233       0.58333325       0.79485533 </v>
   <v>       0.11111099       0.91666674       0.29487388 </v>
   <v>       0.22222233       0.83333325       0.79485533 </v>
   <v>       0.11111099       0.91666674       0.20514467 </v>
   <v>       0.22222233       0.83333325       0.70512613 </v>
   <v>       0.11111099       0.66666674       0.29487388 </v>
   <v>       0.77777765       0.91666674       0.20514467 </v>
   <v>       0.44444432       0.16666674       0.29487388 </v>
   <v>       0.55555566       0.08333325       0.79485533 </v>
   <v>       0.44444432       0.16666674       0.20514467 </v>
   <v>       0.55555566       0.08333325       0.70512613 </v>
   <v>       0.44444432       0.41666674       0.29487388 </v>
   <v>       0.55555566       0.33333325       0.79485533 </v>
   <v>       0.44444432       0.41666674       0.20514467 </v>
   <v>       0.55555566       0.33333325       0.70512613 </v>
   <v>       0.22222233       0.33333325       0.70512613 </v>
   <v>       0.11111099       0.41666674       0.20514467 </v>
   <v>       0.44444432       0.66666674       0.29487388 </v>
   <v>       0.55555566       0.58333325       0.79485533 </v>
   <v>       0.44444432       0.66666674       0.20514467 </v>
   <v>       0.55555566       0.58333325       0.70512613 </v>
   <v>       0.22222233       0.33333325       0.79485533 </v>
   <v>       0.11111099       0.41666674       0.29487388 </v>
   <v>       0.55555566       0.83333325       0.79485533 </v>
   <v>       0.88888899       0.83333325       0.70512613 </v>
  </varray>
 </structure>
 <calculation>
  <scstep>
   <time name="dav">    5.30    5.32</time>
   <time name="total">    5.71    5.73</time>
   <energy>
    <i name="alphaZ">    562.94535741 </i>
    <i name="ewald">  43448.84985198 </i>
    <i name="hartreedc"> -62855.40334522 </i>
    <i name="XCdc">   -698.99512294 </i>
    <i name="pawpsdc">  18640.80374730 </i>
    <i name="pawaedc"> -16838.49265242 </i>
    <i name="eentropy">     -0.13949034 </i>
    <i name="bandstr">   1240.05517159 </i>
    <i name="atom">  20917.06298232 </i>
    <i name="e_fr_energy">   4416.68649969 </i>
    <i name="e_wo_entrp">   4416.82599003 </i>
    <i name="e_0_energy">   4416.75624486 </i>
   </energy>
  </scstep>
  <scstep>
   <time name="dav">    8.47    8.49</time>
   <time name="total">    8.47    8.50</time>
   <energy>
    <i name="e_fr_energy">     -1.53723556 </i>
    <i name="e_wo_entrp">     -1.47889626 </i>
    <i name="e_0_energy">     -1.50806591 </i>
   </energy>
  </scstep>
  <scstep>
   <time name="dav">    6.67    6.69</time>
   <time name="total">    6.68    6.70</time>
   <energy>
    <i name="e_fr_energy">   -674.09404368 </i>
    <i name="e_wo_entrp">   -674.01060317 </i>
    <i name="e_0_energy">   -674.05232342 </i>
   </energy>
  </scstep>
  <scstep>
   <time name="dav">    7.36    7.38</time>
   <time name="total">    7.37    7.39</time>
   <energy>
    <i name="e_fr_energy">   -706.61608856 </i>
    <i name="e_wo_entrp">   -706.53235907 </i>
    <i name="e_0_energy">   -706.57422382 </i>
   </energy>
  </scstep>
  <scstep>
   <time name="dav">    8.07    8.09</time>
   <time name="total">    8.65    8.67</time>
   <energy>
    <i name="e_fr_energy">   -707.87485249 </i>
    <i name="e_wo_entrp">   -707.79569306 </i>
    <i name="e_0_energy">   -707.83527277 </i>
   </energy>
  </scstep>
  <scstep>
   <time name="dav">    7.55    7.58</time>
   <time name="total">    8.49    8.53</time>
   <energy>
    <i name="e_fr_energy">   -696.65154889 </i>
    <i name="e_wo_entrp">   -696.55508777 </i>
    <i name="e_0_energy">   -696.60331833 </i>
   </energy>
  </scstep>
  <scstep>
   <time name="dav">    7.62    7.65</time>
   <time name="total">    8.62    8.65</time>
   <energy>
    <i name="e_fr_energy">   -682.63266397 </i>
    <i name="e_wo_entrp">   -682.39117182 </i>
    <i name="e_0_energy">   -682.51191789 </i>
   </energy>
  </scstep>
  <scstep>
   <time name="dav">    7.62    7.64</time>
   <time name="total">    8.56    8.59</time>
   <energy>
    <i name="e_fr_energy">   -728.26268531 </i>
    <i name="e_wo_entrp">   -728.11150024 </i>
    <i name="e_0_energy">   -728.18709278 </i>
   </energy>
  </scstep>
  <scstep>
   <time name="dav">    6.61    7.01</time>
   <time name="total">    7.56    7.96</time>
   <energy>
    <i name="e_fr_energy">   -711.15910886 </i>
    <i name="e_wo_entrp">   -711.03192503 </i>
    <i name="e_0_energy">   -711.09551694 </i>
   </energy>
  </scstep>
  <scstep>
   <time name="dav">    8.03    8.05</time>
   <time name="total">    8.98    9.01</time>
   <energy>
    <i name="e_fr_energy">   -670.16369812 </i>
    <i name="e_wo_entrp">   -670.04908182 </i>
    <i name="e_0_energy">   -670.10638997 </i>
   </energy>
  </scstep>
  <scstep>
   <time name="dav">    7.51    7.53</time>
   <time name="total">    8.46    8.48</time>
   <energy>
    <i name="e_fr_energy">   -664.63416431 </i>
    <i name="e_wo_entrp">   -664.54357823 </i>
    <i name="e_0_energy">   -664.58887127 </i>
   </energy>
  </scstep>
  <scstep>
   <time name="dav">    7.92    7.94</time>
   <time name="total">    8.87    8.89</time>
   <energy>
    <i name="e_fr_energy">   -662.62669550 </i>
    <i name="e_wo_entrp">   -662.50167329 </i>
    <i name="e_0_energy">   -662.56418439 </i>
   </energy>
  </scstep>
  <scstep>
   <time name="dav">    7.92    7.96</time>
   <time name="total">    8.86    8.91</time>
   <energy>
    <i name="e_fr_energy">   -661.85042839 </i>
    <i name="e_wo_entrp">   -661.72742102 </i>
    <i name="e_0_energy">   -661.78892471 </i>
   </energy>
  </scstep>
  <scstep>
   <time name="dav">    7.87    7.89</time>
   <time name="total">    8.81    8.84</time>
   <energy>
    <i name="e_fr_energy">   -661.55037742 </i>
    <i name="e_wo_entrp">   -661.41529090 </i>
    <i name="e_0_energy">   -661.48283416 </i>
   </energy>
  </scstep>
  <scstep>
   <time name="dav">    7.82    7.84</time>
   <time name="total">    8.75    8.79</time>
   <energy>
    <i name="e_fr_energy">   -662.05813789 </i>
    <i name="e_wo_entrp">   -661.92301420 </i>
    <i name="e_0_energy">   -661.99057605 </i>
   </energy>
  </scstep>
  <scstep>
   <time name="dav">    6.43    6.45</time>
   <time name="total">    7.38    7.40</time>
   <energy>
    <i name="e_fr_energy">   -662.07362716 </i>
    <i name="e_wo_entrp">   -661.93881616 </i>
    <i name="e_0_energy">   -662.00622166 </i>
   </energy>
  </scstep>
  <scstep>
   <time name="dav">    8.03    8.05</time>
   <time name="total">    8.97    9.00</time>
   <energy>
    <i name="e_fr_energy">   -660.69007365 </i>
    <i name="e_wo_entrp">   -660.56021940 </i>
    <i name="e_0_energy">   -660.62514652 </i>
   </energy>
  </scstep>
  <scstep>
   <time name="dav">    8.09    8.11</time>
   <time name="total">    9.03    9.06</time>
   <energy>
    <i name="e_fr_energy">   -657.90904819 </i>
    <i name="e_wo_entrp">   -657.79432211 </i>
    <i name="e_0_energy">   -657.85168515 </i>
   </energy>
  </scstep>
  <scstep>
   <time name="dav">    7.91    7.95</time>
   <time name="total">    8.86    8.93</time>
   <energy>
    <i name="e_fr_energy">   -659.46910750 </i>
    <i name="e_wo_entrp">   -659.33152028 </i>
    <i name="e_0_energy">   -659.40031389 </i>
   </energy>
  </scstep>
  <scstep>
   <time name="dav">    8.20    8.22</time>
   <time name="total">    9.19    9.22</time>
   <energy>
    <i name="e_fr_energy">   -673.37050455 </i>
    <i name="e_wo_entrp">   -673.21241822 </i>
    <i name="e_0_energy">   -673.29146138 </i>
   </energy>
  </scstep>
  <scstep>
   <time name="dav">    6.81    6.83</time>
   <time name="total">    7.81    7.84</time>
   <energy>
    <i name="e_fr_energy">   -666.51830165 </i>
    <i name="e_wo_entrp">   -666.19763124 </i>
    <i name="e_0_energy">   -666.35796644 </i>
   </energy>
  </scstep>
  <scstep>
   <time name="dav">    7.77    7.79</time>
   <time name="total">    8.77    8.79</time>
   <energy>
    <i name="e_fr_energy">   -660.30940069 </i>
    <i name="e_wo_entrp">   -660.12117314 </i>
    <i name="e_0_energy">   -660.21528691 </i>
   </energy>
  </scstep>
  <scstep>
   <time name="dav">    7.30    7.32</time>
   <time name="total">    8.29    8.32</time>
   <energy>
    <i name="e_fr_energy">   -660.30966918 </i>
    <i name="e_wo_entrp">   -660.11612511 </i>
    <i name="e_0_energy">   -660.21289715 </i>
   </energy>
  </scstep>
  <scstep>
   <time name="dav">    8.10    8.12</time>
   <time name="total">    9.09    9.12</time>
   <energy>
    <i name="e_fr_energy">   -660.39973416 </i>
    <i name="e_wo_entrp">   -660.20801535 </i>
    <i name="e_0_energy">   -660.30387476 </i>
   </energy>
  </scstep>
  <scstep>
   <time name="dav">    7.02    7.04</time>
   <time name="total">    8.01    8.04</time>
   <energy>
    <i name="e_fr_energy">   -660.46689294 </i>
    <i name="e_wo_entrp">   -660.27548087 </i>
    <i name="e_0_energy">   -660.37118690 </i>
   </energy>
  </scstep>
  <scstep>
   <time name="dav">    7.02    7.04</time>
   <time name="total">    8.02    8.05</time>
   <energy>
    <i name="e_fr_energy">   -660.50487661 </i>
    <i name="e_wo_entrp">   -660.31128356 </i>
    <i name="e_0_energy">   -660.40808008 </i>
   </energy>
  </scstep>
  <scstep>
   <time name="dav">    7.27    7.31</time>
   <time name="total">    8.27    8.31</time>
   <energy>
    <i name="e_fr_energy">   -660.51460067 </i>
    <i name="e_wo_entrp">   -660.32157311 </i>
    <i name="e_0_energy">   -660.41808689 </i>
   </energy>
  </scstep>
  <scstep>
   <time name="dav">    7.50    7.52</time>
   <time name="total">    8.49    8.52</time>
   <energy>
    <i name="e_fr_energy">   -660.65174903 </i>
    <i name="e_wo_entrp">   -660.45936422 </i>
    <i name="e_0_energy">   -660.55555662 </i>
   </energy>
  </scstep>
  <scstep>
   <time name="dav">    7.17    7.19</time>
   <time name="total">    8.16    8.19</time>
   <energy>
    <i name="e_fr_energy">   -660.71740530 </i>
    <i name="e_wo_entrp">   -660.52428620 </i>
    <i name="e_0_energy">   -660.62084575 </i>
   </energy>
  </scstep>
  <scstep>
   <time name="dav">    7.67    7.69</time>
   <time name="total">    8.67    8.70</time>
   <energy>
    <i name="e_fr_energy">   -659.64911639 </i>
    <i name="e_wo_entrp">   -659.48672275 </i>
    <i name="e_0_energy">   -659.56791957 </i>
   </energy>
  </scstep>
  <scstep>
   <time name="dav">    8.18    8.21</time>
   <time name="total">    9.18    9.21</time>
   <energy>
    <i name="e_fr_energy">   -660.49852518 </i>
    <i name="e_wo_entrp">   -660.29116050 </i>
    <i name="e_0_energy">   -660.39484284 </i>
   </energy>
  </scstep>
  <scstep>
   <time name="dav">    7.88    7.90</time>
   <time name="total">    8.88    8.91</time>
   <energy>
    <i name="e_fr_energy">   -654.88273594 </i>
    <i name="e_wo_entrp">   -654.78045529 </i>
    <i name="e_0_energy">   -654.83159562 </i>
   </energy>
  </scstep>
  <scstep>
   <time name="dav">    7.66    7.69</time>
   <time name="total">    9.13    9.20</time>
   <energy>
    <i name="e_fr_energy">   -655.03058764 </i>
    <i name="e_wo_entrp">   -654.92078362 </i>
    <i name="e_0_energy">   -654.97568563 </i>
   </energy>
  </scstep>
  <scstep>
   <time name="dav">   12.18   12.22</time>
   <time name="total">   14.93   15.08</time>
   <energy>
    <i name="e_fr_energy">   -655.98166141 </i>
    <i name="e_wo_entrp">   -655.86405936 </i>
    <i name="e_0_energy">   -655.92286039 </i>
   </energy>
  </scstep>
  <scstep>
   <time name="dav">    7.67    8.03</time>
   <time name="total">    8.86    9.58</time>
   <energy>
    <i name="e_fr_energy">   -655.93677430 </i>
    <i name="e_wo_entrp">   -655.81915707 </i>
    <i name="e_0_energy">   -655.87796569 </i>
   </energy>
  </scstep>
  <scstep>
   <time name="dav">    7.87    7.89</time>
   <time name="total">    8.87    8.91</time>
   <energy>
    <i name="e_fr_energy">   -655.86574213 </i>
    <i name="e_wo_entrp">   -655.74724322 </i>
    <i name="e_0_energy">   -655.80649268 </i>
   </energy>
  </scstep>
  <scstep>
   <time name="dav">    7.56    7.58</time>
   <time name="total">    8.56    8.59</time>
   <energy>
    <i name="e_fr_energy">   -655.43735059 </i>
    <i name="e_wo_entrp">   -655.33203458 </i>
    <i name="e_0_energy">   -655.38469259 </i>
   </energy>
  </scstep>
  <scstep>
   <time name="dav">    8.04    8.07</time>
   <time name="total">    9.04    9.07</time>
   <energy>
    <i name="e_fr_energy">   -654.83112235 </i>
    <i name="e_wo_entrp">   -654.72525811 </i>
    <i name="e_0_energy">   -654.77819023 </i>
   </energy>
  </scstep>
  <scstep>
   <time name="dav">    8.18    8.22</time>
   <time name="total">    9.18    9.23</time>
   <energy>
    <i name="e_fr_energy">   -654.55102082 </i>
    <i name="e_wo_entrp">   -654.45111772 </i>
    <i name="e_0_energy">   -654.50106927 </i>
   </energy>
  </scstep>
  <scstep>
   <time name="dav">    8.02    8.04</time>
   <time name="total">    9.04    9.07</time>
   <energy>
    <i name="e_fr_energy">   -654.31348095 </i>
    <i name="e_wo_entrp">   -654.21080715 </i>
    <i name="e_0_energy">   -654.26214405 </i>
   </energy>
  </scstep>
  <scstep>
   <time name="dav">    7.67    7.69</time>
   <time name="total">    8.66    8.69</time>
   <energy>
    <i name="e_fr_energy">   -654.05716529 </i>
    <i name="e_wo_entrp">   -653.95111331 </i>
    <i name="e_0_energy">   -654.00413930 </i>
   </energy>
  </scstep>
  <scstep>
   <time name="dav">    7.45    7.48</time>
   <time name="total">    8.45    8.48</time>
   <energy>
    <i name="e_fr_energy">   -653.92990079 </i>
    <i name="e_wo_entrp">   -653.83332921 </i>
    <i name="e_0_energy">   -653.88161500 </i>
   </energy>
  </scstep>
  <scstep>
   <time name="dav">    8.27    8.30</time>
   <time name="total">    9.25    9.29</time>
   <energy>
    <i name="e_fr_energy">   -653.93923958 </i>
    <i name="e_wo_entrp">   -653.83905040 </i>
    <i name="e_0_energy">   -653.88914499 </i>
   </energy>
  </scstep>
  <scstep>
   <time name="dav">    8.26    8.28</time>
   <time name="total">    9.25    9.28</time>
   <energy>
    <i name="e_fr_energy">   -653.94708166 </i>
    <i name="e_wo_entrp">   -653.85387798 </i>
    <i name="e_0_energy">   -653.90047982 </i>
   </energy>
  </scstep>
  <scstep>
   <time name="dav">    7.98    8.01</time>
   <time name="total">    8.97    9.00</time>
   <energy>
    <i name="e_fr_energy">   -654.08090662 </i>
    <i name="e_wo_entrp">   -653.98747847 </i>
    <i name="e_0_energy">   -654.03419254 </i>
   </energy>
  </scstep>
  <scstep>
   <time name="dav">    7.94    8.00</time>
   <time name="total">    8.93    8.99</time>
   <energy>
    <i name="e_fr_energy">   -654.15428547 </i>
    <i name="e_wo_entrp">   -654.06079197 </i>
    <i name="e_0_energy">   -654.10753872 </i>
   </energy>
  </scstep>
  <scstep>
   <time name="dav">    8.22    8.25</time>
   <time name="total">    9.22    9.26</time>
   <energy>
    <i name="e_fr_energy">   -654.18475937 </i>
    <i name="e_wo_entrp">   -654.09118800 </i>
    <i name="e_0_energy">   -654.13797369 </i>
   </energy>
  </scstep>
  <scstep>
   <time name="dav">    8.36    8.38</time>
   <time name="total">    9.34    9.38</time>
   <energy>
    <i name="e_fr_energy">   -654.19111010 </i>
    <i name="e_wo_entrp">   -654.09746474 </i>
    <i name="e_0_energy">   -654.14428742 </i>
   </energy>
  </scstep>
  <scstep>
   <time name="dav">    7.79    7.83</time>
   <time name="total">    8.78    8.82</time>
   <energy>
    <i name="e_fr_energy">   -654.18664281 </i>
    <i name="e_wo_entrp">   -654.09288682 </i>
    <i name="e_0_energy">   -654.13976481 </i>
   </energy>
  </scstep>
  <scstep>
   <time name="dav">    7.73    7.79</time>
   <time name="total">    8.72    8.79</time>
   <energy>
    <i name="e_fr_energy">   -654.15761400 </i>
    <i name="e_wo_entrp">   -654.06373947 </i>
    <i name="e_0_energy">   -654.11067673 </i>
   </energy>
  </scstep>
  <scstep>
   <time name="dav">    8.12    8.15</time>
   <time name="total">    9.10    9.14</time>
   <energy>
    <i name="e_fr_energy">   -654.14996310 </i>
    <i name="e_wo_entrp">   -654.05596387 </i>
    <i name="e_0_energy">   -654.10296348 </i>
   </energy>
  </scstep>
  <scstep>
   <time name="dav">    7.48    7.51</time>
   <time name="total">    8.47    8.51</time>
   <energy>
    <i name="e_fr_energy">   -654.12232185 </i>
    <i name="e_wo_entrp">   -654.02827353 </i>
    <i name="e_0_energy">   -654.07529769 </i>
   </energy>
  </scstep>
  <scstep>
   <time name="dav">    7.10    7.16</time>
   <time name="total">    8.09    8.20</time>
   <energy>
    <i name="e_fr_energy">   -654.08039974 </i>
    <i name="e_wo_entrp">   -653.98630970 </i>
    <i name="e_0_energy">   -654.03335472 </i>
   </energy>
  </scstep>
  <scstep>
   <time name="dav">    6.99    7.02</time>
   <time name="total">    8.00    8.12</time>
   <energy>
    <i name="e_fr_energy">   -653.97029532 </i>
    <i name="e_wo_entrp">   -653.87607974 </i>
    <i name="e_0_energy">   -653.92318753 </i>
   </energy>
  </scstep>
  <scstep>
   <time name="dav">    7.06    7.09</time>
   <time name="total">    8.05    8.08</time>
   <energy>
    <i name="e_fr_energy">   -653.91870249 </i>
    <i name="e_wo_entrp">   -653.82443192 </i>
    <i name="e_0_energy">   -653.87156721 </i>
   </energy>
  </scstep>
  <scstep>
   <time name="dav">    7.11    7.13</time>
   <time name="total">    8.08    8.12</time>
   <energy>
    <i name="e_fr_energy">   -653.66088812 </i>
    <i name="e_wo_entrp">   -653.58539776 </i>
    <i name="e_0_energy">   -653.62314294 </i>
   </energy>
  </scstep>
  <scstep>
   <time name="dav">    7.56    7.59</time>
   <time name="total">    8.56    8.60</time>
   <energy>
    <i name="e_fr_energy">   -653.64932037 </i>
    <i name="e_wo_entrp">   -653.56567530 </i>
    <i name="e_0_energy">   -653.60749784 </i>
   </energy>
  </scstep>
  <scstep>
   <time name="dav">    7.88    7.91</time>
   <time name="total">    8.88    8.93</time>
   <energy>
    <i name="e_fr_energy">   -653.64330953 </i>
    <i name="e_wo_entrp">   -653.56071558 </i>
    <i name="e_0_energy">   -653.60201255 </i>
   </energy>
  </scstep>
  <scstep>
   <time name="dav">    7.31    7.33</time>
   <time name="total">    8.31    8.35</time>
   <energy>
    <i name="e_fr_energy">   -653.61358449 </i>
    <i name="e_wo_entrp">   -653.52585379 </i>
    <i name="e_0_energy">   -653.56971914 </i>
   </energy>
  </scstep>
  <scstep>
   <time name="dav">    7.93    8.03</time>
   <time name="total">    8.94    9.05</time>
   <energy>
    <i name="e_fr_energy">   -653.59686881 </i>
    <i name="e_wo_entrp">   -653.50353923 </i>
    <i name="e_0_energy">   -653.55020402 </i>
   </energy>
  </scstep>
  <scstep>
   <time name="dav">    8.54    8.58</time>
   <time name="total">    9.54    9.59</time>
   <energy>
    <i name="e_fr_energy">   -653.68838100 </i>
    <i name="e_wo_entrp">   -653.59205284 </i>
    <i name="e_0_energy">   -653.64021692 </i>
   </energy>
  </scstep>
  <scstep>
   <time name="dav">    6.53    6.55</time>
   <time name="total">    7.53    7.58</time>
   <energy>
    <i name="e_fr_energy">   -653.68949554 </i>
    <i name="e_wo_entrp">   -653.59162733 </i>
    <i name="e_0_energy">   -653.64056144 </i>
   </energy>
  </scstep>
  <scstep>
   <time name="dav">    7.45    7.84</time>
   <time name="total">    8.45    8.87</time>
   <energy>
    <i name="e_fr_energy">   -653.65848306 </i>
    <i name="e_wo_entrp">   -653.55986460 </i>
    <i name="e_0_energy">   -653.60917383 </i>
   </energy>
  </scstep>
  <scstep>
   <time name="dav">    7.38    7.41</time>
   <time name="total">    8.39    8.47</time>
   <energy>
    <i name="e_fr_energy">   -653.64777065 </i>
    <i name="e_wo_entrp">   -653.54853665 </i>
    <i name="e_0_energy">   -653.59815365 </i>
   </energy>
  </scstep>
  <scstep>
   <time name="dav">    8.44    8.46</time>
   <time name="total">    9.43    9.49</time>
   <energy>
    <i name="e_fr_energy">   -653.63198373 </i>
    <i name="e_wo_entrp">   -653.53181354 </i>
    <i name="e_0_energy">   -653.58189864 </i>
   </energy>
  </scstep>
  <scstep>
   <time name="dav">    7.89    7.92</time>
   <time name="total">    8.88    8.95</time>
   <energy>
    <i name="e_fr_energy">   -653.54824319 </i>
    <i name="e_wo_entrp">   -653.44337626 </i>
    <i name="e_0_energy">   -653.49580973 </i>
   </energy>
  </scstep>
  <scstep>
   <time name="dav">    8.15    8.23</time>
   <time name="total">    9.13    9.23</time>
   <energy>
    <i name="e_fr_energy">   -653.53445175 </i>
    <i name="e_wo_entrp">   -653.42909977 </i>
    <i name="e_0_energy">   -653.48177576 </i>
   </energy>
  </scstep>
  <scstep>
   <time name="dav">    8.42    8.45</time>
   <time name="total">    9.40    9.48</time>
   <energy>
    <i name="e_fr_energy">   -653.51322535 </i>
    <i name="e_wo_entrp">   -653.41532412 </i>
    <i name="e_0_energy">   -653.46427473 </i>
   </energy>
  </scstep>
  <scstep>
   <time name="dav">    7.09    7.11</time>
   <time name="total">    8.08    8.11</time>
   <energy>
    <i name="e_fr_energy">   -653.49415951 </i>
    <i name="e_wo_entrp">   -653.38957552 </i>
    <i name="e_0_energy">   -653.44186751 </i>
   </energy>
  </scstep>
  <scstep>
   <time name="dav">    7.65    7.68</time>
   <time name="total">    8.64    8.67</time>
   <energy>
    <i name="e_fr_energy">   -653.49008692 </i>
    <i name="e_wo_entrp">   -653.38679223 </i>
    <i name="e_0_energy">   -653.43843957 </i>
   </energy>
  </scstep>
  <scstep>
   <time name="dav">    6.71    6.74</time>
   <time name="total">    7.71    7.74</time>
   <energy>
    <i name="e_fr_energy">   -653.48222077 </i>
    <i name="e_wo_entrp">   -653.38035154 </i>
    <i name="e_0_energy">   -653.43128615 </i>
   </energy>
  </scstep>
  <scstep>
   <time name="dav">    7.40    7.42</time>
   <time name="total">    8.40    8.47</time>
   <energy>
    <i name="e_fr_energy">   -653.48223210 </i>
    <i name="e_wo_entrp">   -653.38204682 </i>
    <i name="e_0_energy">   -653.43213946 </i>
   </energy>
  </scstep>
  <scstep>
   <time name="dav">    6.71    6.72</time>
   <time name="total">    7.70    7.74</time>
   <energy>
    <i name="e_fr_energy">   -653.48145630 </i>
    <i name="e_wo_entrp">   -653.38154900 </i>
    <i name="e_0_energy">   -653.43150265 </i>
   </energy>
  </scstep>
  <scstep>
   <time name="dav">    5.21    5.24</time>
   <time name="total">    6.21    6.35</time>
   <energy>
    <i name="e_fr_energy">   -653.48059268 </i>
    <i name="e_wo_entrp">   -653.38140827 </i>
    <i name="e_0_energy">   -653.43100047 </i>
   </energy>
  </scstep>
  <scstep>
   <time name="dav">    5.55    5.61</time>
   <time name="total">    6.53    6.73</time>
   <energy>
    <i name="e_fr_energy">   -653.47663321 </i>
    <i name="e_wo_entrp">   -653.37689786 </i>
    <i name="e_0_energy">   -653.42676553 </i>
   </energy>
  </scstep>
  <scstep>
   <time name="dav">    7.33    7.36</time>
   <time name="total">    8.34    8.49</time>
   <energy>
    <i name="e_fr_energy">   -653.46781560 </i>
    <i name="e_wo_entrp">   -653.36976097 </i>
    <i name="e_0_energy">   -653.41878829 </i>
   </energy>
  </scstep>
  <scstep>
   <time name="dav">    6.56    6.58</time>
   <time name="total">    7.58    7.61</time>
   <energy>
    <i name="e_fr_energy">   -653.46450484 </i>
    <i name="e_wo_entrp">   -653.36318561 </i>
    <i name="e_0_energy">   -653.41384522 </i>
   </energy>
  </scstep>
  <scstep>
   <time name="dav">    6.55    6.58</time>
   <time name="total">    7.55    7.63</time>
   <energy>
    <i name="e_fr_energy">   -653.46174220 </i>
    <i name="e_wo_entrp">   -653.35050995 </i>
    <i name="e_0_energy">   -653.40612608 </i>
   </energy>
  </scstep>
  <scstep>
   <time name="dav">    6.87    6.90</time>
   <time name="total">    7.25    7.36</time>
   <energy>
    <i name="alphaZ">    562.94535741 </i>
    <i name="ewald">  43448.84985198 </i>
    <i name="hartreedc"> -63364.97090269 </i>
    <i name="XCdc">   -663.27398611 </i>
    <i name="pawpsdc">  43608.62369599 </i>
    <i name="pawaedc"> -41848.80924412 </i>
    <i name="eentropy">     -0.11197064 </i>
    <i name="bandstr">  -3313.77761675 </i>
    <i name="atom">  20917.06298232 </i>
    <i name="e_fr_energy">   -653.46183260 </i>
    <i name="e_wo_entrp">   -653.34986196 </i>
    <i name="e_0_energy">   -653.40584728 </i>
   </energy>
  </scstep>
  <structure>
   <crystal>
    <varray name="basis" >
     <v>       9.57094646       0.00000000       0.00000000 </v>
     <v>      -6.38062803      11.05157872       0.00000000 </v>
     <v>       0.00000000       0.00000000      34.88026251 </v>
    </varray>
    <i name="volume">   3689.42726549 </i>
    <varray name="rec_basis" >
     <v>       0.10448287       0.06032318       0.00000000 </v>
     <v>       0.00000000       0.09048481       0.00000000 </v>
     <v>       0.00000000       0.00000000       0.02866951 </v>
    </varray>
   </crystal>
   <varray name="positions" >
    <v>       0.06952961       0.84202529       0.11418686 </v>
    <v>       0.08377670       0.73935659       0.10364991 </v>
    <v>       0.93670355       0.80183349       0.14020144 </v>
    <v>       0.86921313       0.67435779       0.14584190 </v>
    <v>       0.95993175       0.63573492       0.12321271 </v>
    <v>       0.84442625       0.72354741       0.02854275 </v>
    <v>       0.62903394       0.58976788       0.06620615 </v>
    <v>       0.75169095       0.59985152       0.04046292 </v>
    <v>       0.64630625       0.70734612       0.07029750 </v>
    <v>       0.77936290       0.78997248       0.04698263 </v>
    <v>       0.85702527       0.71094201       0.08799112 </v>
    <v>       0.93634647       0.54334468       0.12071922 </v>
    <v>       0.77284420       0.52691775       0.03201371 </v>
    <v>       0.57283764       0.73021833       0.08837892 </v>
    <v>       0.54096324       0.50779219       0.08079760 </v>
    <v>       0.94824615       0.76102143       0.00949276 </v>
    <v>       0.17114414       0.73957102       0.08367082 </v>
    <v>       0.14429870       0.93382045       0.10360918 </v>
    <v>       0.89322600       0.85799029       0.15294262 </v>
    <v>       0.76506266       0.61637054       0.16348268 </v>
    <v>       0.82502714       0.88663340       0.04433620 </v>
    <v>       0.55555566       0.08333325       0.25000928 </v>
    <v>       0.55555566       0.33333325       0.25000928 </v>
    <v>       0.44444432       0.41666674       0.74999076 </v>
    <v>       0.55555566       0.58333325       0.25000928 </v>
    <v>       0.44444432       0.66666674       0.74999076 </v>
    <v>       0.55555566       0.83333325       0.25000928 </v>
    <v>       0.44444432       0.91666674       0.74999076 </v>
    <v>       0.88888899       0.33333325       0.25000928 </v>
    <v>       0.77777765       0.16666674       0.74999076 </v>
    <v>       0.77777765       0.41666674       0.74999076 </v>
    <v>       0.88888899       0.58333325       0.25000928 </v>
    <v>       0.77777765       0.66666674       0.74999076 </v>
    <v>       0.88888899       0.83333325       0.25000928 </v>
    <v>       0.77777765       0.91666674       0.74999076 </v>
    <v>       0.11111099       0.91666674       0.74999076 </v>
    <v>       0.88888899       0.08333325       0.25000928 </v>
    <v>       0.22222233       0.83333325       0.25000928 </v>
    <v>       0.44444432       0.16666674       0.74999076 </v>
    <v>       0.22222233       0.58333325       0.25000928 </v>
    <v>       0.11111099       0.41666674       0.74999076 </v>
    <v>       0.22222233       0.33333325       0.25000928 </v>
    <v>       0.22222233       0.08333325       0.25000928 </v>
    <v>       0.11111099       0.16666674       0.74999076 </v>
    <v>       0.11111099       0.66666674       0.74999076 </v>
    <v>       0.77777765       0.16666674       0.29487388 </v>
    <v>       0.88888899       0.08333325       0.79485533 </v>
    <v>       0.77777765       0.16666674       0.20514467 </v>
    <v>       0.88888899       0.08333325       0.70512613 </v>
    <v>       0.22222233       0.08333325       0.70512613 </v>
    <v>       0.11111099       0.16666674       0.20514467 </v>
    <v>       0.77777765       0.41666674       0.29487388 </v>
    <v>       0.88888899       0.33333325       0.79485533 </v>
    <v>       0.11111099       0.66666674       0.20514467 </v>
    <v>       0.55555566       0.83333325       0.70512613 </v>
    <v>       0.88888899       0.33333325       0.70512613 </v>
    <v>       0.22222233       0.08333325       0.79485533 </v>
    <v>       0.11111099       0.16666674       0.29487388 </v>
    <v>       0.77777765       0.66666674       0.29487388 </v>
    <v>       0.88888899       0.58333325       0.79485533 </v>
    <v>       0.77777765       0.66666674       0.20514467 </v>
    <v>       0.88888899       0.58333325       0.70512613 </v>
    <v>       0.77777765       0.91666674       0.29487388 </v>
    <v>       0.88888899       0.83333325       0.79485533 </v>
    <v>       0.77777765       0.41666674       0.20514467 </v>
    <v>       0.44444432       0.91666674       0.20514467 </v>
    <v>       0.44444432       0.91666674       0.29487388 </v>
    <v>       0.22222233       0.58333325       0.70512613 </v>
    <v>       0.22222233       0.58333325       0.79485533 </v>
    <v>       0.11111099       0.91666674       0.29487388 </v>
    <v>       0.22222233       0.83333325       0.79485533 </v>
    <v>       0.11111099       0.91666674       0.20514467 </v>
    <v>       0.22222233       0.83333325       0.70512613 </v>
    <v>       0.11111099       0.66666674       0.29487388 </v>
    <v>       0.77777765       0.91666674       0.20514467 </v>
    <v>       0.44444432       0.16666674       0.29487388 </v>
    <v>       0.55555566       0.08333325       0.79485533 </v>
    <v>       0.44444432       0.16666674       0.20514467 </v>
    <v>       0.55555566       0.08333325       0.70512613 </v>
    <v>       0.44444432       0.41666674       0.29487388 </v>
    <v>       0.55555566       0.33333325       0.79485533 </v>
    <v>       0.44444432       0.41666674       0.20514467 </v>
    <v>       0.55555566       0.33333325       0.70512613 </v>
    <v>       0.22222233       0.33333325       0.70512613 </v>
    <v>       0.11111099       0.41666674       0.20514467 </v>
    <v>       0.44444432       0.66666674       0.29487388 </v>
    <v>       0.55555566       0.58333325       0.79485533 </v>
    <v>       0.44444432       0.66666674       0.20514467 </v>
    <v>       0.55555566       0.58333325       0.70512613 </v>
    <v>       0.22222233       0.33333325       0.79485533 </v>
    <v>       0.11111099       0.41666674       0.29487388 </v>
    <v>       0.55555566       0.83333325       0.79485533 </v>
    <v>       0.88888899       0.83333325       0.70512613 </v>
   </varray>
  </structure>
  <varray name="forces" >
   <v>      -0.13046816      -0.31930807      -0.24562025 </v>
   <v>      -0.12761082       0.00795966      -0.04946781 </v>
   <v>      -0.23593385      -0.07573027      -0.73195855 </v>
   <v>       1.17180727      -0.33988158      -3.23539978 </v>
   <v>      -0.00748643       0.17205079      -0.47618536 </v>
   <v>      -0.00085436       0.01493581       0.00928240 </v>
   <v>      -0.04644954       0.10932194       0.14311553 </v>
   <v>       0.10826034       0.16365519       0.12736291 </v>
   <v>       0.06883593      -0.12832261       0.12543151 </v>
   <v>       0.21524090      -0.04235217       0.09328831 </v>
   <v>       0.37800368       0.08215266      -0.11152977 </v>
   <v>      -0.03359694       0.00967039       0.02679327 </v>
   <v>       0.00513218       0.00812621       0.01547342 </v>
   <v>       0.02367504      -0.00269883       0.03752024 </v>
   <v>      -0.00269662       0.02004292       0.02289583 </v>
   <v>      -0.01224883      -0.01586764       0.01474537 </v>
   <v>       0.01394758       0.01901555       0.00279141 </v>
   <v>      -0.02336934       0.00296888       0.05629008 </v>
   <v>      -0.11358091      -0.10258841      -0.25874070 </v>
   <v>       0.16708097      -1.04854268      -3.08002496 </v>
   <v>       0.00991205      -0.00100072       0.01928390 </v>
   <v>       0.00985167       0.17955361      -0.02645522 </v>
   <v>       0.01261559       0.17774673       0.00161860 </v>
   <v>      -0.02050610      -0.17654230       0.00793995 </v>
   <v>      -0.08819075       0.15875999       0.43890769 </v>
   <v>      -0.02061032      -0.17647081       0.00797006 </v>
   <v>       0.06436285       0.08043850      -0.01552264 </v>
   <v>      -0.02056648      -0.17628077       0.00800860 </v>
   <v>       0.05942602       0.19952596      -0.04104335 </v>
   <v>      -0.01476943      -0.17810525       0.00841158 </v>
   <v>      -0.01467310      -0.17850955       0.00825385 </v>
   <v>      -0.09177953       0.14832708      -0.07606135 </v>
   <v>      -0.01472079      -0.17845116       0.00822253 </v>
   <v>      -0.02092391       0.11484139       0.23195630 </v>
   <v>      -0.01481571      -0.17810405       0.00834007 </v>
   <v>      -0.02259463      -0.17657065       0.00762727 </v>
   <v>       0.03682051       0.25445251      -0.02119500 </v>
   <v>      -0.01263281       0.21640844      -0.00749590 </v>
   <v>      -0.02032376      -0.17639979       0.00812014 </v>
   <v>       0.01628332       0.06699236       0.02158734 </v>
   <v>      -0.02266285      -0.17679435       0.00772498 </v>
   <v>      -0.02538219       0.18300960      -0.01774505 </v>
   <v>       0.06237979       0.22258446       0.08679776 </v>
   <v>      -0.02261181      -0.17666909       0.00772458 </v>
   <v>      -0.02247023      -0.17701455       0.00765438 </v>
   <v>      -0.00606428      -0.08557587      -0.19242409 </v>
   <v>       0.00978508       0.08899571      -0.20644638 </v>
   <v>      -0.01607006      -0.09534127       0.20349946 </v>
   <v>       0.00976454       0.08831594       0.20045023 </v>
   <v>       0.01069777       0.08829980       0.20063348 </v>
   <v>      -0.01311992      -0.09629915       0.16858893 </v>
   <v>      -0.01117769      -0.05977686      -0.19729833 </v>
   <v>       0.00971623       0.08892889      -0.20659477 </v>
   <v>       0.17719136      -0.08727526       0.38606533 </v>
   <v>       0.00987793       0.08834958       0.20045507 </v>
   <v>       0.00962465       0.08833645       0.20062317 </v>
   <v>       0.01063103       0.08908916      -0.20644431 </v>
   <v>      -0.01414931      -0.09858982      -0.19599296 </v>
   <v>      -0.00117606      -0.07290243      -0.10704783 </v>
   <v>       0.00984677       0.08868579      -0.20646185 </v>
   <v>      -1.52750782       1.07411477       6.36922804 </v>
   <v>       0.00982064       0.08814183       0.20066710 </v>
   <v>       0.00928734      -0.08636969      -0.19436736 </v>
   <v>       0.00987899       0.08895370      -0.20638386 </v>
   <v>      -0.00499817      -0.12321666       0.16285237 </v>
   <v>      -0.01500995      -0.08714138       0.20237155 </v>
   <v>      -0.00929969      -0.07651110      -0.19827071 </v>
   <v>       0.01063597       0.08842585       0.20053224 </v>
   <v>       0.01066093       0.08904205      -0.20636311 </v>
   <v>      -0.02616394      -0.09540656      -0.19598960 </v>
   <v>       0.01057543       0.08910071      -0.20639871 </v>
   <v>       0.26437307       0.18987791       0.73282772 </v>
   <v>       0.01056732       0.08839981       0.20062740 </v>
   <v>      -0.03164242      -0.08699522      -0.18346800 </v>
   <v>      -0.15947268       0.00130905       0.31676565 </v>
   <v>      -0.01591724      -0.08990870      -0.20125785 </v>
   <v>       0.00992519       0.08916940      -0.20639340 </v>
   <v>      -0.00682560      -0.10024455       0.18303698 </v>
   <v>       0.00990171       0.08843368       0.20047340 </v>
   <v>      -0.00300174      -0.06492359      -0.20814807 </v>
   <v>       0.01000028       0.08911190      -0.20648991 </v>
   <v>      -0.01115025      -0.13295562       0.14123960 </v>
   <v>       0.01005898       0.08843376       0.20062890 </v>
   <v>       0.01065586       0.08837066       0.20043673 </v>
   <v>      -0.01357536      -0.08042839       0.19912736 </v>
   <v>       0.00527379      -0.08101000      -0.18761780 </v>
   <v>       0.00982628       0.08902189      -0.20627953 </v>
   <v>      -0.02294421      -0.04391451       0.09372470 </v>
   <v>       0.00988653       0.08840272       0.20039728 </v>
   <v>       0.01062239       0.08905912      -0.20629622 </v>
   <v>      -0.00872178      -0.05927956      -0.20363552 </v>
   <v>       0.00988283       0.08903220      -0.20639388 </v>
   <v>       0.00991382       0.08832853       0.20051721 </v>
  </varray>
  <varray name="stress" >
   <v>       1.85191076       0.16967153      -2.01876895 </v>
   <v>       0.16967148      -5.99160241       0.91816794 </v>
   <v>      -2.01876900       0.91816795      -2.16714915 </v>
  </varray>
  <energy>
   <i name="e_fr_energy">   -668.91980182 </i>
   <i name="e_wo_entrp">   -668.86381650 </i>
   <i name="e_0_energy">     -0.11197064 </i>
  </energy>
  <time name="totalsc">  684.42  689.81</time>
 </calculation>
 <calculation>
  <scstep>
   <time name="dav">    5.76    5.78</time>
   <time name="total">    6.76    6.78</time>
   <energy>
    <i name="alphaZ">    562.94535741 </i>
    <i name="ewald">  43691.14129802 </i>
    <i name="hartreedc"> -63584.91629995 </i>
    <i name="XCdc">   -661.49786291 </i>
    <i name="pawpsdc">  43609.45938796 </i>
    <i name="pawaedc"> -41849.64847754 </i>
    <i name="eentropy">     -0.10883659 </i>
    <i name="bandstr">  -3337.55377765 </i>
    <i name="atom">  20917.06298232 </i>
    <i name="e_fr_energy">   -653.11622893 </i>
    <i name="e_wo_entrp">   -653.00739233 </i>
    <i name="e_0_energy">   -653.06181063 </i>
   </energy>
  </scstep>
  <scstep>
   <time name="dav">    6.55    7.06</time>
   <time name="total">    7.48    8.06</time>
   <energy>
    <i name="e_fr_energy">   -654.82058940 </i>
    <i name="e_wo_entrp">   -654.74941581 </i>
    <i name="e_0_energy">   -654.78500260 </i>
   </energy>
  </scstep>
  <scstep>
   <time name="dav">    7.30    7.32</time>
   <time name="total">    8.27    8.39</time>
   <energy>
    <i name="e_fr_energy">   -656.23439408 </i>
    <i name="e_wo_entrp">   -656.12095725 </i>
    <i name="e_0_energy">   -656.17767566 </i>
   </energy>
  </scstep>
  <scstep>
   <time name="dav">    7.12    7.15</time>
   <time name="total">    8.06    8.09</time>
   <energy>
    <i name="e_fr_energy">   -654.40525028 </i>
    <i name="e_wo_entrp">   -654.32114232 </i>
    <i name="e_0_energy">   -654.36319630 </i>
   </energy>
  </scstep>
  <scstep>
   <time name="dav">    7.43    7.46</time>
   <time name="total">    8.41    8.78</time>
   <energy>
    <i name="e_fr_energy">   -654.40837734 </i>
    <i name="e_wo_entrp">   -654.31420811 </i>
    <i name="e_0_energy">   -654.36129272 </i>
   </energy>
  </scstep>
  <scstep>
   <time name="dav">    6.82    6.84</time>
   <time name="total">    7.79    7.83</time>
   <energy>
    <i name="e_fr_energy">   -654.29900745 </i>
    <i name="e_wo_entrp">   -654.18235223 </i>
    <i name="e_0_energy">   -654.24067984 </i>
   </energy>
  </scstep>
  <scstep>
   <time name="dav">    6.66    6.70</time>
   <time name="total">    7.62    7.66</time>
   <energy>
    <i name="e_fr_energy">   -654.30961034 </i>
    <i name="e_wo_entrp">   -654.21587516 </i>
    <i name="e_0_energy">   -654.26274275 </i>
   </energy>
  </scstep>
  <scstep>
   <time name="dav">    7.62    7.64</time>
   <time name="total">    8.56    8.60</time>
   <energy>
    <i name="e_fr_energy">   -654.30991489 </i>
    <i name="e_wo_entrp">   -654.22572981 </i>
    <i name="e_0_energy">   -654.26782235 </i>
   </energy>
  </scstep>
  <scstep>
   <time name="dav">    7.23    7.68</time>
   <time name="total">    8.09    8.67</time>
   <energy>
    <i name="e_fr_energy">   -654.31754992 </i>
    <i name="e_wo_entrp">   -654.22734679 </i>
    <i name="e_0_energy">   -654.27244835 </i>
   </energy>
  </scstep>
  <scstep>
   <time name="dav">    7.02    7.04</time>
   <time name="total">    7.97    8.06</time>
   <energy>
    <i name="e_fr_energy">   -654.26588580 </i>
    <i name="e_wo_entrp">   -654.15720332 </i>
    <i name="e_0_energy">   -654.21154456 </i>
   </energy>
  </scstep>
  <scstep>
   <time name="dav">    7.48    7.50</time>
   <time name="total">    8.42    8.51</time>
   <energy>
    <i name="e_fr_energy">   -654.25477341 </i>
    <i name="e_wo_entrp">   -654.14403201 </i>
    <i name="e_0_energy">   -654.19940271 </i>
   </energy>
  </scstep>
  <scstep>
   <time name="dav">    7.09    7.11</time>
   <time name="total">    8.04    8.12</time>
   <energy>
    <i name="e_fr_energy">   -654.25096292 </i>
    <i name="e_wo_entrp">   -654.14063821 </i>
    <i name="e_0_energy">   -654.19580057 </i>
   </energy>
  </scstep>
  <scstep>
   <time name="dav">    7.05    7.07</time>
   <time name="total">    8.00    8.16</time>
   <energy>
    <i name="e_fr_energy">   -654.24151207 </i>
    <i name="e_wo_entrp">   -654.13175230 </i>
    <i name="e_0_energy">   -654.18663218 </i>
   </energy>
  </scstep>
  <scstep>
   <time name="dav">    7.09    7.12</time>
   <time name="total">    8.07    8.21</time>
   <energy>
    <i name="e_fr_energy">   -654.22766573 </i>
    <i name="e_wo_entrp">   -654.11553933 </i>
    <i name="e_0_energy">   -654.17160253 </i>
   </energy>
  </scstep>
  <scstep>
   <time name="dav">    6.95    6.97</time>
   <time name="total">    7.92    7.99</time>
   <energy>
    <i name="e_fr_energy">   -654.22379141 </i>
    <i name="e_wo_entrp">   -654.10917892 </i>
    <i name="e_0_energy">   -654.16648517 </i>
   </energy>
  </scstep>
  <scstep>
   <time name="dav">    6.56    6.62</time>
   <time name="total">    7.51    7.61</time>
   <energy>
    <i name="e_fr_energy">   -654.22287873 </i>
    <i name="e_wo_entrp">   -654.10627368 </i>
    <i name="e_0_energy">   -654.16457620 </i>
   </energy>
  </scstep>
  <scstep>
   <time name="dav">    4.58    4.86</time>
   <time name="total">    5.54    6.18</time>
   <energy>
    <i name="e_fr_energy">   -654.22262139 </i>
    <i name="e_wo_entrp">   -654.10472001 </i>
    <i name="e_0_energy">   -654.16367070 </i>
   </energy>
  </scstep>
  <scstep>
   <time name="dav">    4.27    4.28</time>
   <time name="total">    5.25    5.32</time>
   <energy>
    <i name="e_fr_energy">   -654.22249233 </i>
    <i name="e_wo_entrp">   -654.10409999 </i>
    <i name="e_0_energy">   -654.16329616 </i>
   </energy>
  </scstep>
  <scstep>
   <time name="dav">    4.81    4.82</time>
   <time name="total">    5.79    5.85</time>
   <energy>
    <i name="e_fr_energy">   -654.22259861 </i>
    <i name="e_wo_entrp">   -654.10521973 </i>
    <i name="e_0_energy">   -654.16390917 </i>
   </energy>
  </scstep>
  <scstep>
   <time name="dav">    4.52    4.53</time>
   <time name="total">    5.50    5.57</time>
   <energy>
    <i name="e_fr_energy">   -654.22309987 </i>
    <i name="e_wo_entrp">   -654.10147454 </i>
    <i name="e_0_energy">   -654.16228720 </i>
   </energy>
  </scstep>
  <scstep>
   <time name="dav">    4.11    4.12</time>
   <time name="total">    5.10    5.12</time>
   <energy>
    <i name="e_fr_energy">   -654.22256810 </i>
    <i name="e_wo_entrp">   -654.10453212 </i>
    <i name="e_0_energy">   -654.16355011 </i>
   </energy>
  </scstep>
  <scstep>
   <time name="dav">    3.90    3.91</time>
   <time name="total">    4.28    4.30</time>
   <energy>
    <i name="alphaZ">    562.94535741 </i>
    <i name="ewald">  43691.14129802 </i>
    <i name="hartreedc"> -63594.53757156 </i>
    <i name="XCdc">   -661.38615265 </i>
    <i name="pawpsdc">  44214.71973448 </i>
    <i name="pawaedc"> -42456.29798118 </i>
    <i name="eentropy">     -0.11877638 </i>
    <i name="bandstr">  -3327.75146860 </i>
    <i name="atom">  20917.06298232 </i>
    <i name="e_fr_energy">   -654.22257813 </i>
    <i name="e_wo_entrp">   -654.10380175 </i>
    <i name="e_0_energy">   -654.16318994 </i>
   </energy>
  </scstep>
  <structure>
   <crystal>
    <varray name="basis" >
     <v>       9.57094646       0.00000000       0.00000000 </v>
     <v>      -6.38062803      11.05157872       0.00000000 </v>
     <v>       0.00000000       0.00000000      34.88026251 </v>
    </varray>
    <i name="volume">   3689.42726549 </i>
    <varray name="rec_basis" >
     <v>       0.10448287       0.06032318       0.00000000 </v>
     <v>       0.00000000       0.09048481       0.00000000 </v>
     <v>       0.00000000       0.00000000       0.02866951 </v>
    </varray>
   </crystal>
   <varray name="positions" >
    <v>       0.06794275       0.84063144       0.11384714 </v>
    <v>       0.08315664       0.73939134       0.10358149 </v>
    <v>       0.93529393       0.80150291       0.13918907 </v>
    <v>       0.87413056       0.67287413       0.14136704 </v>
    <v>       0.96039470       0.63648596       0.12255410 </v>
    <v>       0.84446541       0.72361261       0.02855559 </v>
    <v>       0.62911795       0.59024509       0.06640409 </v>
    <v>       0.75271290       0.60056592       0.04063908 </v>
    <v>       0.64627978       0.70678596       0.07047098 </v>
    <v>       0.78032457       0.78978760       0.04711166 </v>
    <v>       0.85916968       0.71130062       0.08783686 </v>
    <v>       0.93620526       0.54338689       0.12075628 </v>
    <v>       0.77289371       0.52695322       0.03203511 </v>
    <v>       0.57294912       0.73020654       0.08843082 </v>
    <v>       0.54100798       0.50787968       0.08082927 </v>
    <v>       0.94813823       0.76095217       0.00951316 </v>
    <v>       0.17126979       0.73965403       0.08367469 </v>
    <v>       0.14418955       0.93383341       0.10368704 </v>
    <v>       0.89235495       0.85754247       0.15258476 </v>
    <v>       0.76285342       0.61179341       0.15922271 </v>
    <v>       0.82507419       0.88662903       0.04436287 </v>
    <v>       0.55612784       0.08411704       0.24997269 </v>
    <v>       0.55613652       0.33410915       0.25001152 </v>
    <v>       0.44382719       0.41589610       0.75000174 </v>
    <v>       0.55557315       0.58402627       0.25061633 </v>
    <v>       0.44382688       0.66589641       0.75000178 </v>
    <v>       0.55611417       0.83368438       0.24998781 </v>
    <v>       0.44382765       0.91589724       0.75000183 </v>
    <v>       0.88976918       0.33420422       0.24995252 </v>
    <v>       0.77718489       0.16588927       0.75000239 </v>
    <v>       0.77718420       0.41588751       0.75000217 </v>
    <v>       0.88885803       0.58398073       0.24990408 </v>
    <v>       0.77718413       0.66588776       0.75000213 </v>
    <v>       0.88911773       0.83383456       0.25033010 </v>
    <v>       0.77718466       0.91588928       0.75000229 </v>
    <v>       0.11048325       0.91589597       0.75000131 </v>
    <v>       0.88981508       0.08444399       0.24997997 </v>
    <v>       0.22278843       0.83427792       0.24999892 </v>
    <v>       0.44382853       0.16589672       0.75000199 </v>
    <v>       0.22249936       0.58362568       0.25003914 </v>
    <v>       0.11048226       0.41589500       0.75000144 </v>
    <v>       0.22262697       0.33413213       0.24998474 </v>
    <v>       0.22318451       0.08430488       0.25012933 </v>
    <v>       0.11048288       0.16589554       0.75000144 </v>
    <v>       0.11048259       0.66589403       0.75000134 </v>
    <v>       0.77749805       0.16629318       0.29460774 </v>
    <v>       0.88919731       0.08372173       0.79456979 </v>
    <v>       0.77741919       0.16625056       0.20542613 </v>
    <v>       0.88919522       0.08371877       0.70540337 </v>
    <v>       0.22253321       0.08371870       0.70540363 </v>
    <v>       0.11076461       0.16624638       0.20537785 </v>
    <v>       0.77754735       0.41640580       0.29460100 </v>
    <v>       0.88919676       0.33372144       0.79456959 </v>
    <v>       0.11175014       0.66628577       0.20567864 </v>
    <v>       0.55586256       0.83371891       0.70540338 </v>
    <v>       0.88919458       0.33371886       0.70540361 </v>
    <v>       0.22253517       0.08372214       0.79456980 </v>
    <v>       0.11075275       0.16623638       0.29460281 </v>
    <v>       0.77755957       0.66634851       0.29472582 </v>
    <v>       0.88919671       0.58372038       0.79456977 </v>
    <v>       0.77320404       0.67135550       0.21395391 </v>
    <v>       0.88919500       0.58371801       0.70540367 </v>
    <v>       0.77757312       0.91628972       0.29460505 </v>
    <v>       0.88919766       0.83372155       0.79456988 </v>
    <v>       0.77739388       0.41612887       0.20536991 </v>
    <v>       0.44411507       0.91628635       0.20542457 </v>
    <v>       0.44417479       0.91633275       0.29459965 </v>
    <v>       0.22253327       0.58371925       0.70540349 </v>
    <v>       0.22253519       0.58372194       0.79456991 </v>
    <v>       0.11070146       0.91625027       0.29460281 </v>
    <v>       0.22253493       0.83372219       0.79456986 </v>
    <v>       0.11299614       0.91749560       0.20615824 </v>
    <v>       0.22253285       0.83371913       0.70540362 </v>
    <v>       0.11069832       0.66628699       0.29462013 </v>
    <v>       0.77697764       0.91667246       0.20558279 </v>
    <v>       0.44410244       0.16627427       0.29459552 </v>
    <v>       0.55586518       0.08372249       0.79456987 </v>
    <v>       0.44411819       0.16622915       0.20539783 </v>
    <v>       0.55586292       0.08371928       0.70540341 </v>
    <v>       0.44424025       0.41638334       0.29458599 </v>
    <v>       0.55586540       0.33372224       0.79456973 </v>
    <v>       0.44400120       0.41608636       0.20534002 </v>
    <v>       0.55586372       0.33371928       0.70540362 </v>
    <v>       0.22253321       0.33371901       0.70540335 </v>
    <v>       0.11080850       0.41631565       0.20542008 </v>
    <v>       0.44423515       0.66631312       0.29461439 </v>
    <v>       0.55586426       0.58372185       0.79457002 </v>
    <v>       0.44420087       0.66647505       0.20527430 </v>
    <v>       0.55586276       0.58371915       0.70540330 </v>
    <v>       0.22253504       0.33372201       0.79457000 </v>
    <v>       0.11089451       0.41640797       0.29459223 </v>
    <v>       0.55586457       0.83372189       0.79456987 </v>
    <v>       0.88919601       0.83371882       0.70540347 </v>
   </varray>
  </structure>
  <varray name="forces" >
   <v>      -0.03803572       1.39918090      -0.32427930 </v>
   <v>       1.03538470       0.20009006      -1.13876363 </v>
   <v>       0.23797139      -0.29797190      -0.63876334 </v>
   <v>      -6.17651210      -0.43578755       4.45944524 </v>
   <v>       4.04048084      -2.02327448      -2.57538178 </v>
   <v>       0.21785595       0.01544734       0.11088032 </v>
   <v>       0.48681584      -0.25618641      -0.07217049 </v>
   <v>      -0.05441856      -0.39034727       0.07691509 </v>
   <v>       0.11627900       0.54911138       0.04945399 </v>
   <v>      -0.32574383       0.18588205       0.22191816 </v>
   <v>      -0.21785501       0.18256337      -1.19501941 </v>
   <v>      -0.00175527       0.21813579      -0.05201816 </v>
   <v>      -0.07890059       0.11340177       0.04887996 </v>
   <v>       0.05644766      -0.00788351       0.04274205 </v>
   <v>       0.01244483       0.02992021       0.04643527 </v>
   <v>       0.02187681       0.00844406      -0.02108452 </v>
   <v>      -0.06933368       0.07608641       0.06137855 </v>
   <v>       0.01951199      -0.32460650       0.06921732 </v>
   <v>      -0.02939041      -0.39585263      -0.25709237 </v>
   <v>       0.99946785       0.72127008      -1.47491608 </v>
   <v>       0.04530159      -0.12876664       0.03686828 </v>
   <v>       0.00680797      -0.05240614       0.01557267 </v>
   <v>       0.02911362      -0.06025936       0.01882533 </v>
   <v>       0.01294506       0.08141376      -0.00741832 </v>
   <v>      -1.63621150      -0.90968816       1.39069364 </v>
   <v>       0.01317032       0.08136807      -0.00743163 </v>
   <v>      -0.09046973      -0.06100451       0.09612339 </v>
   <v>       0.01323928       0.08134758      -0.00741220 </v>
   <v>      -0.05057271      -0.12551001       0.04729646 </v>
   <v>       0.00969330       0.08211851      -0.00780651 </v>
   <v>       0.00949079       0.08238984      -0.00765456 </v>
   <v>       0.69308982      -0.28888391       1.00191518 </v>
   <v>       0.00943143       0.08239592      -0.00759823 </v>
   <v>      -0.04492741       2.07269572       1.81205231 </v>
   <v>       0.00955093       0.08223147      -0.00769592 </v>
   <v>       0.01569704       0.08209848      -0.00705369 </v>
   <v>      -0.02320619      -0.02258698       0.05598977 </v>
   <v>       0.11666194      -0.16227655       0.23611008 </v>
   <v>       0.01296395       0.08133967      -0.00745940 </v>
   <v>       0.04982136      -0.09759707       0.13478553 </v>
   <v>       0.01601543       0.08218462      -0.00722796 </v>
   <v>       0.00388391      -0.08554321       0.00910931 </v>
   <v>       0.00362992       0.04947915       0.14011072 </v>
   <v>       0.01576165       0.08223827      -0.00722006 </v>
   <v>       0.01582220       0.08231358      -0.00707467 </v>
   <v>      -0.00531558       0.05825638      -0.02329107 </v>
   <v>      -0.00525935      -0.04139881      -0.01073152 </v>
   <v>      -0.00423114       0.03429941      -0.01255027 </v>
   <v>      -0.00542786      -0.04163415       0.01993919 </v>
   <v>      -0.00661793      -0.03995302       0.02118364 </v>
   <v>       0.02457774       0.02906837       0.02540031 </v>
   <v>       0.01157136       0.00067750      -0.05561543 </v>
   <v>      -0.00518299      -0.04148783      -0.01052395 </v>
   <v>      -0.02807037       0.04735900      -0.06232235 </v>
   <v>      -0.00566810      -0.04007090       0.02149221 </v>
   <v>      -0.00532753      -0.04173840       0.01968991 </v>
   <v>      -0.00677758      -0.03999630      -0.01234781 </v>
   <v>      -0.01646810       0.06306712      -0.02484027 </v>
   <v>       0.06686220      -0.01449172       0.77534892 </v>
   <v>      -0.00530134      -0.04148255      -0.01063205 </v>
   <v>       0.65038545      -0.75292580      -3.17543575 </v>
   <v>      -0.00542357      -0.04168600       0.01978206 </v>
   <v>      -0.10893500       0.10629222       0.05307360 </v>
[...]
       <r>   -18.5539     0.0000     4.0000 </r>
       <r>   -18.4765     0.0000     4.0000 </r>
       <r>   -18.3991     0.0000     4.0000 </r>
       <r>   -18.3218     0.0000     4.0000 </r>
       <r>   -18.2444     0.0000     4.0000 </r>
       <r>   -18.1671     0.0000     4.0000 </r>
       <r>   -18.0897     0.0000     4.0000 </r>
       <r>   -18.0123     0.0000     4.0000 </r>
       <r>   -17.9350     0.0000     4.0000 </r>
       <r>   -17.8576     0.0000     4.0000 </r>
       <r>   -17.7802     0.0000     4.0000 </r>
       <r>   -17.7029     0.0000     4.0000 </r>
       <r>   -17.6255     0.0000     4.0000 </r>
       <r>   -17.5481     0.0000     4.0000 </r>
       <r>   -17.4708     0.0000     4.0000 </r>
       <r>   -17.3934     0.0000     4.0000 </r>
       <r>   -17.3160     0.0000     4.0000 </r>
       <r>   -17.2387     0.0000     4.0000 </r>
       <r>   -17.1613     0.0000     4.0000 </r>
       <r>   -17.0840     0.0000     4.0000 </r>
       <r>   -17.0066     0.0000     4.0000 </r>
       <r>   -16.9292     0.0000     4.0000 </r>
       <r>   -16.8519     0.0000     4.0000 </r>
       <r>   -16.7745     0.0000     4.0000 </r>
       <r>   -16.6971     0.0000     4.0000 </r>
       <r>   -16.6198     0.0000     4.0000 </r>
       <r>   -16.5424     0.0000     4.0000 </r>
       <r>   -16.4650     0.0000     4.0000 </r>
       <r>   -16.3877     0.0000     4.0000 </r>
       <r>   -16.3103     0.0000     4.0000 </r>
       <r>   -16.2329     0.0000     4.0000 </r>
       <r>   -16.1556     0.0000     4.0000 </r>
       <r>   -16.0782     0.0000     4.0000 </r>
       <r>   -16.0008     0.0000     4.0000 </r>
       <r>   -15.9235     0.0000     4.0000 </r>
       <r>   -15.8461     0.0019     4.0002 </r>
       <r>   -15.7688     0.0968     4.0076 </r>
       <r>   -15.6914     1.6249     4.1334 </r>
       <r>   -15.6140     9.5212     4.8700 </r>
       <r>   -15.5367    20.1014     6.4251 </r>
       <r>   -15.4593    15.5352     7.6270 </r>
       <r>   -15.3819     4.3702     7.9651 </r>
       <r>   -15.3046     0.4365     7.9988 </r>
       <r>   -15.2272     0.0154     8.0000 </r>
       <r>   -15.1498     0.0334     8.0026 </r>
       <r>   -15.0725     0.8495     8.0683 </r>
       <r>   -14.9951     7.6013     8.6564 </r>
       <r>   -14.9177    27.0779    10.7513 </r>
       <r>   -14.8404    50.7033    14.6739 </r>
       <r>   -14.7630    63.0013    19.5480 </r>
       <r>   -14.6857    43.7577    22.9332 </r>
       <r>   -14.6083    17.3309    24.2740 </r>
       <r>   -14.5309    24.7273    26.1871 </r>
       <r>   -14.4536    45.4980    29.7070 </r>
       <r>   -14.3762    52.3889    33.7600 </r>
       <r>   -14.2988    65.0877    38.7955 </r>
       <r>   -14.2215    50.2463    42.6828 </r>
       <r>   -14.1441    15.7387    43.9004 </r>
       <r>   -14.0667     7.3545    44.4694 </r>
       <r>   -13.9894    27.3337    46.5840 </r>
       <r>   -13.9120    60.4783    51.2629 </r>
       <r>   -13.8346   103.2116    59.2478 </r>
       <r>   -13.7573   140.7928    70.1402 </r>
       <r>   -13.6799   109.0462    78.5765 </r>
       <r>   -13.6025    74.2108    84.3178 </r>
       <r>   -13.5252    87.7839    91.1091 </r>
       <r>   -13.4478    95.6539    98.5093 </r>
       <r>   -13.3705    74.3967   104.2650 </r>
       <r>   -13.2931    37.9168   107.1984 </r>
       <r>   -13.2157     9.4253   107.9276 </r>
       <r>   -13.1384     0.9053   107.9976 </r>
       <r>   -13.0610     0.0303   108.0000 </r>
       <r>   -12.9836     0.0003   108.0000 </r>
       <r>   -12.9063     0.0000   108.0000 </r>
       <r>   -12.8289     0.0000   108.0000 </r>
       <r>   -12.7515     0.0000   108.0000 </r>
       <r>   -12.6742     0.0000   108.0000 </r>
       <r>   -12.5968     0.0000   108.0000 </r>
       <r>   -12.5194     0.0000   108.0000 </r>
       <r>   -12.4421     0.0000   108.0000 </r>
       <r>   -12.3647     0.0000   108.0000 </r>
       <r>   -12.2874     0.0000   108.0000 </r>
       <r>   -12.2100     0.0000   108.0000 </r>
       <r>   -12.1326     0.0000   108.0000 </r>
       <r>   -12.0553     0.0000   108.0000 </r>
       <r>   -11.9779     0.0000   108.0000 </r>
       <r>   -11.9005     0.0000   108.0000 </r>
       <r>   -11.8232     0.0000   108.0000 </r>
       <r>   -11.7458     0.0000   108.0000 </r>
       <r>   -11.6684     0.0000   108.0000 </r>
       <r>   -11.5911     0.0000   108.0000 </r>
       <r>   -11.5137     0.0000   108.0000 </r>
       <r>   -11.4363     0.0000   108.0000 </r>
       <r>   -11.3590     0.0000   108.0000 </r>
       <r>   -11.2816     0.0000   108.0000 </r>
       <r>   -11.2043     0.0000   108.0000 </r>
       <r>   -11.1269     0.0000   108.0000 </r>
       <r>   -11.0495     0.0000   108.0000 </r>
       <r>   -10.9722     0.0005   108.0000 </r>
       <r>   -10.8948     0.0394   108.0031 </r>
       <r>   -10.8174     0.9332   108.0753 </r>
       <r>   -10.7401     7.3342   108.6427 </r>
       <r>   -10.6627    19.5401   110.1544 </r>
       <r>   -10.5853    18.6661   111.5985 </r>
       <r>   -10.5080    13.4510   112.6391 </r>
       <r>   -10.4306    25.5468   114.6155 </r>
       <r>   -10.3532    29.0875   116.8659 </r>
       <r>   -10.2759    12.6137   117.8417 </r>
       <r>   -10.1985     2.8856   118.0650 </r>
       <r>   -10.1211     5.4598   118.4874 </r>
       <r>   -10.0438    10.6428   119.3107 </r>
       <r>    -9.9664     7.1618   119.8648 </r>
       <r>    -9.8891     1.6226   119.9903 </r>
       <r>    -9.8117     0.1218   119.9998 </r>
       <r>    -9.7343     0.0030   120.0000 </r>
       <r>    -9.6570     0.0000   120.0000 </r>
       <r>    -9.5796     0.0000   120.0000 </r>
       <r>    -9.5022     0.0000   120.0000 </r>
       <r>    -9.4249     0.0000   120.0000 </r>
       <r>    -9.3475     0.0000   120.0000 </r>
       <r>    -9.2701     0.0000   120.0000 </r>
       <r>    -9.1928     0.0000   120.0000 </r>
       <r>    -9.1154     0.0000   120.0000 </r>
       <r>    -9.0380     0.0000   120.0000 </r>
       <r>    -8.9607     0.0000   120.0000 </r>
       <r>    -8.8833     0.0000   120.0000 </r>
       <r>    -8.8060     0.0000   120.0000 </r>
       <r>    -8.7286     0.0000   120.0000 </r>
       <r>    -8.6512     0.0000   120.0000 </r>
       <r>    -8.5739     0.0000   120.0000 </r>
       <r>    -8.4965     0.0000   120.0000 </r>
       <r>    -8.4191     0.0000   120.0000 </r>
       <r>    -8.3418     0.0000   120.0000 </r>
       <r>    -8.2644     0.0000   120.0000 </r>
       <r>    -8.1870     0.0000   120.0000 </r>
       <r>    -8.1097     0.0000   120.0000 </r>
       <r>    -8.0323     0.0000   120.0000 </r>
       <r>    -7.9549     0.0023   120.0002 </r>
       <r>    -7.8776     0.0996   120.0079 </r>
       <r>    -7.8002     1.4238   120.1180 </r>
       <r>    -7.7228     6.7350   120.6391 </r>
       <r>    -7.6455    10.7158   121.4681 </r>
       <r>    -7.5681     5.7699   121.9145 </r>
       <r>    -7.4908     1.0973   121.9994 </r>
       <r>    -7.4134     1.2575   122.0967 </r>
       <r>    -7.3360     9.5404   122.8348 </r>
       <r>    -7.2587    29.9637   125.1529 </r>
       <r>    -7.1813    41.4624   128.3606 </r>
       <r>    -7.1039    33.8826   130.9819 </r>
       <r>    -7.0266    27.3584   133.0985 </r>
       <r>    -6.9492    26.5364   135.1515 </r>
       <r>    -6.8718    34.4081   137.8134 </r>
       <r>    -6.7945    63.1351   142.6978 </r>
       <r>    -6.7171   110.7902   151.2691 </r>
       <r>    -6.6397   103.9582   159.3117 </r>
       <r>    -6.5624    77.0750   165.2746 </r>
       <r>    -6.4850   121.8762   174.7035 </r>
       <r>    -6.4077   155.1307   186.7051 </r>
       <r>    -6.3303   125.9110   196.4461 </r>
       <r>    -6.2529    87.6659   203.2284 </r>
       <r>    -6.1756    46.5636   206.8307 </r>
       <r>    -6.0982    13.4256   207.8694 </r>
       <r>    -6.0208     1.6170   207.9945 </r>
       <r>    -5.9435     0.0713   208.0000 </r>
       <r>    -5.8661     0.0805   208.0062 </r>
       <r>    -5.7887     1.8010   208.1456 </r>
       <r>    -5.7114    14.3582   209.2564 </r>
       <r>    -5.6340    43.1079   212.5914 </r>
       <r>    -5.5566    55.1453   216.8577 </r>
       <r>    -5.4793    48.2336   220.5893 </r>
       <r>    -5.4019    98.5398   228.2127 </r>
       <r>    -5.3245   209.1234   244.3915 </r>
       <r>    -5.2472   206.7366   260.3855 </r>
       <r>    -5.1698    85.7983   267.0233 </r>
       <r>    -5.0925    25.8234   269.0211 </r>
       <r>    -5.0151    36.9452   271.8793 </r>
       <r>    -4.9377    37.6010   274.7883 </r>
       <r>    -4.8604    16.1629   276.0388 </r>
       <r>    -4.7830    23.0245   277.8200 </r>
       <r>    -4.7056    74.6269   283.5935 </r>
       <r>    -4.6283   105.0751   291.7226 </r>
       <r>    -4.5509    79.7880   297.8954 </r>
       <r>    -4.4735    75.3780   303.7269 </r>
       <r>    -4.3962    88.0548   310.5392 </r>
       <r>    -4.3188    90.2377   317.5204 </r>
       <r>    -4.2414    64.4299   322.5050 </r>
       <r>    -4.1641    37.7469   325.4253 </r>
       <r>    -4.0867    50.5318   329.3347 </r>
       <r>    -4.0094    64.7176   334.3415 </r>
       <r>    -3.9320    62.1887   339.1527 </r>
       <r>    -3.8546    55.6357   343.4569 </r>
       <r>    -3.7773    42.9041   346.7762 </r>
       <r>    -3.6999    25.0508   348.7142 </r>
       <r>    -3.6225    23.6465   350.5436 </r>
       <r>    -3.5452    21.5585   352.2115 </r>
       <r>    -3.4678    31.7207   354.6655 </r>
       <r>    -3.3904    57.2641   359.0958 </r>
       <r>    -3.3131    90.1341   366.0689 </r>
       <r>    -3.2357   137.7972   376.7295 </r>
       <r>    -3.1583   143.8506   387.8585 </r>
       <r>    -3.0810   108.6744   396.2660 </r>
       <r>    -3.0036    83.5358   402.7287 </r>
       <r>    -2.9263    71.7008   408.2758 </r>
       <r>    -2.8489    87.5083   415.0458 </r>
       <r>    -2.7715   110.4330   423.5894 </r>
       <r>    -2.6942    84.7900   430.1492 </r>
       <r>    -2.6168    38.5297   433.1300 </r>
       <r>    -2.5394    29.0817   435.3799 </r>
       <r>    -2.4621    64.2801   440.3529 </r>
       <r>    -2.3847    96.6823   447.8327 </r>
       <r>    -2.3073    81.6639   454.1506 </r>
       <r>    -2.2300    52.3952   458.2041 </r>
       <r>    -2.1526    51.8947   462.2189 </r>
       <r>    -2.0752    62.0132   467.0165 </r>
       <r>    -1.9979    55.3202   471.2963 </r>
       <r>    -1.9205    50.4487   475.1993 </r>
       <r>    -1.8431    29.4798   477.4800 </r>
       <r>    -1.7658    12.5764   478.4529 </r>
       <r>    -1.6884    27.3029   480.5652 </r>
       <r>    -1.6111    42.7185   483.8701 </r>
       <r>    -1.5337    28.7365   486.0933 </r>
       <r>    -1.4563    21.8417   487.7830 </r>
       <r>    -1.3790    19.8101   489.3156 </r>
       <r>    -1.3016     7.7328   489.9139 </r>
       <r>    -1.2242     1.0627   489.9961 </r>
       <r>    -1.1469     0.0497   489.9999 </r>
       <r>    -1.0695     0.0008   490.0000 </r>
       <r>    -0.9921     0.0000   490.0000 </r>
       <r>    -0.9148     0.0000   490.0000 </r>
       <r>    -0.8374     0.0000   490.0000 </r>
       <r>    -0.7600     0.0000   490.0000 </r>
       <r>    -0.6827     0.0000   490.0000 </r>
       <r>    -0.6053     0.0000   490.0000 </r>
       <r>    -0.5280     0.0000   490.0000 </r>
       <r>    -0.4506     0.0000   490.0000 </r>
       <r>    -0.3732     0.0000   490.0000 </r>
       <r>    -0.2959     0.0000   490.0000 </r>
       <r>    -0.2185     0.0000   490.0000 </r>
       <r>    -0.1411     0.0000   490.0000 </r>
       <r>    -0.0638     0.0000   490.0000 </r>
       <r>     0.0136     0.0000   490.0000 </r>
       <r>     0.0910     0.0024   490.0002 </r>
       <r>     0.1683     0.1363   490.0107 </r>
       <r>     0.2457     2.6938   490.2191 </r>
       <r>     0.3231    19.5751   491.7336 </r>
       <r>     0.4004    53.8118   495.8967 </r>
       <r>     0.4778    59.6044   500.5080 </r>
       <r>     0.5552    46.3964   504.0974 </r>
       <r>     0.6325    72.6830   509.7205 </r>
       <r>     0.7099   134.5272   520.1281 </r>
       <r>     0.7872   167.3214   533.0728 </r>
       <r>     0.8646   142.5961   544.1047 </r>
       <r>     0.9420   127.4587   553.9655 </r>
       <r>     1.0193    78.4928   560.0380 </r>
       <r>     1.0967    24.8805   561.9629 </r>
       <r>     1.1741    22.0473   563.6686 </r>
       <r>     1.2514    67.2276   568.8696 </r>
       <r>     1.3288   110.8680   577.4469 </r>
       <r>     1.4062   114.0390   586.2694 </r>
       <r>     1.4835    95.6193   593.6670 </r>
       <r>     1.5609    59.8544   598.2976 </r>
       <r>     1.6383    19.3753   599.7965 </r>
       <r>     1.7156     2.5121   599.9909 </r>
       <r>     1.7930     0.1161   599.9999 </r>
       <r>     1.8703     0.0018   600.0000 </r>
       <r>     1.9477     0.0000   600.0000 </r>
       <r>     2.0251     0.0000   600.0000 </r>
       <r>     2.1024     0.0000   600.0000 </r>
       <r>     2.1798     0.0000   600.0000 </r>
       <r>     2.2572     0.0000   600.0000 </r>
       <r>     2.3345     0.0000   600.0000 </r>
       <r>     2.4119     0.0000   600.0000 </r>
       <r>     2.4893     0.0000   600.0000 </r>
       <r>     2.5666     0.0000   600.0000 </r>
      </set>
     </set>
    </array>
   </total>
  </dos>
 </calculation>
 <structure name="finalpos" >
  <crystal>
   <varray name="basis" >
    <v>       9.57094646       0.00000000       0.00000000 </v>
    <v>      -6.38062803      11.05157872       0.00000000 </v>
    <v>       0.00000000       0.00000000      34.88026251 </v>
   </varray>
   <i name="volume">   3689.42726549 </i>
   <varray name="rec_basis" >
    <v>       0.10448287       0.06032318       0.00000000 </v>
    <v>       0.00000000       0.09048481       0.00000000 </v>
    <v>       0.00000000       0.00000000       0.02866951 </v>
   </varray>
  </crystal>
  <varray name="positions" >
   <v>       0.07099689       0.83430558       0.10077557 </v>
   <v>       0.10823947       0.75051091       0.08254456 </v>
   <v>       0.94125877       0.76829931       0.12713581 </v>
   <v>       0.89669820       0.64354641       0.12485119 </v>
   <v>       0.99963131       0.63248222       0.09725658 </v>
   <v>       0.84295093       0.71889788       0.01403709 </v>
   <v>       0.63727053       0.59478413       0.05573085 </v>
   <v>       0.74460231       0.59662167       0.02662224 </v>
   <v>       0.66907222       0.71597135       0.06105092 </v>
   <v>       0.79751912       0.79286782       0.03560110 </v>
   <v>       0.87243156       0.70481654       0.07212441 </v>
   <v>       0.99374441       0.54856336       0.08857078 </v>
   <v>       0.75236305       0.51908906       0.01652835 </v>
   <v>       0.61119332       0.74516750       0.08193055 </v>
   <v>       0.55033146       0.51577804       0.07172940 </v>
   <v>       0.93833187       0.75067171      -0.00729353 </v>
   <v>       0.19923525       0.77222300       0.06055815 </v>
   <v>       0.12931661       0.93094270       0.09524302 </v>
   <v>       0.88310219       0.80561625       0.14479770 </v>
   <v>       0.79975533       0.56988305       0.14079933 </v>
   <v>       0.85282736       0.89063472       0.03348824 </v>
   <v>       0.54768509       0.08723320       0.25835657 </v>
   <v>       0.54758412       0.33724956       0.25845384 </v>
   <v>       0.44434717       0.41606616       0.75048244 </v>
   <v>       0.54675119       0.58698254       0.25882629 </v>
   <v>       0.44434934       0.66606715       0.75048363 </v>
   <v>       0.54741970       0.83698225       0.25846614 </v>
   <v>       0.44435102       0.91606862       0.75048374 </v>
   <v>       0.88097435       0.33718602       0.25833114 </v>
   <v>       0.77769848       0.16606616       0.75047568 </v>
   <v>       0.77769710       0.41606471       0.75047581 </v>
   <v>       0.88099074       0.58722871       0.25856767 </v>
   <v>       0.77769585       0.66606531       0.75047636 </v>
   <v>       0.88100488       0.83729390       0.25862328 </v>
   <v>       0.77769616       0.91606738       0.75047650 </v>
   <v>       0.11101488       0.91607592       0.75047645 </v>
   <v>       0.88099713       0.08724571       0.25834143 </v>
   <v>       0.21420621       0.83711595       0.25847307 </v>
   <v>       0.44434970       0.16606712       0.75048347 </v>
   <v>       0.21392807       0.58705346       0.25849616 </v>
   <v>       0.11101445       0.41607511       0.75047566 </v>
   <v>       0.21408672       0.33709526       0.25840456 </v>
   <v>       0.21433133       0.08727017       0.25849066 </v>
   <v>       0.11101520       0.16607631       0.75047568 </v>
   <v>       0.11101598       0.66607386       0.75047641 </v>
   <v>       0.76928716       0.16979161       0.30289500 </v>
   <v>       0.88942897       0.08353376       0.79502237 </v>
   <v>       0.76915115       0.16967307       0.21380192 </v>
   <v>       0.88941798       0.08352186       0.70591389 </v>
   <v>       0.22275867       0.08354285       0.70591629 </v>
   <v>       0.10265550       0.16966991       0.21384907 </v>
   <v>       0.76921200       0.41957887       0.30298822 </v>
   <v>       0.88942727       0.33353113       0.79502227 </v>
   <v>       0.10228526       0.66970775       0.21391406 </v>
   <v>       0.55608017       0.83352861       0.70591930 </v>
   <v>       0.88941745       0.33352195       0.70591363 </v>
   <v>       0.22275611       0.08354618       0.79502423 </v>
   <v>       0.10231195       0.16966986       0.30295932 </v>
   <v>       0.76923729       0.66979252       0.30324882 </v>
   <v>       0.88942611       0.58352886       0.79502293 </v>
   <v>       0.76778040       0.66933592       0.21454902 </v>
   <v>       0.88941917       0.58352162       0.70591455 </v>
   <v>       0.76916080       0.92000021       0.30301122 </v>
   <v>       0.88942681       0.83353107       0.79502287 </v>
   <v>       0.76915351       0.42007376       0.21389751 </v>
   <v>       0.43569801       0.91951435       0.21390573 </v>
   <v>       0.43600589       0.91993892       0.30297041 </v>
   <v>       0.22276012       0.58354461       0.70591645 </v>
   <v>       0.22275670       0.58354246       0.79502441 </v>
   <v>       0.10285442       0.91992142       0.30307772 </v>
   <v>       0.22275603       0.83354473       0.79502461 </v>
   <v>       0.10256823       0.91974048       0.21402048 </v>
   <v>       0.22275893       0.83354369       0.70591744 </v>
   <v>       0.10249173       0.66976745       0.30308959 </v>
   <v>       0.76910427       0.91940932       0.21391119 </v>
   <v>       0.43605976       0.16976159       0.30296203 </v>
   <v>       0.55610256       0.08354582       0.79502498 </v>
   <v>       0.43580358       0.16982847       0.21389769 </v>
   <v>       0.55607926       0.08352694       0.70591892 </v>
   <v>       0.43525826       0.41917430       0.30312293 </v>
   <v>       0.55609783       0.33354338       0.79502468 </v>
   <v>       0.43602044       0.42008726       0.21400795 </v>
   <v>       0.55607821       0.33352621       0.70591829 </v>
   <v>       0.22275794       0.33354373       0.70591557 </v>
   <v>       0.10257434       0.41979794       0.21383752 </v>
   <v>       0.43520228       0.66989705       0.30318806 </v>
   <v>       0.55609816       0.58354147       0.79502502 </v>
   <v>       0.43566732       0.66947567       0.21401389 </v>
   <v>       0.55608036       0.58352822       0.70591861 </v>
   <v>       0.22275558       0.33354466       0.79502374 </v>
   <v>       0.10221482       0.41951392       0.30296087 </v>
   <v>       0.55610161       0.83354444       0.79502520 </v>
   <v>       0.88941856       0.83352158       0.70591482 </v>
  </varray>
 </structure>
</modeling>
