basalPlane                              
           1
     9.570946    0.000000    0.000000
    -6.380628   11.051579    0.000000
     0.000000    0.000000   34.880263
   C    Co   H    Mo   S 
  10   1  10  24  48
Direct configuration=     1
   0.06952961  0.84202529  0.11418686
   0.08377670  0.73935659  0.10364991
   0.93670355  0.80183349  0.14020144
   0.86921313  0.67435779  0.14584190
   0.95993175  0.63573492  0.12321271
   0.84442625  0.72354741  0.02854275
   0.62903394  0.58976788  0.06620615
   0.75169095  0.59985152  0.04046292
   0.64630625  0.70734612  0.07029750
   0.77936290  0.78997248  0.04698263
   0.85702527  0.71094201  0.08799112
   0.93634647  0.54334468  0.12071922
   0.77284420  0.52691775  0.03201371
   0.57283764  0.73021833  0.08837892
   0.54096324  0.50779219  0.08079760
   0.94824615  0.76102143  0.00949276
   0.17114414  0.73957102  0.08367082
   0.14429870  0.93382045  0.10360918
   0.89322600  0.85799029  0.15294262
   0.76506266  0.61637054  0.16348268
   0.82502714  0.88663340  0.04433620
   0.55555566  0.08333325  0.25000928
   0.55555566  0.33333325  0.25000928
   0.44444432  0.41666674  0.74999076
   0.55555566  0.58333325  0.25000928
   0.44444432  0.66666674  0.74999076
   0.55555566  0.83333325  0.25000928
   0.44444432  0.91666674  0.74999076
   0.88888899  0.33333325  0.25000928
   0.77777765  0.16666674  0.74999076
   0.77777765  0.41666674  0.74999076
   0.88888899  0.58333325  0.25000928
   0.77777765  0.66666674  0.74999076
   0.88888899  0.83333325  0.25000928
   0.77777765  0.91666674  0.74999076
   0.11111099  0.91666674  0.74999076
   0.88888899  0.08333325  0.25000928
   0.22222233  0.83333325  0.25000928
   0.44444432  0.16666674  0.74999076
   0.22222233  0.58333325  0.25000928
   0.11111099  0.41666674  0.74999076
   0.22222233  0.33333325  0.25000928
   0.22222233  0.08333325  0.25000928
   0.11111099  0.16666674  0.74999076
   0.11111099  0.66666674  0.74999076
   0.77777765  0.16666674  0.29487388
   0.88888899  0.08333325  0.79485533
   0.77777765  0.16666674  0.20514467
   0.88888899  0.08333325  0.70512613
   0.22222233  0.08333325  0.70512613
   0.11111099  0.16666674  0.20514467
   0.77777765  0.41666674  0.29487388
   0.88888899  0.33333325  0.79485533
   0.11111099  0.66666674  0.20514467
   0.55555566  0.83333325  0.70512613
   0.88888899  0.33333325  0.70512613
   0.22222233  0.08333325  0.79485533
   0.11111099  0.16666674  0.29487388
   0.77777765  0.66666674  0.29487388
   0.88888899  0.58333325  0.79485533
   0.77777765  0.66666674  0.20514467
   0.88888899  0.58333325  0.70512613
   0.77777765  0.91666674  0.29487388
   0.88888899  0.83333325  0.79485533
   0.77777765  0.41666674  0.20514467
   0.44444432  0.91666674  0.20514467
   0.44444432  0.91666674  0.29487388
   0.22222233  0.58333325  0.70512613
   0.22222233  0.58333325  0.79485533
   0.11111099  0.91666674  0.29487388
   0.22222233  0.83333325  0.79485533
   0.11111099  0.91666674  0.20514467
   0.22222233  0.83333325  0.70512613
   0.11111099  0.66666674  0.29487388
   0.77777765  0.91666674  0.20514467
   0.44444432  0.16666674  0.29487388
   0.55555566  0.08333325  0.79485533
   0.44444432  0.16666674  0.20514467
   0.55555566  0.08333325  0.70512613
   0.44444432  0.41666674  0.29487388
   0.55555566  0.33333325  0.79485533
   0.44444432  0.41666674  0.20514467
   0.55555566  0.33333325  0.70512613
   0.22222233  0.33333325  0.70512613
   0.11111099  0.41666674  0.20514467
   0.44444432  0.66666674  0.29487388
   0.55555566  0.58333325  0.79485533
   0.44444432  0.66666674  0.20514467
   0.55555566  0.58333325  0.70512613
   0.22222233  0.33333325  0.79485533
   0.11111099  0.41666674  0.29487388
   0.55555566  0.83333325  0.79485533
   0.88888899  0.83333325  0.70512613
Direct configuration=     2
   0.06794275  0.84063144  0.11384714
   0.08315664  0.73939134  0.10358149
   0.93529393  0.80150291  0.13918907
   0.87413056  0.67287413  0.14136704
   0.96039470  0.63648596  0.12255410
   0.84446541  0.72361261  0.02855559
   0.62911795  0.59024509  0.06640409
   0.75271290  0.60056592  0.04063908
   0.64627978  0.70678596  0.07047098
   0.78032457  0.78978760  0.04711166
   0.85916968  0.71130062  0.08783686
   0.93620526  0.54338689  0.12075628
   0.77289371  0.52695322  0.03203511
   0.57294912  0.73020654  0.08843082
   0.54100798  0.50787968  0.08082927
   0.94813823  0.76095217  0.00951316
   0.17126979  0.73965403  0.08367469
   0.14418955  0.93383341  0.10368704
   0.89235495  0.85754247  0.15258476
   0.76285342  0.61179341  0.15922271
   0.82507419  0.88662903  0.04436287
   0.55612784  0.08411704  0.24997269
   0.55613652  0.33410915  0.25001152
   0.44382719  0.41589610  0.75000174
   0.55557315  0.58402627  0.25061633
   0.44382688  0.66589641  0.75000178
   0.55611417  0.83368438  0.24998781
   0.44382765  0.91589724  0.75000183
   0.88976918  0.33420422  0.24995252
   0.77718489  0.16588927  0.75000239
   0.77718420  0.41588751  0.75000217
   0.88885803  0.58398073  0.24990408
   0.77718413  0.66588776  0.75000213
   0.88911773  0.83383456  0.25033010
   0.77718466  0.91588928  0.75000229
   0.11048325  0.91589597  0.75000131
   0.88981508  0.08444399  0.24997997
   0.22278843  0.83427792  0.24999892
   0.44382853  0.16589672  0.75000199
   0.22249936  0.58362568  0.25003914
   0.11048226  0.41589500  0.75000144
   0.22262697  0.33413213  0.24998474
   0.22318451  0.08430488  0.25012933
   0.11048288  0.16589554  0.75000144
   0.11048259  0.66589403  0.75000134
   0.77749805  0.16629318  0.29460774
   0.88919731  0.08372173  0.79456979
   0.77741919  0.16625056  0.20542613
   0.88919522  0.08371877  0.70540337
   0.22253321  0.08371870  0.70540363
   0.11076461  0.16624638  0.20537785
   0.77754735  0.41640580  0.29460100
   0.88919676  0.33372144  0.79456959
   0.11175014  0.66628577  0.20567864
   0.55586256  0.83371891  0.70540338
   0.88919458  0.33371886  0.70540361
   0.22253517  0.08372214  0.79456980
   0.11075275  0.16623638  0.29460281
   0.77755957  0.66634851  0.29472582
   0.88919671  0.58372038  0.79456977
   0.77320404  0.67135550  0.21395391
   0.88919500  0.58371801  0.70540367
   0.77757312  0.91628972  0.29460505
   0.88919766  0.83372155  0.79456988
   0.77739388  0.41612887  0.20536991
   0.44411507  0.91628635  0.20542457
   0.44417479  0.91633275  0.29459965
   0.22253327  0.58371925  0.70540349
   0.22253519  0.58372194  0.79456991
   0.11070146  0.91625027  0.29460281
   0.22253493  0.83372219  0.79456986
   0.11299614  0.91749560  0.20615824
   0.22253285  0.83371913  0.70540362
   0.11069832  0.66628699  0.29462013
   0.77697764  0.91667246  0.20558279
   0.44410244  0.16627427  0.29459552
   0.55586518  0.08372249  0.79456987
   0.44411819  0.16622915  0.20539783
   0.55586292  0.08371928  0.70540341
   0.44424025  0.41638334  0.29458599
   0.55586540  0.33372224  0.79456973
   0.44400120  0.41608636  0.20534002
   0.55586372  0.33371928  0.70540362
   0.22253321  0.33371901  0.70540335
   0.11080850  0.41631565  0.20542008
   0.44423515  0.66631312  0.29461439
   0.55586426  0.58372185  0.79457002
   0.44420087  0.66647505  0.20527430
   0.55586276  0.58371915  0.70540330
   0.22253504  0.33372201  0.79457000
   0.11089451  0.41640797  0.29459223
   0.55586457  0.83372189  0.79456987
   0.88919601  0.83371882  0.70540347
Direct configuration=     3
   0.06850686  0.84112693  0.11396791
   0.08337707  0.73937899  0.10360581
   0.93579504  0.80162042  0.13954896
   0.87238247  0.67340156  0.14295780
   0.96023013  0.63621897  0.12278822
   0.84445149  0.72358944  0.02855103
   0.62908809  0.59007545  0.06633373
   0.75234961  0.60031196  0.04057646
   0.64628919  0.70698509  0.07040931
   0.77998271  0.78985332  0.04706579
   0.85840737  0.71117314  0.08789170
   0.93625546  0.54337188  0.12074311
   0.77287611  0.52694061  0.03202750
   0.57290949  0.73021073  0.08841237
   0.54099207  0.50784857  0.08081801
   0.94817659  0.76097679  0.00950591
   0.17122512  0.73962452  0.08367331
   0.14422835  0.93382880  0.10365936
   0.89266460  0.85770166  0.15271197
   0.76363878  0.61342052  0.16073708
   0.82505747  0.88663058  0.04435339
   0.55592444  0.08383841  0.24998570
   0.55593003  0.33383333  0.25001073
   0.44404657  0.41617005  0.74999784
   0.55556693  0.58377991  0.25040053
   0.44404637  0.66617025  0.74999786
   0.55591563  0.83355956  0.24999545
   0.44404687  0.91617079  0.74999790
   0.88945629  0.33389460  0.24997270
   0.77739561  0.16616565  0.74999826
   0.77739517  0.41616452  0.74999812
   0.88886904  0.58375056  0.24994148
   0.77739512  0.66616468  0.74999809
   0.88903642  0.83365635  0.25021605
   0.77739546  0.91616566  0.74999819
   0.11070640  0.91616997  0.74999756
   0.88948587  0.08404913  0.24999039
   0.22258719  0.83394210  0.25000260
   0.44404743  0.16617045  0.74999800
   0.22240088  0.58352173  0.25002853
   0.11070576  0.41616934  0.74999764
   0.22248313  0.33384813  0.24999346
   0.22284246  0.08395948  0.25008666
   0.11070616  0.16616969  0.74999764
   0.11070597  0.66616872  0.74999758
   0.77759744  0.16642598  0.29470235
   0.88908770  0.08358363  0.79467130
   0.77754662  0.16639851  0.20532608
   0.88908636  0.08358172  0.70530482
   0.22242270  0.08358167  0.70530498
   0.11088774  0.16639581  0.20529496
   0.77762922  0.41649856  0.29469801
   0.88908736  0.33358344  0.79467117
   0.11152293  0.66642120  0.20548882
   0.55575346  0.83358181  0.70530482
   0.88908595  0.33358178  0.70530497
   0.22242396  0.08358389  0.79467130
   0.11088010  0.16638937  0.29469917
   0.77763709  0.66646164  0.29477846
   0.88908732  0.58358276  0.79467128
   0.77482990  0.66968870  0.21082233
   0.88908622  0.58358123  0.70530501
   0.77764583  0.91642375  0.29470062
   0.88908793  0.83358351  0.79467135
   0.77753031  0.41632008  0.20528984
   0.44423211  0.91642158  0.20532507
   0.44427060  0.91645148  0.29469714
   0.22242273  0.58358203  0.70530489
   0.22242397  0.58358376  0.79467137
   0.11084704  0.91639832  0.29469917
   0.22242380  0.83358393  0.79467134
   0.11232599  0.91720095  0.20579793
   0.22242246  0.83358195  0.70530498
   0.11084502  0.66642199  0.29471033
   0.77726203  0.91667043  0.20542704
   0.44422397  0.16641379  0.29469448
   0.55575515  0.08358412  0.79467135
   0.44423412  0.16638471  0.20530783
   0.55575370  0.08358205  0.70530484
   0.44431280  0.41648408  0.29468833
   0.55575529  0.33358396  0.79467126
   0.44415872  0.41629268  0.20527058
   0.55575421  0.33358205  0.70530498
   0.22242269  0.33358187  0.70530481
   0.11091603  0.41644046  0.20532218
   0.44430951  0.66643883  0.29470664
   0.55575455  0.58358371  0.79467145
   0.44428741  0.66654319  0.20522822
   0.55575359  0.58358196  0.70530477
   0.22242388  0.33358381  0.79467143
   0.11097147  0.41649996  0.29469236
   0.55575476  0.83358373  0.79467134
   0.88908687  0.83358175  0.70530488
Direct configuration=     4
   0.06955969  0.84368597  0.11342605
   0.08628696  0.73985229  0.10262458
   0.93504214  0.80066836  0.13828109
   0.85727459  0.67016832  0.14300170
   0.96784300  0.63214151  0.12040658
   0.84519390  0.72362195  0.02868238
   0.63030813  0.58977608  0.06642130
   0.75220763  0.59976999  0.04076003
   0.64764312  0.70810764  0.07056679
   0.77992513  0.79020002  0.04737168
   0.85958681  0.71179179  0.08689389
   0.93649955  0.54397428  0.12072956
   0.77286309  0.52727141  0.03208369
   0.57315393  0.73018378  0.08848826
   0.54111229  0.50798711  0.08088358
   0.94819385  0.76095055  0.00950247
   0.17124014  0.73988540  0.08372783
   0.14363447  0.93299023  0.10377606
   0.89120920  0.85629486  0.15221918
   0.76718304  0.61267662  0.15649139
   0.82499757  0.88628692  0.04440420
   0.55637755  0.08434303  0.24997023
   0.55632614  0.33425805  0.25003082
   0.44374281  0.41577568  0.74999986
   0.55048397  0.58251843  0.25178263
   0.44374320  0.66577600  0.74999991
   0.55590870  0.83368372  0.25005236
   0.44374451  0.91577704  0.75000001
   0.88978599  0.33423313  0.24996528
   0.77709706  0.16576337  0.75000085
   0.77709580  0.41576184  0.75000066
   0.89035827  0.58369122  0.25066420
   0.77709553  0.66576229  0.75000064
   0.89195090  0.83836371  0.25174088
   0.77709634  0.91576380  0.75000080
   0.11039855  0.91576740  0.75000007
   0.89007384  0.08485478  0.25001203
   0.22312082  0.83428288  0.25019632
   0.44374457  0.16577628  0.75000019
   0.22262613  0.58352769  0.25016313
   0.11039869  0.41576630  0.75000012
   0.22272941  0.33431679  0.24998078
   0.22361384  0.08477857  0.25029713
   0.11039864  0.16576725  0.75000013
   0.11039872  0.66576541  0.75000011
   0.77744876  0.16627557  0.29446561
   0.88924460  0.08378422  0.79443786
   0.77730208  0.16615809  0.20554805
   0.88924051  0.08377920  0.70553906
   0.22257839  0.08378326  0.70554010
   0.11073229  0.16614443  0.20550480
   0.77745565  0.41626133  0.29443729
   0.88924403  0.33378359  0.79443781
   0.11202114  0.66624274  0.20585727
   0.55590837  0.83378206  0.70553992
   0.88923985  0.33377905  0.70553912
   0.22258085  0.08378823  0.79443681
   0.11066450  0.16621854  0.29445933
   0.77761767  0.66618112  0.29522349
   0.88924349  0.58378232  0.79443800
   0.77153672  0.67128137  0.21502062
   0.88924016  0.58377820  0.70553929
   0.77733243  0.91640053  0.29452509
   0.88924450  0.83378371  0.79443795
   0.77722899  0.41619124  0.20538273
   0.44409949  0.91620634  0.20556127
   0.44420486  0.91627889  0.29443500
   0.22257793  0.58378335  0.70553990
   0.22258054  0.58378724  0.79443692
   0.11098047  0.91628874  0.29458178
   0.22258035  0.83378778  0.79443682
   0.11409473  0.91808300  0.20664280
   0.22257763  0.83378333  0.70554013
   0.11060043  0.66616873  0.29443402
   0.77673974  0.91694280  0.20578573
   0.44413231  0.16624730  0.29445853
   0.55591211  0.08378740  0.79443695
   0.44407002  0.16615895  0.20552181
   0.55590880  0.08378235  0.70553991
   0.44395992  0.41592290  0.29452590
   0.55591174  0.33378687  0.79443695
   0.44416567  0.41617657  0.20543698
   0.55590917  0.33378197  0.70554000
   0.22257796  0.33378325  0.70553982
   0.11076129  0.41626248  0.20552698
   0.44381810  0.66644067  0.29456366
   0.55591067  0.58378629  0.79443707
   0.44408984  0.66635790  0.20533848
   0.55590845  0.58378198  0.70553980
   0.22258049  0.33378768  0.79443695
   0.11081754  0.41635603  0.29445845
   0.55591131  0.83378677  0.79443684
   0.88924112  0.83377911  0.70553922
Direct configuration=     5
   0.06885606  0.84197570  0.11378818
   0.08434221  0.73953597  0.10328036
   0.93554532  0.80130465  0.13912843
   0.86737155  0.67232917  0.14297236
   0.96275514  0.63486658  0.12199829
   0.84469773  0.72360022  0.02859459
   0.62949275  0.58997616  0.06636277
   0.75230252  0.60013220  0.04063734
   0.64673825  0.70735741  0.07046154
   0.77996361  0.78996831  0.04716725
   0.85879856  0.71137833  0.08756075
   0.93633642  0.54357168  0.12073862
   0.77287179  0.52705033  0.03204614
   0.57299057  0.73020179  0.08843754
   0.54103195  0.50789452  0.08083976
   0.94818231  0.76096809  0.00950477
   0.17123010  0.73971105  0.08369139
   0.14403138  0.93355067  0.10369807
   0.89218188  0.85723506  0.15254852
   0.76481433  0.61317379  0.15932889
   0.82503760  0.88651660  0.04437024
   0.55607473  0.08400578  0.24998057
   0.55606141  0.33397420  0.25001739
   0.44394582  0.41603925  0.74999851
   0.55388103  0.58336151  0.25085894
   0.44394582  0.66603949  0.74999854
   0.55591333  0.83360074  0.25001432
   0.44394658  0.91604019  0.74999860
   0.88956564  0.33400688  0.24997024
   0.77729659  0.16603223  0.74999912
   0.77729588  0.41603096  0.74999896
   0.88936298  0.58373088  0.25018119
   0.77729575  0.66603122  0.74999894
   0.89000308  0.83521767  0.25072180
   0.77729625  0.91603237  0.74999906
   0.11060429  0.91603645  0.74999839
   0.88968089  0.08431635  0.24999757
   0.22276418  0.83405513  0.25006685
   0.44394698  0.16603971  0.74999872
   0.22247559  0.58352370  0.25007317
   0.11060391  0.41603566  0.74999847
   0.22256481  0.33400357  0.24998926
   0.22309831  0.08423115  0.25015646
   0.11060416  0.16603621  0.74999847
   0.11060406  0.66603495  0.74999842
   0.77754813  0.16637609  0.29462383
   0.88913974  0.08365016  0.79459387
   0.77746551  0.16631876  0.20539970
   0.88913749  0.08364722  0.70538251
   0.22247434  0.08364854  0.70538296
   0.11083618  0.16631243  0.20536456
   0.77757165  0.41641988  0.29461153
   0.88913932  0.33364983  0.79459377
   0.11168817  0.66636201  0.20561102
   0.55580484  0.83364823  0.70538280
   0.88913699  0.33364721  0.70538263
   0.22247600  0.08365167  0.79459353
   0.11080859  0.16633271  0.29461962
   0.77763065  0.66636859  0.29492606
   0.88913912  0.58364895  0.79459391
   0.77373763  0.67021695  0.21221480
   0.88913728  0.58364656  0.70538272
   0.77754188  0.91641605  0.29464240
   0.88913986  0.83364991  0.79459394
   0.77743037  0.41627735  0.20532065
   0.44418812  0.91635019  0.20540341
   0.44424880  0.91639424  0.29461019
   0.22247421  0.58364880  0.70538284
   0.22247590  0.58365125  0.79459361
   0.11089130  0.91636198  0.29466024
   0.22247572  0.83365154  0.79459355
   0.11291264  0.91749351  0.20607815
   0.22247393  0.83364875  0.70538297
   0.11076389  0.66633799  0.29461869
   0.77708880  0.91676077  0.20554601
   0.44419357  0.16635857  0.29461622
   0.55580721  0.08365154  0.79459360
   0.44417970  0.16630983  0.20537881
   0.55580514  0.08364849  0.70538281
   0.44419575  0.41629795  0.29463446
   0.55580718  0.33365126  0.79459355
   0.44416103  0.41625417  0.20532577
   0.55580561  0.33364836  0.70538293
   0.22247419  0.33364866  0.70538275
   0.11086471  0.41638143  0.20539010
   0.44414652  0.66643944  0.29465921
   0.55580633  0.58365090  0.79459371
   0.44422188  0.66648173  0.20526479
   0.55580495  0.58364830  0.70538272
   0.22247582  0.33365143  0.79459366
   0.11092041  0.41645222  0.29461478
   0.55580668  0.83365108  0.79459356
   0.88913803  0.83364721  0.70538260
Direct configuration=     6
   0.06842770  0.84171400  0.11340656
   0.08555754  0.73968526  0.10273871
   0.93359328  0.79987633  0.13852789
   0.86559372  0.67234581  0.14166022
   0.96427944  0.63694576  0.12131859
   0.84515373  0.72341012  0.02879821
   0.63096998  0.59001494  0.06648055
   0.75201298  0.59964579  0.04059613
   0.64795166  0.70835781  0.07053524
   0.77966499  0.79021415  0.04736185
   0.85935990  0.71154129  0.08675035
   0.93636434  0.54105650  0.12050665
   0.77288501  0.52715570  0.03207961
   0.57323324  0.73022620  0.08853031
   0.54119958  0.50799861  0.08091831
   0.94832023  0.76098382  0.00947440
   0.17295633  0.74026747  0.08337328
   0.14453349  0.93409554  0.10365148
   0.89119119  0.85579029  0.15202596
   0.76215183  0.61043446  0.15752393
   0.82506315  0.88640972  0.04441886
   0.55619480  0.08409462  0.24997922
   0.55622586  0.33409568  0.25001271
   0.44395575  0.41603826  0.74999654
   0.54819048  0.58151530  0.25207786
   0.44395635  0.66603851  0.74999657
   0.55568151  0.83352739  0.25006659
   0.44395754  0.91603942  0.74999667
   0.88943163  0.33393309  0.24997240
   0.77730376  0.16602978  0.74999702
   0.77730255  0.41602874  0.74999693
   0.89087413  0.58327365  0.25099102
   0.77730227  0.66602911  0.74999694
   0.89291533  0.83995921  0.25214649
   0.77730310  0.91603028  0.74999702
   0.11061739  0.91603283  0.74999658
   0.88971573  0.08457770  0.25003348
   0.22300947  0.83391011  0.25026798
   0.44395722  0.16603877  0.74999681
   0.22257377  0.58339422  0.25017610
   0.11061802  0.41603194  0.74999653
   0.22253930  0.33399461  0.24997239
   0.22357793  0.08466882  0.25032742
   0.11061773  0.16603287  0.74999654
   0.11061782  0.66603130  0.74999660
   0.77756610  0.16645554  0.29452107
   0.88913881  0.08365066  0.79449143
   0.77741532  0.16630294  0.20548497
   0.88913498  0.08364587  0.70549061
   0.22247263  0.08365209  0.70549208
   0.11089090  0.16628010  0.20547722
   0.77749232  0.41619623  0.29451672
   0.88913841  0.33364998  0.79449147
   0.11179717  0.66632566  0.20577513
   0.55580484  0.83365215  0.70549198
   0.88913452  0.33364561  0.70549056
   0.22247465  0.08365663  0.79448961
   0.11077608  0.16644622  0.29452236
   0.77768462  0.66628144  0.29564251
   0.88913763  0.58364889  0.79449159
   0.77271468  0.66997546  0.21259792
   0.88913462  0.58364499  0.70549075
   0.77711630  0.91687756  0.29471806
   0.88913838  0.83365005  0.79449147
   0.77740111  0.41654667  0.20533244
   0.44419930  0.91630447  0.20552916
   0.44439918  0.91644422  0.29449649
   0.22247197  0.58365184  0.70549188
   0.22247427  0.58365538  0.79448968
   0.11179408  0.91672706  0.29481984
   0.22247417  0.83365597  0.79448955
   0.11384270  0.91808178  0.20655095
   0.22247184  0.83365193  0.70549215
   0.11087810  0.66627137  0.29453025
   0.77703656  0.91711109  0.20576381
   0.44436674  0.16643011  0.29452703
   0.55580764  0.08365671  0.79448991
   0.44417061  0.16631437  0.20548600
   0.55580521  0.08365228  0.70549196
   0.44363637  0.41551793  0.29470947
   0.55580691  0.33365619  0.79448998
   0.44441103  0.41653284  0.20544999
   0.55580513  0.33365176  0.70549195
   0.22247207  0.33365189  0.70549183
   0.11085900  0.41638074  0.20547312
   0.44339018  0.66675506  0.29477388
   0.55580618  0.58365560  0.79448994
   0.44410324  0.66631045  0.20535340
   0.55580479  0.58365185  0.70549186
   0.22247431  0.33365598  0.79448968
   0.11082541  0.41638391  0.29452451
   0.55580686  0.83365625  0.79448975
   0.88913524  0.83364571  0.70549079
Direct configuration=     7
   0.06846299  0.84173556  0.11343800
   0.08545744  0.73967296  0.10278332
   0.93375405  0.79999397  0.13857735
   0.86574015  0.67234444  0.14176829
   0.96415389  0.63677451  0.12137457
   0.84511617  0.72342578  0.02878144
   0.63084831  0.59001175  0.06647085
   0.75203683  0.59968585  0.04059953
   0.64785172  0.70827541  0.07052917
   0.77968959  0.79019390  0.04734582
   0.85931366  0.71152787  0.08681710
   0.93636204  0.54126366  0.12052575
   0.77288392  0.52714702  0.03207685
   0.57321325  0.73022419  0.08852267
   0.54118578  0.50799004  0.08091184
   0.94830887  0.76098252  0.00947690
   0.17281415  0.74022164  0.08339948
   0.14449213  0.93405066  0.10365532
   0.89127279  0.85590929  0.15206900
   0.76237112  0.61066008  0.15767259
   0.82506105  0.88641852  0.04441486
   0.55618491  0.08408730  0.24997933
   0.55621231  0.33408568  0.25001309
   0.44395493  0.41603834  0.74999670
   0.54865918  0.58166736  0.25197746
   0.44395548  0.66603859  0.74999673
   0.55570061  0.83353343  0.25006229
   0.44395664  0.91603948  0.74999683
   0.88944267  0.33393917  0.24997223
   0.77730317  0.16602999  0.74999719
   0.77730200  0.41602892  0.74999710
   0.89074967  0.58331131  0.25092432
   0.77730173  0.66602929  0.74999711
   0.89267547  0.83956868  0.25202914
   0.77730254  0.91603045  0.74999718
   0.11061631  0.91603313  0.74999673
   0.88971286  0.08455617  0.25003052
   0.22298927  0.83392206  0.25025141
   0.44395638  0.16603885  0.74999697
   0.22256569  0.58340488  0.25016763
   0.11061685  0.41603225  0.74999669
   0.22254140  0.33399534  0.24997378
   0.22353842  0.08463277  0.25031334
   0.11061661  0.16603315  0.74999670
   0.11061669  0.66603160  0.74999675
   0.77756462  0.16644899  0.29452953
   0.88913888  0.08365062  0.79449986
   0.77741945  0.16630425  0.20547795
   0.88913519  0.08364598  0.70548171
   0.22247277  0.08365180  0.70548309
   0.11088640  0.16628276  0.20546794
   0.77749885  0.41621465  0.29452453
   0.88913848  0.33364997  0.79449990
   0.11178819  0.66632865  0.20576161
   0.55580484  0.83365183  0.70548299
   0.88913472  0.33364574  0.70548167
   0.22247476  0.08365622  0.79449817
   0.11077876  0.16643687  0.29453037
   0.77768017  0.66628862  0.29558350
   0.88913776  0.58364890  0.79450002
   0.77279893  0.66999535  0.21256636
   0.88913484  0.58364512  0.70548185
   0.77715135  0.91683955  0.29471183
   0.88913850  0.83365004  0.79449991
   0.77740352  0.41652449  0.20533147
   0.44419838  0.91630824  0.20551880
   0.44438679  0.91644010  0.29450585
   0.22247216  0.58365159  0.70548289
   0.22247441  0.58365504  0.79449824
   0.11171972  0.91669699  0.29480669
   0.22247430  0.83365561  0.79449812
   0.11376609  0.91803332  0.20651201
   0.22247201  0.83365167  0.70548316
   0.11086870  0.66627686  0.29453753
   0.77704086  0.91708223  0.20574587
   0.44435248  0.16642422  0.29453438
   0.55580760  0.08365629  0.79449845
   0.44417135  0.16631400  0.20547717
   0.55580520  0.08365197  0.70548297
   0.44368244  0.41558217  0.29470329
   0.55580693  0.33365578  0.79449851
   0.44439044  0.41650988  0.20543976
   0.55580517  0.33365148  0.70548297
   0.22247224  0.33365163  0.70548285
   0.11085947  0.41638079  0.20546628
   0.44345247  0.66672906  0.29476444
   0.55580619  0.58365522  0.79449849
   0.44411302  0.66632455  0.20534610
   0.55580480  0.58365156  0.70548287
   0.22247443  0.33365560  0.79449824
   0.11083324  0.41638953  0.29453195
   0.55580685  0.83365582  0.79449830
   0.88913547  0.83364583  0.70548188
Direct configuration=     8
   0.06771447  0.84114544  0.11290931
   0.08694443  0.74120072  0.10223698
   0.93265260  0.79987727  0.13784694
   0.86597550  0.67159620  0.14018367
   0.96154187  0.63347001  0.12100936
   0.84559424  0.72352499  0.02888864
   0.63193400  0.59069680  0.06678361
   0.75202137  0.59970770  0.04032879
   0.64800048  0.70800278  0.07067367
   0.78020046  0.79026282  0.04724555
   0.86030721  0.71194018  0.08605152
   0.93790365  0.54228156  0.12017765
   0.77299561  0.52670396  0.03204647
   0.57367708  0.73033032  0.08866339
   0.54183091  0.50836090  0.08100696
   0.94821834  0.76089197  0.00949019
   0.17593369  0.74104919  0.08282244
   0.14497250  0.93468943  0.10360384
   0.88979912  0.85429923  0.15144548
   0.75762634  0.60708685  0.15612952
   0.82532541  0.88680464  0.04447400
   0.55610750  0.08399940  0.24997920
   0.55637518  0.33429745  0.24996243
   0.44405558  0.41616324  0.74999806
   0.54647575  0.58083941  0.25253034
   0.44405632  0.66616354  0.74999809
   0.55557484  0.83340845  0.25006934
   0.44405760  0.91616458  0.74999824
   0.88915930  0.33383734  0.24993247
   0.77740151  0.16615421  0.74999850
   0.77739990  0.41615308  0.74999846
   0.89111731  0.58305856  0.25136392
   0.77739971  0.66615344  0.74999849
   0.89353479  0.84126313  0.25259793
   0.77740080  0.91615477  0.74999853
   0.11071891  0.91615703  0.74999816
   0.88931521  0.08462276  0.25007492
   0.22304323  0.83372835  0.25038429
   0.44405714  0.16616394  0.74999838
   0.22256382  0.58342227  0.25017741
   0.11071982  0.41615603  0.74999802
   0.22228537  0.33362655  0.24994259
   0.22420540  0.08501644  0.25045873
   0.11071953  0.16615725  0.74999803
   0.11071937  0.66615533  0.74999817
   0.77765474  0.16667953  0.29451982
   0.88909373  0.08358771  0.79446792
   0.77747059  0.16640453  0.20548953
   0.88908823  0.08358095  0.70551642
   0.22242706  0.08359157  0.70551845
   0.11105662  0.16634530  0.20555086
   0.77735631  0.41565347  0.29465264
   0.88909343  0.33358675  0.79446803
   0.11147633  0.66622060  0.20595684
   0.55576092  0.83359350  0.70551836
   0.88908787  0.33358050  0.70551627
   0.22242980  0.08359768  0.79446544
   0.11081107  0.16678886  0.29455163
   0.77752706  0.66644922  0.29645560
   0.88909203  0.58358560  0.79446816
   0.77221962  0.66997597  0.21268861
   0.88908769  0.58358003  0.70551657
   0.77613147  0.91819519  0.29522235
   0.88909256  0.83358679  0.79446795
   0.77777499  0.41723886  0.20541722
   0.44416056  0.91625169  0.20562825
   0.44477935  0.91669821  0.29453977
   0.22242607  0.58359086  0.70551818
   0.22242937  0.58359563  0.79446547
   0.11429603  0.91791622  0.29542930
   0.22242931  0.83359652  0.79446529
   0.11409863  0.91852048  0.20698864
   0.22242604  0.83359102  0.70551860
   0.11165580  0.66633847  0.29477565
   0.77747093  0.91750372  0.20604841
   0.44487677  0.16670026  0.29456646
   0.55576453  0.08359940  0.79446562
   0.44422100  0.16644431  0.20555088
   0.55576136  0.08359349  0.70551833
   0.44224558  0.41387628  0.29512936
   0.55576289  0.33359865  0.79446577
   0.44462184  0.41710972  0.20567133
   0.55576056  0.33359260  0.70551821
   0.22242622  0.33359102  0.70551812
   0.11086779  0.41640550  0.20550529
   0.44178202  0.66745856  0.29531934
   0.55576240  0.58359787  0.79446558
   0.44395027  0.66594275  0.20554870
   0.55576072  0.58359284  0.70551819
   0.22242942  0.33359660  0.79446545
   0.11061368  0.41617085  0.29453468
   0.55576344  0.83359891  0.79446536
   0.88908801  0.83358067  0.70551669
Direct configuration=     9
   0.06785851  0.84125900  0.11301104
   0.08665829  0.74090673  0.10234212
   0.93286455  0.79989973  0.13798749
   0.86593021  0.67174018  0.14048860
   0.96204450  0.63410590  0.12107964
   0.84550224  0.72350590  0.02886801
   0.63172508  0.59056497  0.06672342
   0.75202434  0.59970349  0.04038089
   0.64797186  0.70805524  0.07064586
   0.78010216  0.79024956  0.04726484
   0.86011602  0.71186084  0.08619884
   0.93760699  0.54208568  0.12024464
   0.77297412  0.52678922  0.03205232
   0.57358782  0.73030989  0.08863631
   0.54170677  0.50828953  0.08098865
   0.94823576  0.76090940  0.00948763
   0.17533339  0.74088995  0.08293348
   0.14488006  0.93456651  0.10361375
   0.89008270  0.85460905  0.15156546
   0.75853938  0.60777445  0.15642645
   0.82527454  0.88673033  0.04446262
   0.55612240  0.08401631  0.24997922
   0.55634384  0.33425670  0.24997218
   0.44403622  0.41613921  0.74999780
   0.54689591  0.58099873  0.25242395
   0.44403692  0.66613949  0.74999783
   0.55559904  0.83343250  0.25006799
   0.44403817  0.91614051  0.74999797
   0.88921383  0.33385694  0.24994012
   0.77738259  0.16613030  0.74999825
   0.77738106  0.41612919  0.74999820
   0.89104657  0.58310720  0.25127933
   0.77738085  0.66612955  0.74999823