 171 171   0   0
  0.4145774E+02  0.1590000E-08  0.1590000E-08  0.3238000E-08  0.5000000E-15
  1.000000000000000E-004
  CAR 
 basalPlane                              
      2.19905531    -19.08066286  301      0.20693265      1.00000000
    -19.081  0.0000E+00  0.0000E+00
    -19.010  0.0000E+00  0.0000E+00
    -18.939  0.0000E+00  0.0000E+00
    -18.868  0.0000E+00  0.0000E+00
    -18.797  0.0000E+00  0.0000E+00
    -18.726  0.0000E+00  0.0000E+00
    -18.655  0.6261E-18  0.4441E-19
    -18.584  0.1519E-14  0.1078E-15
    -18.513  0.1342E-11  0.9532E-13
    -18.442  0.4435E-09  0.3155E-10
    -18.371  0.5515E-07  0.3943E-08
    -18.300  0.2603E-05  0.1886E-06
    -18.229  0.4716E-04  0.3533E-05
    -18.159  0.3319E-03  0.2707E-04
    -18.088  0.9178E-03  0.9217E-04
    -18.017  0.1005E-02  0.1635E-03
    -17.946  0.4380E-03  0.1945E-03
    -17.875  0.1162E-03  0.2028E-03
    -17.804  0.3131E-03  0.2250E-03
    -17.733  0.8923E-03  0.2883E-03
    -17.662  0.1022E-02  0.3608E-03
    -17.591  0.4641E-03  0.3937E-03
    -17.520  0.8298E-04  0.3996E-03
    -17.449  0.5781E-05  0.4000E-03
    -17.378  0.1550E-06  0.4000E-03
    -17.307  0.1582E-08  0.4000E-03
    -17.236  0.6089E-11  0.4000E-03
    -17.165  0.8773E-14  0.4000E-03
    -17.095  0.4696E-17  0.4000E-03
    -17.024  0.0000E+00  0.4000E-03
    -16.953  0.0000E+00  0.4000E-03
    -16.882  0.0000E+00  0.4000E-03
    -16.811  0.0000E+00  0.4000E-03
    -16.740  0.0000E+00  0.4000E-03
    -16.669  0.0000E+00  0.4000E-03
    -16.598  0.0000E+00  0.4000E-03
    -16.527  0.0000E+00  0.4000E-03
    -16.456  0.0000E+00  0.4000E-03
    -16.385  0.0000E+00  0.4000E-03
    -16.314  0.0000E+00  0.4000E-03
    -16.243  0.6261E-18  0.4000E-03
    -16.172  0.1611E-14  0.4000E-03
    -16.102  0.1412E-11  0.4000E-03
    -16.031  0.4629E-09  0.4000E-03
    -15.960  0.5711E-07  0.4000E-03
    -15.889  0.2675E-05  0.4002E-03
    -15.818  0.4809E-04  0.4036E-03
    -15.747  0.3363E-03  0.4275E-03
    -15.676  0.9352E-03  0.4938E-03
    -15.605  0.1148E-02  0.5753E-03
    -15.534  0.1065E-02  0.6508E-03
    -15.463  0.1153E-02  0.7326E-03
    -15.392  0.7371E-03  0.7849E-03
    -15.321  0.2712E-03  0.8041E-03
    -15.250  0.8741E-03  0.8661E-03
    -15.179  0.3757E-02  0.1133E-02
    -15.108  0.6790E-02  0.1614E-02
    -15.038  0.6592E-02  0.2082E-02
    -14.967  0.6866E-02  0.2569E-02
    -14.896  0.6030E-02  0.2997E-02
    -14.825  0.2445E-02  0.3170E-02
    -14.754  0.3973E-03  0.3198E-02
    -14.683  0.2649E-04  0.3200E-02
    -14.612  0.3011E-04  0.3202E-02
    -14.541  0.2775E-03  0.3222E-02
    -14.470  0.1260E-02  0.3311E-02
    -14.399  0.3631E-02  0.3569E-02
    -14.328  0.7429E-02  0.4096E-02
    -14.257  0.1075E-01  0.4858E-02
    -14.186  0.1549E-01  0.5957E-02
    -14.115  0.2163E-01  0.7491E-02
    -14.044  0.1944E-01  0.8870E-02
    -13.974  0.1086E-01  0.9640E-02
    -13.903  0.8784E-02  0.1026E-01
    -13.832  0.1228E-01  0.1113E-01
    -13.761  0.1751E-01  0.1238E-01
    -13.690  0.2381E-01  0.1406E-01
    -13.619  0.2435E-01  0.1579E-01
    -13.548  0.2369E-01  0.1747E-01
    -13.477  0.2272E-01  0.1908E-01
    -13.406  0.1567E-01  0.2019E-01
    -13.335  0.9138E-02  0.2084E-01
    -13.264  0.4064E-02  0.2113E-01
    -13.193  0.8922E-03  0.2119E-01
    -13.122  0.8019E-04  0.2120E-01
    -13.051  0.2808E-05  0.2120E-01
    -12.980  0.3762E-07  0.2120E-01
    -12.910  0.1907E-09  0.2120E-01
    -12.839  0.3629E-12  0.2120E-01
    -12.768  0.2576E-15  0.2120E-01
    -12.697  0.0000E+00  0.2120E-01
    -12.626  0.0000E+00  0.2120E-01
    -12.555  0.0000E+00  0.2120E-01
    -12.484  0.0000E+00  0.2120E-01
    -12.413  0.0000E+00  0.2120E-01
    -12.342  0.0000E+00  0.2120E-01
    -12.271  0.0000E+00  0.2120E-01
    -12.200  0.0000E+00  0.2120E-01
    -12.129  0.0000E+00  0.2120E-01
    -12.058  0.0000E+00  0.2120E-01
    -11.987  0.0000E+00  0.2120E-01
    -11.916  0.0000E+00  0.2120E-01
    -11.846  0.0000E+00  0.2120E-01
    -11.775  0.0000E+00  0.2120E-01
    -11.704  0.0000E+00  0.2120E-01
    -11.633  0.0000E+00  0.2120E-01
    -11.562  0.0000E+00  0.2120E-01
    -11.491  0.0000E+00  0.2120E-01
    -11.420  0.0000E+00  0.2120E-01
    -11.349  0.0000E+00  0.2120E-01
    -11.278  0.0000E+00  0.2120E-01
    -11.207  0.0000E+00  0.2120E-01
    -11.136  0.0000E+00  0.2120E-01
    -11.065  0.0000E+00  0.2120E-01
    -10.994  0.0000E+00  0.2120E-01
    -10.923  0.0000E+00  0.2120E-01
    -10.853  0.0000E+00  0.2120E-01
    -10.782  0.0000E+00  0.2120E-01
    -10.711  0.0000E+00  0.2120E-01
    -10.640  0.0000E+00  0.2120E-01
    -10.569  0.0000E+00  0.2120E-01
    -10.498  0.0000E+00  0.2120E-01
    -10.427  0.0000E+00  0.2120E-01
    -10.356  0.0000E+00  0.2120E-01
    -10.285  0.0000E+00  0.2120E-01
    -10.214  0.0000E+00  0.2120E-01
    -10.143  0.0000E+00  0.2120E-01
    -10.072  0.0000E+00  0.2120E-01
    -10.001  0.0000E+00  0.2120E-01
     -9.930  0.7388E-16  0.2120E-01
     -9.859  0.9757E-13  0.2120E-01
     -9.789  0.4818E-10  0.2120E-01
     -9.718  0.8971E-08  0.2120E-01
     -9.647  0.6385E-06  0.2120E-01
     -9.576  0.1773E-04  0.2120E-01
     -9.505  0.1981E-03  0.2122E-01
     -9.434  0.9323E-03  0.2128E-01
     -9.363  0.2000E-02  0.2142E-01
     -9.292  0.2450E-02  0.2160E-01
     -9.221  0.2672E-02  0.2179E-01
     -9.150  0.2622E-02  0.2197E-01
     -9.079  0.1907E-02  0.2211E-01
     -9.008  0.1008E-02  0.2218E-01
     -8.937  0.4757E-03  0.2221E-01
     -8.866  0.7705E-03  0.2227E-01
     -8.795  0.1081E-02  0.2234E-01
     -8.725  0.6261E-03  0.2239E-01
     -8.654  0.1434E-03  0.2240E-01
     -8.583  0.1284E-04  0.2240E-01
     -8.512  0.4437E-06  0.2240E-01
     -8.441  0.5854E-08  0.2240E-01
     -8.370  0.2919E-10  0.2240E-01
     -8.299  0.5457E-13  0.2240E-01
     -8.228  0.3819E-16  0.2240E-01
     -8.157  0.0000E+00  0.2240E-01
     -8.086  0.0000E+00  0.2240E-01
     -8.015  0.0000E+00  0.2240E-01
     -7.944  0.0000E+00  0.2240E-01
     -7.873  0.0000E+00  0.2240E-01
     -7.802  0.0000E+00  0.2240E-01
     -7.731  0.2676E-16  0.2240E-01
     -7.661  0.4037E-13  0.2240E-01
     -7.590  0.2282E-10  0.2240E-01
     -7.519  0.4912E-08  0.2240E-01
     -7.448  0.4134E-06  0.2240E-01
     -7.377  0.1427E-04  0.2240E-01
     -7.306  0.2158E-03  0.2242E-01
     -7.235  0.1518E-02  0.2252E-01
     -7.164  0.5036E-02  0.2288E-01
     -7.093  0.7953E-02  0.2345E-01
     -7.022  0.7523E-02  0.2398E-01
     -6.951  0.7904E-02  0.2454E-01
     -6.880  0.9014E-02  0.2518E-01
     -6.809  0.1186E-01  0.2602E-01
     -6.738  0.1788E-01  0.2729E-01
     -6.667  0.2410E-01  0.2900E-01
     -6.597  0.2657E-01  0.3088E-01
     -6.526  0.2083E-01  0.3236E-01
     -6.455  0.1554E-01  0.3346E-01
     -6.384  0.1181E-01  0.3430E-01
     -6.313  0.5780E-02  0.3471E-01
     -6.242  0.2673E-02  0.3490E-01
     -6.171  0.5532E-02  0.3529E-01
     -6.100  0.9829E-02  0.3599E-01
     -6.029  0.1040E-01  0.3673E-01
     -5.958  0.7198E-02  0.3724E-01
     -5.887  0.4520E-02  0.3756E-01
     -5.816  0.6559E-02  0.3802E-01
     -5.745  0.8728E-02  0.3864E-01
     -5.674  0.9009E-02  0.3928E-01
     -5.604  0.1424E-01  0.4029E-01
     -5.533  0.1994E-01  0.4171E-01
     -5.462  0.1868E-01  0.4303E-01
     -5.391  0.1698E-01  0.4424E-01
     -5.320  0.1724E-01  0.4546E-01
     -5.249  0.1618E-01  0.4661E-01
     -5.178  0.1733E-01  0.4784E-01
     -5.107  0.1697E-01  0.4904E-01
     -5.036  0.1127E-01  0.4984E-01
     -4.965  0.1083E-01  0.5061E-01
     -4.894  0.1442E-01  0.5163E-01
     -4.823  0.1523E-01  0.5271E-01
     -4.752  0.1805E-01  0.5399E-01
     -4.681  0.2313E-01  0.5563E-01
     -4.610  0.2603E-01  0.5748E-01
     -4.540  0.2066E-01  0.5894E-01
     -4.469  0.1136E-01  0.5975E-01
     -4.398  0.9349E-02  0.6041E-01
     -4.327  0.1079E-01  0.6118E-01
     -4.256  0.1118E-01  0.6197E-01
     -4.185  0.1117E-01  0.6276E-01
     -4.114  0.8313E-02  0.6335E-01
     -4.043  0.3443E-02  0.6360E-01
     -3.972  0.2326E-02  0.6376E-01
     -3.901  0.5434E-02  0.6415E-01
     -3.830  0.1155E-01  0.6497E-01
     -3.759  0.1502E-01  0.6603E-01
     -3.688  0.1558E-01  0.6714E-01
     -3.617  0.2069E-01  0.6860E-01
     -3.546  0.2452E-01  0.7034E-01
     -3.476  0.2293E-01  0.7197E-01
     -3.405  0.2286E-01  0.7359E-01
     -3.334  0.2317E-01  0.7524E-01
     -3.263  0.1303E-01  0.7616E-01
     -3.192  0.3395E-02  0.7640E-01
     -3.121  0.1548E-02  0.7651E-01
     -3.050  0.2214E-02  0.7667E-01
     -2.979  0.2155E-02  0.7682E-01
     -2.908  0.4799E-02  0.7716E-01
     -2.837  0.1357E-01  0.7812E-01
     -2.766  0.2274E-01  0.7974E-01
     -2.695  0.2553E-01  0.8155E-01
     -2.624  0.1959E-01  0.8294E-01
     -2.553  0.1202E-01  0.8379E-01
     -2.482  0.1379E-01  0.8477E-01
     -2.412  0.1948E-01  0.8615E-01
     -2.341  0.1985E-01  0.8756E-01
     -2.270  0.1476E-01  0.8860E-01
     -2.199  0.1063E-01  0.8936E-01
     -2.128  0.9900E-02  0.9006E-01
     -2.057  0.1312E-01  0.9099E-01
     -1.986  0.1316E-01  0.9192E-01
     -1.915  0.8090E-02  0.9250E-01
     -1.844  0.7497E-02  0.9303E-01
     -1.773  0.9446E-02  0.9370E-01
     -1.702  0.9648E-02  0.9438E-01
     -1.631  0.7170E-02  0.9489E-01
     -1.560  0.3308E-02  0.9513E-01
     -1.489  0.9001E-03  0.9519E-01
     -1.418  0.1288E-03  0.9520E-01
     -1.348  0.8341E-05  0.9520E-01
     -1.277  0.2224E-06  0.9520E-01
     -1.206  0.2330E-08  0.9520E-01
     -1.135  0.9361E-11  0.9520E-01
     -1.064  0.1422E-13  0.9520E-01
     -0.993  0.8139E-17  0.9520E-01
     -0.922  0.0000E+00  0.9520E-01
     -0.851  0.0000E+00  0.9520E-01
     -0.780  0.0000E+00  0.9520E-01
     -0.709  0.0000E+00  0.9520E-01
     -0.638  0.0000E+00  0.9520E-01
     -0.567  0.6902E-16  0.9520E-01
     -0.496  0.9171E-13  0.9520E-01
     -0.425  0.4547E-10  0.9520E-01
     -0.355  0.8458E-08  0.9520E-01
     -0.284  0.5950E-06  0.9520E-01
     -0.213  0.1599E-04  0.9520E-01
     -0.142  0.1661E-03  0.9521E-01
     -0.071  0.6750E-03  0.9526E-01
      0.000  0.1093E-02  0.9534E-01
      0.071  0.8362E-03  0.9540E-01
      0.142  0.1002E-02  0.9547E-01
      0.213  0.2068E-02  0.9562E-01
      0.284  0.3608E-02  0.9587E-01
      0.355  0.9735E-02  0.9656E-01
      0.426  0.2000E-01  0.9798E-01
      0.497  0.2410E-01  0.9969E-01
      0.568  0.2730E-01  0.1016E+00
      0.639  0.2827E-01  0.1036E+00
      0.709  0.1791E-01  0.1049E+00
      0.780  0.7280E-02  0.1054E+00
      0.851  0.1041E-01  0.1062E+00
      0.922  0.2882E-01  0.1082E+00
      0.993  0.3898E-01  0.1110E+00
      1.064  0.2942E-01  0.1131E+00
      1.135  0.1821E-01  0.1143E+00
      1.206  0.8864E-02  0.1150E+00
      1.277  0.2650E-02  0.1152E+00
      1.348  0.4930E-03  0.1152E+00
      1.419  0.5316E-04  0.1152E+00
      1.490  0.2691E-05  0.1152E+00
      1.561  0.5564E-07  0.1152E+00
      1.632  0.4446E-09  0.1152E+00
      1.703  0.1343E-11  0.1152E+00
      1.773  0.1519E-14  0.1152E+00
      1.844  0.6261E-18  0.1152E+00
      1.915  0.0000E+00  0.1152E+00
      1.986  0.0000E+00  0.1152E+00
      2.057  0.0000E+00  0.1152E+00
      2.128  0.0000E+00  0.1152E+00
      2.199  0.0000E+00  0.1152E+00
