       N       E                     dE             d eps       ncg     rms          rms(c)
DAV:   1     0.770382874941E+04    0.77038E+04   -0.36432E+05  1188   0.114E+03
DAV:   2    -0.247903197740E+03   -0.79517E+04   -0.77136E+04  1584   0.271E+02
DAV:   3    -0.126097270243E+04   -0.10131E+04   -0.99976E+03  1344   0.104E+02
DAV:   4    -0.132092327495E+04   -0.59951E+02   -0.59631E+02  1764   0.301E+01
DAV:   5    -0.132307772479E+04   -0.21544E+01   -0.21442E+01  1740   0.519E+00    0.169E+02
DAV:   6    -0.127630398154E+04    0.46774E+02   -0.96888E+02  1608   0.278E+01    0.924E+01
DAV:   7    -0.129165045609E+04   -0.15346E+02   -0.13127E+03  1776   0.493E+01    0.537E+01
DAV:   8    -0.123580569747E+04    0.55845E+02   -0.95599E+01  1428   0.877E+00    0.312E+01
DAV:   9    -0.124805088984E+04   -0.12245E+02   -0.21372E+02  1788   0.101E+01    0.473E+01
DAV:  10    -0.121851288207E+04    0.29538E+02   -0.84400E+01  1740   0.185E+01    0.212E+01
DAV:  11    -0.122465812204E+04   -0.61452E+01   -0.80887E+01  1632   0.303E+00    0.166E+01
DAV:  12    -0.122393544150E+04    0.72268E+00   -0.36947E+00  1608   0.957E-01    0.159E+01
DAV:  13    -0.122363960205E+04    0.29584E+00   -0.15919E+01  1764   0.260E+00    0.166E+01
DAV:  14    -0.122432053823E+04   -0.68094E+00   -0.48350E+00  1680   0.804E-01    0.205E+01
DAV:  15    -0.122377075477E+04    0.54978E+00   -0.33259E+00  1716   0.717E-01    0.147E+01
DAV:  16    -0.122410706031E+04   -0.33631E+00   -0.15984E+00  1728   0.614E-01    0.177E+01
DAV:  17    -0.122443841788E+04   -0.33136E+00   -0.21832E+00  1524   0.891E-01    0.110E+01
DAV:  18    -0.122414162805E+04    0.29679E+00   -0.24019E-01  1644   0.510E-01    0.993E+00
DAV:  19    -0.122419793947E+04   -0.56311E-01   -0.34722E-02  1656   0.168E-01    0.102E+01
DAV:  20    -0.122357652310E+04    0.62142E+00   -0.78983E-01  1788   0.768E-01    0.791E+00
DAV:  21    -0.122323935028E+04    0.33717E+00   -0.60228E-01  1788   0.514E-01    0.632E+00
DAV:  22    -0.122313366504E+04    0.10569E+00   -0.59266E-02  1728   0.188E-01    0.532E+00
DAV:  23    -0.122312060354E+04    0.13062E-01   -0.77382E-02  1644   0.923E-02    0.535E+00
DAV:  24    -0.122304921846E+04    0.71385E-01   -0.34704E-02  1692   0.150E-01    0.427E+00
DAV:  25    -0.122301898321E+04    0.30235E-01   -0.22747E-02  1728   0.132E-01    0.405E+00
DAV:  26    -0.122294225294E+04    0.76730E-01   -0.12585E-01  1704   0.296E-01    0.249E+00
DAV:  27    -0.122291043747E+04    0.31815E-01   -0.60030E-02  1740   0.201E-01    0.199E+00
DAV:  28    -0.122288392685E+04    0.26511E-01   -0.62196E-02  1740   0.159E-01    0.159E+00
DAV:  29    -0.122287530192E+04    0.86249E-02   -0.29667E-02  1608   0.769E-02    0.132E+00
DAV:  30    -0.122287282289E+04    0.24790E-02   -0.11231E-02  1344   0.353E-02    0.137E+00
DAV:  31    -0.122285906210E+04    0.13761E-01   -0.10053E-02  1560   0.822E-02    0.118E+00
DAV:  32    -0.122284082963E+04    0.18232E-01   -0.99093E-03  1644   0.110E-01    0.101E+00
DAV:  33    -0.122283412549E+04    0.67041E-02   -0.44216E-03  1584   0.679E-02    0.963E-01
DAV:  34    -0.122283353588E+04    0.58961E-03   -0.10512E-03  1272   0.254E-02    0.887E-01
DAV:  35    -0.122283358246E+04   -0.46585E-04   -0.18942E-04   924   0.102E-02
   1 F= -.12533336E+04 E0= -.12532767E+04  d E =-.125333E+04
       N       E                     dE             d eps       ncg     rms          rms(c)
DAV:   1    -0.122303112932E+04   -0.19759E+00   -0.45766E+01  1236   0.494E+00    0.669E+00
DAV:   2    -0.122405473117E+04   -0.10236E+01   -0.71976E+00  1500   0.195E+00    0.165E+01
DAV:   3    -0.122385931320E+04    0.19542E+00   -0.65354E+00  1620   0.177E+00    0.663E+00
DAV:   4    -0.122366541243E+04    0.19390E+00   -0.56852E+00  1704   0.905E-01    0.623E+00
DAV:   5    -0.122346205355E+04    0.20336E+00   -0.29610E+00  1620   0.311E-01    0.370E+00
DAV:   6    -0.122331163749E+04    0.15042E+00   -0.19781E+00  1908   0.750E-01    0.300E+00
DAV:   7    -0.122327486232E+04    0.36775E-01   -0.16882E+00  1584   0.450E-01    0.242E+00
DAV:   8    -0.122324235191E+04    0.32510E-01   -0.24402E-01  1644   0.293E-01    0.259E+00
DAV:   9    -0.122322782224E+04    0.14530E-01   -0.16393E-01  1536   0.158E-01    0.161E+00
DAV:  10    -0.122321479472E+04    0.13028E-01   -0.99687E-02  1608   0.110E-01    0.819E-01
DAV:  11    -0.122321007759E+04    0.47171E-02   -0.67575E-02  1536   0.715E-02    0.778E-01
DAV:  12    -0.122320767170E+04    0.24059E-02   -0.25984E-02  1452   0.627E-02    0.540E-01
DAV:  13    -0.122320518394E+04    0.24878E-02   -0.16157E-02  1320   0.523E-02    0.463E-01
DAV:  14    -0.122320280346E+04    0.23805E-02   -0.76518E-03  1308   0.423E-02    0.298E-01
DAV:  15    -0.122320173108E+04    0.10724E-02   -0.44240E-03  1260   0.389E-02    0.144E-01
DAV:  16    -0.122320142628E+04    0.30481E-03   -0.23707E-03  1140   0.230E-02    0.107E-01
DAV:  17    -0.122320132557E+04    0.10070E-03   -0.10777E-03   960   0.142E-02    0.702E-02
DAV:  18    -0.122320152115E+04   -0.19558E-03   -0.73556E-04   912   0.180E-02    0.163E-01
DAV:  19    -0.122320178994E+04   -0.26878E-03   -0.24774E-04   936   0.165E-02    0.167E-01
DAV:  20    -0.122320215383E+04   -0.36390E-03   -0.19607E-04   936   0.121E-02    0.230E-01
DAV:  21    -0.122320213852E+04    0.15309E-04   -0.65389E-05   816   0.101E-02
   2 F= -.12537572E+04 E0= -.12536904E+04  d E =-.423586E+00
       N       E                     dE             d eps       ncg     rms          rms(c)
DAV:   1    -0.122317381041E+04    0.28343E-01   -0.30758E+00  1260   0.129E+00    0.152E+00
DAV:   2    -0.122319046636E+04   -0.16656E-01   -0.19653E-01  1332   0.390E-01    0.120E+00
DAV:   3    -0.122321552989E+04   -0.25064E-01   -0.11725E-01  1584   0.273E-01    0.152E+00
DAV:   4    -0.122319576167E+04    0.19768E-01   -0.16424E-01  1644   0.298E-01    0.142E+00
DAV:   5    -0.122320247090E+04   -0.67092E-02   -0.21180E-02  1488   0.108E-01    0.134E+00
DAV:   6    -0.122319977872E+04    0.26922E-02   -0.13133E-02  1620   0.766E-02    0.732E-01
DAV:   7    -0.122319487005E+04    0.49087E-02   -0.73323E-03  1320   0.615E-02    0.737E-01
DAV:   8    -0.122319234605E+04    0.25240E-02   -0.55742E-03  1152   0.360E-02    0.533E-01
DAV:   9    -0.122319063018E+04    0.17159E-02   -0.34989E-03  1248   0.325E-02    0.309E-01
DAV:  10    -0.122319068825E+04   -0.58070E-04   -0.33886E-03   996   0.256E-02    0.512E-01
DAV:  11    -0.122318960133E+04    0.10869E-02   -0.30302E-03   972   0.219E-02    0.139E-01
DAV:  12    -0.122318996135E+04   -0.36002E-03   -0.16711E-03   900   0.179E-02    0.463E-01
DAV:  13    -0.122318937808E+04    0.58327E-03   -0.13189E-03   756   0.128E-02    0.158E-01
DAV:  14    -0.122318953720E+04   -0.15912E-03   -0.61830E-04   720   0.872E-03    0.339E-01
DAV:  15    -0.122318930781E+04    0.22939E-03   -0.35530E-04   696   0.673E-03    0.201E-01
DAV:  16    -0.122318933692E+04   -0.29117E-04   -0.15129E-04   696   0.551E-03
   3 F= -.12537596E+04 E0= -.12536946E+04  d E =-.425950E+00
       N       E                     dE             d eps       ncg     rms          rms(c)
DAV:   1    -0.122319884217E+04   -0.95344E-02   -0.68764E-01  1236   0.617E-01    0.696E-01
DAV:   2    -0.122320470217E+04   -0.58600E-02   -0.48545E-02  1344   0.213E-01    0.804E-01
DAV:   3    -0.122323337484E+04   -0.28673E-01   -0.58696E-02  1608   0.178E-01    0.361E+00
DAV:   4    -0.122321457371E+04    0.18801E-01   -0.50467E-02  1452   0.146E-01    0.748E-01
DAV:   5    -0.122321349889E+04    0.10748E-02   -0.96973E-02  1512   0.585E-02    0.132E+00
DAV:   6    -0.122320712620E+04    0.63727E-02   -0.70604E-02  1152   0.435E-02    0.472E-01
DAV:   7    -0.122320706966E+04    0.56538E-04   -0.25983E-02  1044   0.306E-02    0.975E-01
DAV:   8    -0.122320337494E+04    0.36947E-02   -0.21667E-02  1116   0.388E-02    0.150E-01
DAV:   9    -0.122320347817E+04   -0.10324E-03   -0.42959E-03   936   0.219E-02    0.617E-01
DAV:  10    -0.122320243285E+04    0.10453E-02   -0.30233E-03   780   0.169E-02    0.230E-01
DAV:  11    -0.122320243651E+04   -0.36579E-05   -0.11329E-03   768   0.142E-02    0.404E-01
DAV:  12    -0.122320207330E+04    0.36320E-03   -0.82626E-04   696   0.812E-03    0.203E-01
DAV:  13    -0.122320209485E+04   -0.21542E-04   -0.31689E-04   708   0.827E-03
   4 F= -.12537651E+04 E0= -.12536998E+04  d E =-.431480E+00
       N       E                     dE             d eps       ncg     rms          rms(c)
DAV:   1    -0.122316349074E+04    0.38583E-01   -0.31944E+00  1200   0.117E+00    0.101E+00
DAV:   2    -0.122333796970E+04   -0.17448E+00   -0.10421E+00  1704   0.809E-01    0.318E+00
DAV:   3    -0.122319912985E+04    0.13884E+00   -0.63036E-01  1716   0.537E-01    0.152E+00
DAV:   4    -0.122318731596E+04    0.11814E-01   -0.12078E-01  1524   0.113E-01    0.125E+00
DAV:   5    -0.122317323783E+04    0.14078E-01   -0.45136E-02  1704   0.162E-01    0.866E-01
DAV:   6    -0.122317067696E+04    0.25609E-02   -0.17957E-02  1392   0.716E-02    0.635E-01
DAV:   7    -0.122317404244E+04   -0.33655E-02   -0.94786E-03  1440   0.771E-02    0.137E+00
DAV:   8    -0.122316933614E+04    0.47063E-02   -0.36743E-03  1260   0.383E-02    0.407E-01
DAV:   9    -0.122316804878E+04    0.12874E-02   -0.19822E-03  1080   0.324E-02    0.565E-01
DAV:  10    -0.122316741384E+04    0.63494E-03   -0.13785E-03   876   0.183E-02    0.285E-01
DAV:  11    -0.122316753204E+04   -0.11820E-03   -0.89676E-04   732   0.124E-02    0.461E-01
DAV:  12    -0.122316718219E+04    0.34985E-03   -0.59969E-04   720   0.102E-02    0.305E-01
DAV:  13    -0.122316701072E+04    0.17147E-03   -0.36641E-04   780   0.111E-02    0.302E-01
DAV:  14    -0.122316692140E+04    0.89319E-04   -0.20146E-04   708   0.524E-03
   5 F= -.12537329E+04 E0= -.12536661E+04  d E =0.322310E-01
       N       E                     dE             d eps       ncg     rms          rms(c)
DAV:   1    -0.122320138668E+04   -0.34376E-01   -0.20116E+00  1176   0.893E-01    0.480E-01
DAV:   2    -0.122327649103E+04   -0.75104E-01   -0.12830E-01  1608   0.310E-01    0.574E+00
DAV:   3    -0.122322739018E+04    0.49101E-01   -0.54824E-02  1596   0.169E-01    0.997E-01
DAV:   4    -0.122320825876E+04    0.19131E-01   -0.13799E-02  1428   0.756E-02    0.644E-01
DAV:   5    -0.122320574195E+04    0.25168E-02   -0.40466E-03  1092   0.397E-02    0.462E-01
DAV:   6    -0.122320472642E+04    0.10155E-02   -0.26265E-03  1068   0.292E-02    0.347E-01
DAV:   7    -0.122320424343E+04    0.48300E-03   -0.88073E-04  1008   0.279E-02    0.226E-01
DAV:   8    -0.122320401690E+04    0.22652E-03   -0.74240E-04   876   0.187E-02    0.185E-01
DAV:   9    -0.122320380710E+04    0.20981E-03   -0.62948E-04   708   0.128E-02    0.941E-02
DAV:  10    -0.122320378825E+04    0.18845E-04   -0.39902E-04   744   0.104E-02
   6 F= -.12537674E+04 E0= -.12537029E+04  d E =-.229379E-02
       N       E                     dE             d eps       ncg     rms          rms(c)
DAV:   1    -0.122320446927E+04   -0.66217E-03   -0.14298E-01  1200   0.266E-01    0.210E-01
DAV:   2    -0.122321260053E+04   -0.81313E-02   -0.27081E-02  1632   0.133E-01    0.793E-01
DAV:   3    -0.122320458569E+04    0.80148E-02   -0.24316E-02  1476   0.114E-01    0.165E-01
DAV:   4    -0.122320480755E+04   -0.22186E-03   -0.18713E-03   972   0.242E-02    0.223E-01
DAV:   5    -0.122320454531E+04    0.26223E-03   -0.15423E-03   888   0.156E-02    0.118E-01
DAV:   6    -0.122320458229E+04   -0.36976E-04   -0.13631E-03   804   0.152E-02    0.126E-01
DAV:   7    -0.122320452183E+04    0.60460E-04   -0.96414E-04   816   0.138E-02
   7 F= -.12537683E+04 E0= -.12537046E+04  d E =-.928620E-03
       N       E                     dE             d eps       ncg     rms          rms(c)
DAV:   1    -0.122320446474E+04    0.11755E-03   -0.83269E-03  1140   0.619E-02    0.580E-02
DAV:   2    -0.122320473266E+04   -0.26791E-03   -0.23852E-03   924   0.195E-02    0.221E-01
DAV:   3    -0.122320464584E+04    0.86821E-04   -0.28131E-03   924   0.226E-02    0.182E-01
DAV:   4    -0.122320452413E+04    0.12170E-03   -0.84600E-04   768   0.132E-02    0.886E-02
DAV:   5    -0.122320447812E+04    0.46013E-04   -0.33892E-04   732   0.491E-03
   8 F= -.12537683E+04 E0= -.12537047E+04  d E =-.932039E-03
       N       E                     dE             d eps       ncg     rms          rms(c)
DAV:   1    -0.122320474470E+04   -0.22057E-03   -0.75016E-02  1176   0.184E-01    0.137E-01
DAV:   2    -0.122321053567E+04   -0.57910E-02   -0.19033E-02  1452   0.106E-01    0.714E-01
DAV:   3    -0.122320488587E+04    0.56498E-02   -0.14084E-02  1368   0.819E-02    0.160E-01
DAV:   4    -0.122320489910E+04   -0.13234E-04   -0.18952E-03   840   0.134E-02    0.167E-01
DAV:   5    -0.122320482778E+04    0.71318E-04   -0.18733E-03   744   0.103E-02    0.111E-01
DAV:   6    -0.122320480897E+04    0.18812E-04   -0.12639E-03   756   0.128E-02    0.932E-02
DAV:   7    -0.122320482555E+04   -0.16580E-04   -0.11342E-03   828   0.141E-02    0.109E-01
DAV:   8    -0.122320477392E+04    0.51632E-04   -0.67031E-04   684   0.928E-03
   9 F= -.12537688E+04 E0= -.12537044E+04  d E =-.415913E-03
       N       E                     dE             d eps       ncg     rms          rms(c)
DAV:   1    -0.122320475986E+04    0.65692E-04   -0.91801E-04   852   0.167E-02    0.485E-02
DAV:   2    -0.122320495080E+04   -0.19094E-03   -0.16776E-03   744   0.119E-02    0.192E-01
DAV:   3    -0.122320484526E+04    0.10553E-03   -0.24090E-03   804   0.190E-02    0.154E-01
DAV:   4    -0.122320477877E+04    0.66489E-04   -0.89640E-04   756   0.111E-02
  10 F= -.12537688E+04 E0= -.12537053E+04  d E =-.430998E-03
       N       E                     dE             d eps       ncg     rms          rms(c)
DAV:   1    -0.122320510673E+04   -0.26147E-03   -0.30269E-02  1176   0.129E-01    0.701E-02
DAV:   2    -0.122320707778E+04   -0.19710E-02   -0.55929E-03  1284   0.585E-02    0.483E-01
DAV:   3    -0.122320518460E+04    0.18932E-02   -0.37704E-03  1128   0.431E-02    0.879E-02
DAV:   4    -0.122320518539E+04   -0.78774E-06   -0.44773E-04   768   0.875E-03
  11 F= -.12537691E+04 E0= -.12537063E+04  d E =-.355915E-03
       N       E                     dE             d eps       ncg     rms          rms(c)
DAV:   1    -0.122320527807E+04   -0.93464E-04   -0.38696E-02  1176   0.146E-01    0.666E-02
DAV:   2    -0.122320591996E+04   -0.64189E-03   -0.25350E-03  1212   0.415E-02    0.318E-01
DAV:   3    -0.122320533600E+04    0.58396E-03   -0.15271E-03   972   0.241E-02    0.721E-02
DAV:   4    -0.122320535588E+04   -0.19883E-04   -0.32972E-04   696   0.770E-03
  12 F= -.12537692E+04 E0= -.12537059E+04  d E =-.470713E-03
       N       E                     dE             d eps       ncg     rms          rms(c)
DAV:   1    -0.122320555997E+04   -0.22397E-03   -0.22990E-02  1164   0.109E-01    0.819E-02
DAV:   2    -0.122320775975E+04   -0.21998E-02   -0.38093E-03  1236   0.488E-02    0.751E-01
DAV:   3    -0.122320587665E+04    0.18831E-02   -0.33061E-03  1116   0.445E-02    0.184E-01
DAV:   4    -0.122320563729E+04    0.23936E-03   -0.23565E-04   780   0.122E-02    0.939E-02
DAV:   5    -0.122320559499E+04    0.42303E-04   -0.85147E-05   696   0.847E-03
  13 F= -.12537694E+04 E0= -.12537063E+04  d E =-.127180E-03
       N       E                     dE             d eps       ncg     rms          rms(c)
DAV:   1    -0.122320562734E+04    0.99549E-05   -0.37088E-03  1116   0.437E-02    0.577E-02
DAV:   2    -0.122320585526E+04   -0.22792E-03   -0.11958E-03   828   0.151E-02    0.207E-01
DAV:   3    -0.122320577920E+04    0.76064E-04   -0.20317E-03   888   0.234E-02    0.175E-01
DAV:   4    -0.122320563435E+04    0.14485E-03   -0.73557E-04   756   0.130E-02    0.544E-02
DAV:   5    -0.122320561910E+04    0.15245E-04   -0.35414E-04   660   0.408E-03
  14 F= -.12537694E+04 E0= -.12537056E+04  d E =-.106538E-03
       N       E                     dE             d eps       ncg     rms          rms(c)
DAV:   1    -0.122320577087E+04   -0.13652E-03   -0.57870E-03  1116   0.556E-02    0.309E-02
DAV:   2    -0.122320593420E+04   -0.16333E-03   -0.64969E-04   900   0.187E-02    0.166E-01
DAV:   3    -0.122320578548E+04    0.14873E-03   -0.53106E-04   768   0.145E-02    0.516E-02
DAV:   4    -0.122320579610E+04   -0.10624E-04   -0.85951E-05   660   0.526E-03
  15 F= -.12537695E+04 E0= -.12537061E+04  d E =-.146213E-03
       N       E                     dE             d eps       ncg     rms          rms(c)
DAV:   1    -0.122320600514E+04   -0.21966E-03   -0.51688E-02  1176   0.167E-01    0.801E-02
DAV:   2    -0.122320681121E+04   -0.80607E-03   -0.30863E-03  1500   0.527E-02    0.339E-01
DAV:   3    -0.122320616295E+04    0.64825E-03   -0.18974E-03  1092   0.305E-02    0.120E-01
DAV:   4    -0.122320615489E+04    0.80663E-05   -0.23435E-04   696   0.918E-03
  16 F= -.12537698E+04 E0= -.12537068E+04  d E =-.414037E-03
       N       E                     dE             d eps       ncg     rms          rms(c)
DAV:   1    -0.122320614651E+04    0.16447E-04   -0.11102E-02  1128   0.776E-02    0.811E-02
DAV:   2    -0.122320711672E+04   -0.97022E-03   -0.18545E-03  1068   0.335E-02    0.457E-01
DAV:   3    -0.122320639213E+04    0.72460E-03   -0.24503E-03  1092   0.389E-02    0.206E-01
DAV:   4    -0.122320613301E+04    0.25912E-03   -0.18609E-04   744   0.111E-02    0.465E-02
DAV:   5    -0.122320614289E+04   -0.98854E-05   -0.11573E-04   660   0.548E-03
  17 F= -.12537697E+04 E0= -.12537064E+04  d E =-.360485E-03
       N       E                     dE             d eps       ncg     rms          rms(c)
DAV:   1    -0.122320624119E+04   -0.10818E-03   -0.16709E-02  1176   0.100E-01    0.394E-02
DAV:   2    -0.122320636616E+04   -0.12497E-03   -0.64285E-04   960   0.226E-02    0.132E-01
DAV:   3    -0.122320628978E+04    0.76379E-04   -0.36025E-04   744   0.142E-02
  18 F= -.12537699E+04 E0= -.12537048E+04  d E =-.146116E-03
       N       E                     dE             d eps       ncg     rms          rms(c)
DAV:   1    -0.122320631333E+04    0.52833E-04   -0.14354E-02  1176   0.933E-02    0.762E-02
DAV:   2    -0.122320723928E+04   -0.92595E-03   -0.14491E-03  1032   0.310E-02    0.469E-01
DAV:   3    -0.122320672582E+04    0.51346E-03   -0.24281E-03  1056   0.371E-02    0.227E-01
DAV:   4    -0.122320640649E+04    0.31933E-03   -0.35243E-04   744   0.129E-02    0.115E-01
DAV:   5    -0.122320631915E+04    0.87349E-04   -0.75105E-05   660   0.679E-03
  19 F= -.12537699E+04 E0= -.12537065E+04  d E =-.175196E-03
       N       E                     dE             d eps       ncg     rms          rms(c)
DAV:   1    -0.122320642987E+04   -0.23376E-04   -0.13676E-02  1176   0.950E-02    0.552E-02
DAV:   2    -0.122320684428E+04   -0.41441E-03   -0.96141E-04  1032   0.285E-02    0.270E-01
DAV:   3    -0.122320657878E+04    0.26549E-03   -0.12587E-03   888   0.257E-02    0.158E-01
DAV:   4    -0.122320650349E+04    0.75298E-04   -0.29617E-04   708   0.113E-02
  20 F= -.12537701E+04 E0= -.12537076E+04  d E =-.243476E-03
       N       E                     dE             d eps       ncg     rms          rms(c)
DAV:   1    -0.122320638586E+04    0.19293E-03   -0.12450E-01  1152   0.286E-01    0.114E-01
DAV:   2    -0.122320716530E+04   -0.77944E-03   -0.35827E-03  1668   0.609E-02    0.334E-01
DAV:   3    -0.122320698297E+04    0.18233E-03   -0.25607E-03  1188   0.359E-02    0.305E-01
DAV:   4    -0.122320676103E+04    0.22194E-03   -0.11371E-03   960   0.240E-02    0.188E-01
DAV:   5    -0.122320663851E+04    0.12252E-03   -0.40800E-04   960   0.179E-02    0.152E-01
DAV:   6    -0.122320656418E+04    0.74337E-04   -0.10964E-04   708   0.105E-02
  21 F= -.12537704E+04 E0= -.12537059E+04  d E =-.483524E-03
       N       E                     dE             d eps       ncg     rms          rms(c)
DAV:   1    -0.122320665531E+04   -0.16798E-04   -0.97639E-03  1164   0.794E-02    0.107E-01
DAV:   2    -0.122320874273E+04   -0.20874E-02   -0.43674E-03  1200   0.506E-02    0.560E-01
DAV:   3    -0.122320732459E+04    0.14181E-02   -0.62184E-03  1176   0.550E-02    0.328E-01
DAV:   4    -0.122320694539E+04    0.37920E-03   -0.10015E-03   792   0.180E-02    0.201E-01
DAV:   5    -0.122320673660E+04    0.20879E-03   -0.27948E-04   696   0.895E-03    0.114E-01
DAV:   6    -0.122320667016E+04    0.66437E-04   -0.16850E-04   696   0.957E-03
  22 F= -.12537706E+04 E0= -.12537067E+04  d E =-.190151E-03
       N       E                     dE             d eps       ncg     rms          rms(c)
DAV:   1    -0.122320672130E+04    0.15299E-04   -0.89576E-02  1176   0.236E-01    0.165E-01
DAV:   2    -0.122321249415E+04   -0.57729E-02   -0.16024E-02  1644   0.109E-01    0.801E-01
DAV:   3    -0.122320750337E+04    0.49908E-02   -0.15213E-02  1404   0.848E-02    0.273E-01
DAV:   4    -0.122320732912E+04    0.17425E-03   -0.15533E-03   900   0.200E-02    0.270E-01
DAV:   5    -0.122320702027E+04    0.30885E-03   -0.11546E-03   852   0.219E-02    0.155E-01
DAV:   6    -0.122320686685E+04    0.15342E-03   -0.63937E-04   792   0.196E-02    0.122E-01
DAV:   7    -0.122320682333E+04    0.43519E-04   -0.64549E-04   672   0.927E-03
  23 F= -.12537710E+04 E0= -.12537058E+04  d E =-.597630E-03
       N       E                     dE             d eps       ncg     rms          rms(c)
DAV:   1    -0.122320575896E+04    0.11079E-02   -0.35710E-01  1176   0.473E-01    0.225E-01
DAV:   2    -0.122321374263E+04   -0.79837E-02   -0.30178E-02  1596   0.163E-01    0.781E-01
DAV:   3    -0.122320644931E+04    0.72933E-02   -0.21298E-02  1512   0.110E-01    0.229E-01
DAV:   4    -0.122320652046E+04   -0.71145E-04   -0.62745E-04   912   0.187E-02
  24 F= -.12537712E+04 E0= -.12537100E+04  d E =-.811490E-03
       N       E                     dE             d eps       ncg     rms          rms(c)
DAV:   1    -0.122320661977E+04   -0.17046E-03   -0.71295E-02  1176   0.212E-01    0.194E-01
DAV:   2    -0.122321245450E+04   -0.58347E-02   -0.97676E-03  1680   0.856E-02    0.123E+00
DAV:   3    -0.122320877146E+04    0.36830E-02   -0.14324E-02  1392   0.881E-02    0.480E-01
DAV:   4    -0.122320671709E+04    0.20544E-02   -0.21667E-03  1044   0.317E-02    0.767E-02
DAV:   5    -0.122320670071E+04    0.16385E-04   -0.97004E-04   720   0.125E-02
  25 F= -.12537711E+04 E0= -.12537089E+04  d E =-.762468E-03
       N       E                     dE             d eps       ncg     rms          rms(c)
DAV:   1    -0.122320671049E+04    0.66068E-05   -0.41301E-02  1176   0.160E-01    0.857E-02
DAV:   2    -0.122320791057E+04   -0.12001E-02   -0.40542E-03  1500   0.531E-02    0.513E-01
DAV:   3    -0.122320703576E+04    0.87481E-03   -0.33002E-03  1080   0.385E-02    0.203E-01
DAV:   4    -0.122320676892E+04    0.26684E-03   -0.33676E-04   756   0.129E-02    0.754E-02
DAV:   5    -0.122320675269E+04    0.16227E-04   -0.29791E-04   660   0.610E-03
  26 F= -.12537710E+04 E0= -.12537072E+04  d E =-.640062E-03
       N       E                     dE             d eps       ncg     rms          rms(c)
DAV:   1    -0.122320685950E+04   -0.90585E-04   -0.23584E-02  1176   0.118E-01    0.734E-02
DAV:   2    -0.122320706301E+04   -0.20351E-03   -0.15537E-03  1404   0.310E-02    0.158E-01
DAV:   3    -0.122320724548E+04   -0.18247E-03   -0.17349E-03   948   0.260E-02    0.264E-01
DAV:   4    -0.122320701860E+04    0.22689E-03   -0.75412E-04   828   0.205E-02    0.120E-01
DAV:   5    -0.122320695861E+04    0.59991E-04   -0.47843E-05   672   0.579E-03
  27 F= -.12537713E+04 E0= -.12537077E+04  d E =-.273728E-03
       N       E                     dE             d eps       ncg     rms          rms(c)
DAV:   1    -0.122320694419E+04    0.74406E-04   -0.14313E-02  1164   0.926E-02    0.801E-02
DAV:   2    -0.122320719432E+04   -0.25013E-03   -0.63099E-04  1116   0.234E-02    0.220E-01
DAV:   3    -0.122320726886E+04   -0.74539E-04   -0.79973E-04   876   0.199E-02
  28 F= -.12537716E+04 E0= -.12537113E+04  d E =-.638075E-03
       N       E                     dE             d eps       ncg     rms          rms(c)
DAV:   1    -0.122320704903E+04    0.14529E-03   -0.21934E-03  1224   0.373E-02    0.134E-01
DAV:   2    -0.122321235758E+04   -0.53086E-02   -0.11316E-02  1320   0.748E-02    0.790E-01
DAV:   3    -0.122320755555E+04    0.48020E-02   -0.11526E-02  1248   0.758E-02    0.214E-01
DAV:   4    -0.122320721729E+04    0.33825E-03   -0.63612E-04   888   0.166E-02    0.177E-01
DAV:   5    -0.122320699225E+04    0.22505E-03   -0.25455E-04   744   0.128E-02    0.706E-02
DAV:   6    -0.122320698133E+04    0.10914E-04   -0.17958E-04   720   0.925E-03
  29 F= -.12537714E+04 E0= -.12537079E+04  d E =-.368218E-03
       N       E                     dE             d eps       ncg     rms          rms(c)
DAV:   1    -0.122320698153E+04    0.10716E-04   -0.18879E-02  1176   0.108E-01    0.756E-02
DAV:   2    -0.122320714697E+04   -0.16544E-03   -0.21464E-03  1296   0.244E-02    0.167E-01
DAV:   3    -0.122320725395E+04   -0.10699E-03   -0.32293E-03   840   0.202E-02    0.204E-01
DAV:   4    -0.122320708966E+04    0.16430E-03   -0.16440E-03   828   0.193E-02    0.110E-01
DAV:   5    -0.122320705594E+04    0.33720E-04   -0.52472E-04   672   0.729E-03
  30 F= -.12537715E+04 E0= -.12537084E+04  d E =-.124279E-03
       N       E                     dE             d eps       ncg     rms          rms(c)
DAV:   1    -0.122320674194E+04    0.34772E-03   -0.13826E-01  1176   0.293E-01    0.152E-01
DAV:   2    -0.122320713784E+04   -0.39590E-03   -0.40021E-03  1680   0.630E-02    0.185E-01
DAV:   3    -0.122320876901E+04   -0.16312E-02   -0.51189E-03  1236   0.501E-02    0.478E-01
DAV:   4    -0.122320708044E+04    0.16886E-02   -0.29518E-03  1092   0.402E-02    0.101E-01
DAV:   5    -0.122320707115E+04    0.92899E-05   -0.26353E-04   768   0.109E-02
  31 F= -.12537717E+04 E0= -.12537084E+04  d E =-.275707E-03
       N       E                     dE             d eps       ncg     rms          rms(c)
DAV:   1    -0.122320704989E+04    0.30552E-04   -0.19519E-02  1176   0.114E-01    0.567E-02
DAV:   2    -0.122320771857E+04   -0.66868E-03   -0.17434E-03  1200   0.389E-02    0.315E-01
DAV:   3    -0.122320707088E+04    0.64769E-03   -0.10377E-03   960   0.262E-02    0.459E-02
DAV:   4    -0.122320710944E+04   -0.38564E-04   -0.74163E-05   672   0.841E-03
  32 F= -.12537718E+04 E0= -.12537087E+04  d E =-.104972E-03
       N       E                     dE             d eps       ncg     rms          rms(c)
DAV:   1    -0.122320698433E+04    0.86550E-04   -0.54672E-02  1176   0.189E-01    0.768E-02
DAV:   2    -0.122320709758E+04   -0.11325E-03   -0.13268E-03  1476   0.359E-02    0.900E-02
DAV:   3    -0.122320713517E+04   -0.37584E-04   -0.42998E-04   792   0.133E-02
  33 F= -.12537719E+04 E0= -.12537098E+04  d E =-.240792E-03
       N       E                     dE             d eps       ncg     rms          rms(c)
DAV:   1    -0.122320730007E+04   -0.20249E-03   -0.14256E-02  1212   0.104E-01    0.151E-01
DAV:   2    -0.122321557221E+04   -0.82721E-02   -0.24517E-02  1464   0.108E-01    0.823E-01
DAV:   3    -0.122320756556E+04    0.80066E-02   -0.18642E-02  1380   0.965E-02    0.201E-01
DAV:   4    -0.122320741034E+04    0.15522E-03   -0.11766E-03   948   0.159E-02    0.176E-01
DAV:   5    -0.122320731148E+04    0.98857E-04   -0.10096E-03   732   0.147E-02    0.126E-01
DAV:   6    -0.122320727190E+04    0.39588E-04   -0.75735E-04   672   0.107E-02
  34 F= -.12537721E+04 E0= -.12537089E+04  d E =-.161330E-03
       N       E                     dE             d eps       ncg     rms          rms(c)
DAV:   1    -0.122320730610E+04    0.53848E-05   -0.59290E-02  1176   0.207E-01    0.107E-01
DAV:   2    -0.122321056243E+04   -0.32563E-02   -0.66397E-03  1536   0.644E-02    0.935E-01
DAV:   3    -0.122320790811E+04    0.26543E-02   -0.53076E-03  1236   0.518E-02    0.238E-01
DAV:   4    -0.122320742543E+04    0.48268E-03   -0.35979E-04   828   0.142E-02    0.109E-01
DAV:   5    -0.122320736385E+04    0.61578E-04   -0.29084E-04   684   0.933E-03
  35 F= -.12537722E+04 E0= -.12537091E+04  d E =-.304676E-03
       N       E                     dE             d eps       ncg     rms          rms(c)
DAV:   1    -0.122320742640E+04   -0.96870E-06   -0.96934E-03  1164   0.781E-02    0.763E-02
DAV:   2    -0.122320766873E+04   -0.24233E-03   -0.14403E-03   840   0.184E-02    0.216E-01
DAV:   3    -0.122320748694E+04    0.18180E-03   -0.20494E-03   792   0.163E-02    0.121E-01
DAV:   4    -0.122320749488E+04   -0.79453E-05   -0.13267E-03   792   0.156E-02    0.117E-01
DAV:   5    -0.122320741362E+04    0.81263E-04   -0.66759E-04   720   0.855E-03
  36 F= -.12537723E+04 E0= -.12537088E+04  d E =-.858455E-04
       N       E                     dE             d eps       ncg     rms          rms(c)
DAV:   1    -0.122320741755E+04    0.77333E-04   -0.14755E-02  1176   0.959E-02    0.746E-02
DAV:   2    -0.122320852413E+04   -0.11066E-02   -0.31971E-03  1212   0.403E-02    0.511E-01
DAV:   3    -0.122320775254E+04    0.77159E-03   -0.31400E-03  1068   0.365E-02    0.199E-01
DAV:   4    -0.122320751514E+04    0.23739E-03   -0.23616E-04   732   0.117E-02    0.110E-01
DAV:   5    -0.122320743187E+04    0.83270E-04   -0.10912E-04   708   0.750E-03
  37 F= -.12537723E+04 E0= -.12537089E+04  d E =-.148572E-03
       N       E                     dE             d eps       ncg     rms          rms(c)
DAV:   1    -0.122320746766E+04    0.47480E-04   -0.43899E-03  1128   0.530E-02    0.609E-02
DAV:   2    -0.122320767489E+04   -0.20723E-03   -0.25435E-04   852   0.164E-02    0.206E-01
DAV:   3    -0.122320771593E+04   -0.41036E-04   -0.68339E-04   804   0.195E-02
  38 F= -.12537727E+04 E0= -.12537053E+04  d E =-.346148E-03
       N       E                     dE             d eps       ncg     rms          rms(c)
DAV:   1    -0.122320740714E+04    0.26775E-03   -0.40541E-02  1176   0.161E-01    0.115E-01
DAV:   2    -0.122320909587E+04   -0.16887E-02   -0.25329E-03  1560   0.469E-02    0.642E-01
DAV:   3    -0.122320831602E+04    0.77985E-03   -0.42741E-03  1236   0.465E-02    0.311E-01
DAV:   4    -0.122320763133E+04    0.68469E-03   -0.87232E-04   876   0.192E-02    0.161E-01
DAV:   5    -0.122320745559E+04    0.17574E-03   -0.12285E-04   708   0.822E-03    0.500E-02
DAV:   6    -0.122320746393E+04   -0.83400E-05   -0.69611E-05   660   0.782E-03
  39 F= -.12537726E+04 E0= -.12537082E+04  d E =-.280651E-03
       N       E                     dE             d eps       ncg     rms          rms(c)
DAV:   1    -0.122320655486E+04    0.90073E-03   -0.15933E-01  1176   0.317E-01    0.189E-01
DAV:   2    -0.122320998512E+04   -0.34303E-02   -0.14211E-02  1680   0.103E-01    0.589E-01
DAV:   3    -0.122320769804E+04    0.22871E-02   -0.14991E-02  1440   0.820E-02    0.452E-01
DAV:   4    -0.122320730711E+04    0.39093E-03   -0.27513E-03  1068   0.306E-02    0.251E-01
DAV:   5    -0.122320707495E+04    0.23216E-03   -0.92618E-04   732   0.130E-02    0.177E-01
DAV:   6    -0.122320689404E+04    0.18090E-03   -0.95852E-04   732   0.160E-02    0.102E-01
DAV:   7    -0.122320693038E+04   -0.36338E-04   -0.11745E-03   780   0.107E-02    0.137E-01
DAV:   8    -0.122320685572E+04    0.74658E-04   -0.78241E-04   672   0.985E-03
  40 F= -.12537724E+04 E0= -.12537085E+04  d E =-.466476E-04
       N       E                     dE             d eps       ncg     rms          rms(c)
DAV:   1    -0.122320718069E+04   -0.25031E-03   -0.81713E-02  1176   0.227E-01    0.127E-01
DAV:   2    -0.122320761430E+04   -0.43361E-03   -0.38959E-03  1620   0.533E-02    0.225E-01
DAV:   3    -0.122320860566E+04   -0.99136E-03   -0.55588E-03  1236   0.419E-02    0.558E-01
DAV:   4    -0.122320760394E+04    0.10017E-02   -0.28546E-03   996   0.359E-02    0.182E-01
DAV:   5    -0.122320743864E+04    0.16530E-03   -0.27859E-04   720   0.103E-02    0.118E-01
DAV:   6    -0.122320736102E+04    0.77625E-04   -0.21276E-04   708   0.834E-03
  41 F= -.12537726E+04 E0= -.12537092E+04  d E =-.286138E-03
       N       E                     dE             d eps       ncg     rms          rms(c)
DAV:   1    -0.122320741191E+04    0.26728E-04   -0.21075E-03  1104   0.370E-02    0.673E-02
DAV:   2    -0.122320795444E+04   -0.54253E-03   -0.81224E-04   864   0.212E-02    0.321E-01
DAV:   3    -0.122320778419E+04    0.17025E-03   -0.19306E-03   936   0.297E-02    0.269E-01
DAV:   4    -0.122320750644E+04    0.27776E-03   -0.54865E-04   744   0.142E-02    0.121E-01
DAV:   5    -0.122320741344E+04    0.92991E-04   -0.94455E-05   660   0.583E-03
  42 F= -.12537726E+04 E0= -.12537086E+04  d E =-.294118E-03
       N       E                     dE             d eps       ncg     rms          rms(c)
DAV:   1    -0.122320744695E+04    0.59490E-04   -0.13853E-02  1164   0.949E-02    0.665E-02
DAV:   2    -0.122320763185E+04   -0.18490E-03   -0.54893E-04   996   0.219E-02    0.185E-01
DAV:   3    -0.122320767761E+04   -0.45763E-04   -0.59058E-04   840   0.180E-02
  43 F= -.12537730E+04 E0= -.12537122E+04  d E =-.365446E-03
       N       E                     dE             d eps       ncg     rms          rms(c)
DAV:   1    -0.122320752741E+04    0.10443E-03   -0.12622E-02  1188   0.915E-02    0.139E-01
DAV:   2    -0.122321268700E+04   -0.51596E-02   -0.10952E-02  1440   0.763E-02    0.777E-01
DAV:   3    -0.122320807664E+04    0.46104E-02   -0.11939E-02  1320   0.768E-02    0.231E-01
DAV:   4    -0.122320785612E+04    0.22052E-03   -0.84535E-04   888   0.182E-02    0.224E-01
DAV:   5    -0.122320755869E+04    0.29744E-03   -0.46770E-04   792   0.179E-02    0.950E-02
DAV:   6    -0.122320749605E+04    0.62636E-04   -0.12815E-04   720   0.111E-02
  44 F= -.12537729E+04 E0= -.12537096E+04  d E =-.278930E-03
       N       E                     dE             d eps       ncg     rms          rms(c)
DAV:   1    -0.122320752446E+04    0.34228E-04   -0.20474E-02  1152   0.120E-01    0.642E-02
DAV:   2    -0.122320854037E+04   -0.10159E-02   -0.25488E-03  1260   0.427E-02    0.379E-01
DAV:   3    -0.122320760701E+04    0.93336E-03   -0.19481E-03  1068   0.331E-02    0.840E-02
DAV:   4    -0.122320763896E+04   -0.31943E-04   -0.10737E-04   720   0.881E-03
  45 F= -.12537731E+04 E0= -.12537100E+04  d E =-.226507E-03
       N       E                     dE             d eps       ncg     rms          rms(c)
DAV:   1    -0.122320745832E+04    0.14869E-03   -0.32494E-02  1152   0.151E-01    0.669E-02
DAV:   2    -0.122320790231E+04   -0.44399E-03   -0.15709E-03  1440   0.369E-02    0.291E-01
DAV:   3    -0.122320759076E+04    0.31155E-03   -0.12241E-03  1020   0.250E-02    0.133E-01
DAV:   4    -0.122320752764E+04    0.63121E-04   -0.14308E-04   672   0.896E-03
  46 F= -.12537731E+04 E0= -.12537093E+04  d E =-.220339E-03
       N       E                     dE             d eps       ncg     rms          rms(c)
DAV:   1    -0.122320755988E+04    0.30884E-04   -0.75143E-03  1164   0.722E-02    0.738E-02
DAV:   2    -0.122320772679E+04   -0.16692E-03   -0.11514E-03   816   0.147E-02    0.190E-01
DAV:   3    -0.122320764643E+04    0.80365E-04   -0.15123E-03   660   0.862E-03    0.117E-01
DAV:   4    -0.122320765670E+04   -0.10269E-04   -0.93989E-04   708   0.104E-02
  47 F= -.12537733E+04 E0= -.12537077E+04  d E =-.202124E-03
       N       E                     dE             d eps       ncg     rms          rms(c)
DAV:   1    -0.122320745250E+04    0.19393E-03   -0.67064E-02  1152   0.216E-01    0.913E-02
DAV:   2    -0.122320770654E+04   -0.25404E-03   -0.23063E-03  1596   0.397E-02    0.192E-01
DAV:   3    -0.122320763959E+04    0.66947E-04   -0.12996E-03   888   0.105E-02    0.136E-01
DAV:   4    -0.122320785961E+04   -0.22002E-03   -0.14315E-03   864   0.200E-02    0.271E-01
DAV:   5    -0.122320757575E+04    0.28386E-03   -0.76529E-04   804   0.156E-02    0.771E-02
DAV:   6    -0.122320756851E+04    0.72335E-05   -0.76923E-05   672   0.735E-03
  48 F= -.12537735E+04 E0= -.12537091E+04  d E =-.333383E-03
       N       E                     dE             d eps       ncg     rms          rms(c)
DAV:   1    -0.122320663981E+04    0.93594E-03   -0.26672E-01  1152   0.433E-01    0.167E-01
DAV:   2    -0.122320919271E+04   -0.25529E-02   -0.10711E-02  1692   0.105E-01    0.500E-01
DAV:   3    -0.122320754438E+04    0.16483E-02   -0.81348E-03  1392   0.680E-02    0.365E-01
DAV:   4    -0.122320720799E+04    0.33638E-03   -0.10164E-03  1140   0.276E-02    0.192E-01
DAV:   5    -0.122320706128E+04    0.14672E-03   -0.19505E-04   948   0.129E-02    0.133E-01
DAV:   6    -0.122320706926E+04   -0.79886E-05   -0.23272E-04   924   0.171E-02
  49 F= -.12537734E+04 E0= -.12537085E+04  d E =-.273981E-03
       N       E                     dE             d eps       ncg     rms          rms(c)
DAV:   1    -0.122320723513E+04   -0.17385E-03   -0.74897E-02  1152   0.229E-01    0.976E-02
DAV:   2    -0.122320766784E+04   -0.43271E-03   -0.22521E-03  1608   0.475E-02    0.249E-01
DAV:   3    -0.122320787805E+04   -0.21021E-03   -0.15770E-03  1044   0.268E-02    0.339E-01
DAV:   4    -0.122320757212E+04    0.30593E-03   -0.11726E-03   900   0.247E-02    0.180E-01
DAV:   5    -0.122320740789E+04    0.16423E-03   -0.20817E-04   684   0.103E-02    0.100E-01
DAV:   6    -0.122320736579E+04    0.42104E-04   -0.14367E-04   684   0.811E-03
  50 F= -.12537735E+04 E0= -.12537101E+04  d E =-.339172E-03
       N       E                     dE             d eps       ncg     rms          rms(c)
DAV:   1    -0.122320744906E+04   -0.41167E-04   -0.32449E-02  1152   0.143E-01    0.924E-02
DAV:   2    -0.122320878131E+04   -0.13322E-02   -0.38084E-03  1452   0.525E-02    0.448E-01
DAV:   3    -0.122320790266E+04    0.87865E-03   -0.43539E-03  1152   0.433E-02    0.257E-01
DAV:   4    -0.122320769666E+04    0.20600E-03   -0.84463E-04   780   0.173E-02    0.171E-01
DAV:   5    -0.122320754746E+04    0.14920E-03   -0.19758E-04   708   0.763E-03    0.842E-02
DAV:   6    -0.122320750085E+04    0.46606E-04   -0.15944E-04   660   0.100E-02
  51 F= -.12537738E+04 E0= -.12537102E+04  d E =-.307967E-03
       N       E                     dE             d eps       ncg     rms          rms(c)
DAV:   1    -0.122320693527E+04    0.61219E-03   -0.20853E-01  1152   0.364E-01    0.181E-01
DAV:   2    -0.122321119116E+04   -0.42559E-02   -0.15242E-02  1644   0.116E-01    0.687E-01
DAV:   3    -0.122320803509E+04    0.31561E-02   -0.13489E-02  1416   0.792E-02    0.367E-01
DAV:   4    -0.122320773750E+04    0.29759E-03   -0.18551E-03   924   0.238E-02    0.270E-01
DAV:   5    -0.122320750061E+04    0.23689E-03   -0.79259E-04   744   0.156E-02    0.182E-01
DAV:   6    -0.122320732609E+04    0.17452E-03   -0.90583E-04   900   0.238E-02    0.136E-01
DAV:   7    -0.122320729022E+04    0.35864E-04   -0.92458E-04   660   0.114E-02
  52 F= -.12537740E+04 E0= -.12537089E+04  d E =-.542526E-03
       N       E                     dE             d eps       ncg     rms          rms(c)
DAV:   1    -0.122320727583E+04    0.50259E-04   -0.35305E-02  1152   0.151E-01    0.795E-02
DAV:   2    -0.122320766673E+04   -0.39090E-03   -0.28933E-03  1524   0.408E-02    0.239E-01
DAV:   3    -0.122320759947E+04    0.67257E-04   -0.27193E-03  1008   0.296E-02    0.238E-01
DAV:   4    -0.122320739315E+04    0.20632E-03   -0.71667E-04   816   0.189E-02    0.104E-01
DAV:   5    -0.122320735532E+04    0.37830E-04   -0.18146E-04   624   0.596E-03
  53 F= -.12537742E+04 E0= -.12537105E+04  d E =-.202441E-03
       N       E                     dE             d eps       ncg     rms          rms(c)
DAV:   1    -0.122320678622E+04    0.60693E-03   -0.27347E-01  1152   0.421E-01    0.208E-01
DAV:   2    -0.122320756504E+04   -0.77882E-03   -0.93258E-03  1692   0.887E-02    0.243E-01
DAV:   3    -0.122320919285E+04   -0.16278E-02   -0.88723E-03  1272   0.514E-02    0.703E-01
DAV:   4    -0.122320781741E+04    0.13754E-02   -0.71242E-03  1248   0.498E-02    0.275E-01
DAV:   5    -0.122320738066E+04    0.43676E-03   -0.13964E-03   924   0.164E-02    0.151E-01
DAV:   6    -0.122320729366E+04    0.86997E-04   -0.12028E-03   768   0.106E-02    0.981E-02
DAV:   7    -0.122320730025E+04   -0.65942E-05   -0.76146E-04   840   0.111E-02
  54 F= -.12537746E+04 E0= -.12537100E+04  d E =-.532087E-03
       N       E                     dE             d eps       ncg     rms          rms(c)
DAV:   1    -0.122320758186E+04   -0.28820E-03   -0.53172E-02  1152   0.184E-01    0.913E-02
DAV:   2    -0.122320792470E+04   -0.34284E-03   -0.36944E-03  1524   0.414E-02    0.233E-01
DAV:   3    -0.122320803464E+04   -0.10994E-03   -0.39040E-03   936   0.231E-02    0.236E-01
DAV:   4    -0.122320788154E+04    0.15309E-03   -0.21646E-03   864   0.244E-02    0.199E-01
DAV:   5    -0.122320772051E+04    0.16103E-03   -0.57297E-04   720   0.107E-02    0.804E-02
DAV:   6    -0.122320769779E+04    0.22722E-04   -0.14810E-04   648   0.631E-03
  55 F= -.12537751E+04 E0= -.12537114E+04  d E =-.523671E-03
       N       E                     dE             d eps       ncg     rms          rms(c)
DAV:   1    -0.122320751321E+04    0.20730E-03   -0.10807E-01  1152   0.263E-01    0.123E-01
DAV:   2    -0.122320806053E+04   -0.54731E-03   -0.49599E-03  1644   0.588E-02    0.280E-01
DAV:   3    -0.122320853725E+04   -0.47673E-03   -0.49563E-03  1188   0.362E-02    0.347E-01
DAV:   4    -0.122320792666E+04    0.61059E-03   -0.26834E-03  1080   0.333E-02    0.198E-01
DAV:   5    -0.122320778675E+04    0.13991E-03   -0.35849E-04   756   0.115E-02    0.120E-01
DAV:   6    -0.122320773404E+04    0.52713E-04   -0.11188E-04   684   0.868E-03
  56 F= -.12537753E+04 E0= -.12537120E+04  d E =-.741908E-03
       N       E                     dE             d eps       ncg     rms          rms(c)
DAV:   1    -0.122320775182E+04    0.34927E-04   -0.81476E-02  1152   0.232E-01    0.889E-02
DAV:   2    -0.122320799278E+04   -0.24095E-03   -0.21512E-03  1536   0.435E-02    0.155E-01
DAV:   3    -0.122320807609E+04   -0.83311E-04   -0.67437E-04   780   0.165E-02
  57 F= -.12537759E+04 E0= -.12537149E+04  d E =-.572767E-03
       N       E                     dE             d eps       ncg     rms          rms(c)
DAV:   1    -0.122320791226E+04    0.80521E-04   -0.70085E-02  1152   0.215E-01    0.218E-01
DAV:   2    -0.122321917377E+04   -0.11262E-01   -0.30015E-02  1668   0.126E-01    0.104E+00
DAV:   3    -0.122320894876E+04    0.10225E-01   -0.27933E-02  1452   0.120E-01    0.290E-01
DAV:   4    -0.122320846295E+04    0.48581E-03   -0.20496E-03  1008   0.251E-02    0.285E-01
DAV:   5    -0.122320800318E+04    0.45977E-03   -0.76508E-04   936   0.203E-02    0.137E-01
DAV:   6    -0.122320801624E+04   -0.13064E-04   -0.77815E-04   852   0.171E-02
  58 F= -.12537760E+04 E0= -.12537148E+04  d E =-.725981E-03
       N       E                     dE             d eps       ncg     rms          rms(c)
DAV:   1    -0.122320803817E+04   -0.34991E-04   -0.11050E-01  1152   0.270E-01    0.149E-01
DAV:   2    -0.122320891391E+04   -0.87574E-03   -0.69714E-03  1608   0.579E-02    0.382E-01
DAV:   3    -0.122320851775E+04    0.39616E-03   -0.64345E-03   888   0.143E-02    0.188E-01
DAV:   4    -0.122320859099E+04   -0.73242E-04   -0.49730E-03   840   0.159E-02    0.276E-01
DAV:   5    -0.122320829619E+04    0.29480E-03   -0.25995E-03   792   0.179E-02    0.138E-01
DAV:   6    -0.122320821454E+04    0.81646E-04   -0.58134E-04   720   0.120E-02
  59 F= -.12537765E+04 E0= -.12537137E+04  d E =-.444639E-03
       N       E                     dE             d eps       ncg     rms          rms(c)
DAV:   1    -0.122320797781E+04    0.31838E-03   -0.10341E-01  1152   0.261E-01    0.150E-01
DAV:   2    -0.122321063128E+04   -0.26535E-02   -0.74869E-03  1644   0.766E-02    0.770E-01
DAV:   3    -0.122320924868E+04    0.13826E-02   -0.79670E-03  1260   0.639E-02    0.374E-01
DAV:   4    -0.122320809501E+04    0.11537E-02   -0.12206E-03   936   0.281E-02    0.753E-02
DAV:   5    -0.122320808111E+04    0.13901E-04   -0.38105E-04   720   0.912E-03
  60 F= -.12537766E+04 E0= -.12537134E+04  d E =-.551681E-03
       N       E                     dE             d eps       ncg     rms          rms(c)
DAV:   1    -0.122320807141E+04    0.23602E-04   -0.11346E-01  1152   0.267E-01    0.138E-01
DAV:   2    -0.122321065700E+04   -0.25856E-02   -0.97034E-03  1656   0.805E-02    0.791E-01
DAV:   3    -0.122320888459E+04    0.17724E-02   -0.85907E-03  1272   0.534E-02    0.292E-01
DAV:   4    -0.122320839296E+04    0.49163E-03   -0.13649E-03   840   0.185E-02    0.156E-01
DAV:   5    -0.122320831903E+04    0.73927E-04   -0.12640E-03   696   0.110E-02    0.127E-01
DAV:   6    -0.122320826678E+04    0.52252E-04   -0.90463E-04   732   0.101E-02
  61 F= -.12537770E+04 E0= -.12537129E+04  d E =-.461013E-03
       N       E                     dE             d eps       ncg     rms          rms(c)
DAV:   1    -0.122320822872E+04    0.90317E-04   -0.11720E-02  1152   0.827E-02    0.126E-01
DAV:   2    -0.122320890166E+04   -0.67294E-03   -0.90650E-03   900   0.228E-02    0.375E-01
DAV:   3    -0.122320867145E+04    0.23021E-03   -0.12376E-02   972   0.285E-02    0.259E-01
DAV:   4    -0.122320833865E+04    0.33280E-03   -0.48863E-03   852   0.187E-02    0.142E-01
DAV:   5    -0.122320823138E+04    0.10727E-03   -0.26010E-03   672   0.933E-03    0.966E-02
DAV:   6    -0.122320818829E+04    0.43092E-04   -0.12127E-03   684   0.888E-03    0.647E-02
DAV:   7    -0.122320819262E+04   -0.43362E-05   -0.79847E-04   624   0.561E-03
  62 F= -.12537770E+04 E0= -.12537134E+04  d E =-.472414E-03
       N       E                     dE             d eps       ncg     rms          rms(c)
DAV:   1    -0.122320811023E+04    0.78061E-04   -0.60512E-02  1152   0.192E-01    0.915E-02
DAV:   2    -0.122320859998E+04   -0.48975E-03   -0.24989E-03  1644   0.503E-02    0.283E-01
DAV:   3    -0.122320853341E+04    0.66571E-04   -0.18103E-03  1128   0.311E-02    0.217E-01
DAV:   4    -0.122320827746E+04    0.25595E-03   -0.35492E-04   768   0.158E-02    0.853E-02
DAV:   5    -0.122320825098E+04    0.26483E-04   -0.11397E-04   636   0.629E-03
  63 F= -.12537774E+04 E0= -.12537139E+04  d E =-.346248E-03
       N       E                     dE             d eps       ncg     rms          rms(c)
DAV:   1    -0.122320809780E+04    0.17966E-03   -0.16310E-02  1140   0.100E-01    0.724E-02
DAV:   2    -0.122320861284E+04   -0.51504E-03   -0.10480E-03  1224   0.311E-02    0.302E-01
DAV:   3    -0.122320846046E+04    0.15238E-03   -0.17772E-03   972   0.312E-02    0.262E-01
DAV:   4    -0.122320822570E+04    0.23476E-03   -0.57585E-04   720   0.166E-02    0.125E-01
DAV:   5    -0.122320814990E+04    0.75804E-04   -0.95952E-05   636   0.653E-03
  64 F= -.12537774E+04 E0= -.12537134E+04  d E =-.398385E-03
       N       E                     dE             d eps       ncg     rms          rms(c)
DAV:   1    -0.122320816100E+04    0.64707E-04   -0.30600E-02  1152   0.139E-01    0.850E-02
DAV:   2    -0.122320863685E+04   -0.47586E-03   -0.13273E-03  1356   0.365E-02    0.310E-01
DAV:   3    -0.122320867582E+04   -0.38972E-04   -0.18488E-03   996   0.298E-02    0.259E-01
DAV:   4    -0.122320832876E+04    0.34706E-03   -0.94031E-04   768   0.213E-02    0.144E-01
DAV:   5    -0.122320834464E+04   -0.15880E-04   -0.21058E-04   648   0.752E-03
  65 F= -.12537778E+04 E0= -.12537149E+04  d E =-.383178E-03
       N       E                     dE             d eps       ncg     rms          rms(c)
DAV:   1    -0.122320776938E+04    0.55938E-03   -0.11798E-01  1152   0.272E-01    0.127E-01
DAV:   2    -0.122320888422E+04   -0.11148E-02   -0.47241E-03  1644   0.662E-02    0.457E-01
DAV:   3    -0.122320839905E+04    0.48517E-03   -0.32251E-03  1260   0.425E-02    0.261E-01
DAV:   4    -0.122320800613E+04    0.39292E-03   -0.49541E-04   828   0.196E-02    0.106E-01
DAV:   5    -0.122320799946E+04    0.66714E-05   -0.82284E-05   708   0.822E-03
  66 F= -.12537779E+04 E0= -.12537148E+04  d E =-.408291E-03
       N       E                     dE             d eps       ncg     rms          rms(c)
DAV:   1    -0.122320792998E+04    0.76152E-04   -0.60765E-02  1152   0.201E-01    0.886E-02
DAV:   2    -0.122320817518E+04   -0.24520E-03   -0.17781E-03  1476   0.380E-02    0.190E-01
DAV:   3    -0.122320812306E+04    0.52124E-04   -0.76085E-04   768   0.135E-02
  67 F= -.12537782E+04 E0= -.12537122E+04  d E =-.323358E-03
       N       E                     dE             d eps       ncg     rms          rms(c)
DAV:   1    -0.122320818313E+04   -0.79475E-05   -0.19362E-03  1152   0.352E-02    0.189E-01
DAV:   2    -0.122323622008E+04   -0.28037E-01   -0.30073E-02  1440   0.123E-01    0.343E+00
DAV:   3    -0.122321650111E+04    0.19719E-01   -0.24222E-02  1356   0.112E-01    0.483E-01
DAV:   4    -0.122320905772E+04    0.74434E-02   -0.38401E-03  1224   0.464E-02    0.332E-01
DAV:   5    -0.122320827048E+04    0.78725E-03   -0.93378E-04   816   0.205E-02    0.181E-01
DAV:   6    -0.122320824532E+04    0.25162E-04   -0.73253E-04   660   0.118E-02
  68 F= -.12537783E+04 E0= -.12537146E+04  d E =-.472554E-03
       N       E                     dE             d eps       ncg     rms          rms(c)
DAV:   1    -0.122320811773E+04    0.15275E-03   -0.53709E-02  1152   0.192E-01    0.985E-02
DAV:   2    -0.122320882578E+04   -0.70806E-03   -0.32306E-03  1512   0.381E-02    0.365E-01
DAV:   3    -0.122320860289E+04    0.22290E-03   -0.30117E-03  1008   0.252E-02    0.250E-01
DAV:   4    -0.122320844400E+04    0.15889E-03   -0.13968E-03   852   0.216E-02    0.217E-01
DAV:   5    -0.122320823116E+04    0.21284E-03   -0.27951E-04   696   0.947E-03    0.106E-01
DAV:   6    -0.122320821697E+04    0.14184E-04   -0.10717E-04   720   0.103E-02
  69 F= -.12537785E+04 E0= -.12537148E+04  d E =-.140702E-03
       N       E                     dE             d eps       ncg     rms          rms(c)
DAV:   1    -0.122320808270E+04    0.14845E-03   -0.26751E-02  1152   0.137E-01    0.874E-02
DAV:   2    -0.122320850304E+04   -0.42033E-03   -0.96782E-04  1272   0.286E-02    0.287E-01
DAV:   3    -0.122320859164E+04   -0.88602E-04   -0.14699E-03   960   0.265E-02    0.266E-01
DAV:   4    -0.122320825310E+04    0.33853E-03   -0.94191E-04   768   0.198E-02    0.148E-01
DAV:   5    -0.122320823675E+04    0.16351E-04   -0.20936E-04   660   0.781E-03
  70 F= -.12537786E+04 E0= -.12537162E+04  d E =-.281232E-03
       N       E                     dE             d eps       ncg     rms          rms(c)
DAV:   1    -0.122320815433E+04    0.98777E-04   -0.29348E-02  1152   0.142E-01    0.799E-02
DAV:   2    -0.122320852431E+04   -0.36999E-03   -0.97883E-04  1284   0.278E-02    0.264E-01
DAV:   3    -0.122320844327E+04    0.81046E-04   -0.87331E-04   816   0.181E-02
  71 F= -.12537790E+04 E0= -.12537119E+04  d E =-.349956E-03
       N       E                     dE             d eps       ncg     rms          rms(c)
DAV:   1    -0.122320810145E+04    0.42286E-03   -0.55260E-02  1152   0.194E-01    0.173E-01
DAV:   2    -0.122321658752E+04   -0.84861E-02   -0.10981E-02  1536   0.769E-02    0.166E+00
DAV:   3    -0.122321116488E+04    0.54226E-02   -0.16164E-02  1320   0.818E-02    0.424E-01
DAV:   4    -0.122320923424E+04    0.19306E-02   -0.20111E-03  1056   0.279E-02    0.423E-01
DAV:   5    -0.122320829220E+04    0.94204E-03   -0.81813E-04   780   0.186E-02    0.134E-01
DAV:   6    -0.122320825199E+04    0.40214E-04   -0.56273E-04   708   0.126E-02
  72 F= -.12537790E+04 E0= -.12537141E+04  d E =-.354667E-03
       N       E                     dE             d eps       ncg     rms          rms(c)
DAV:   1    -0.122320804373E+04    0.24848E-03   -0.73297E-03  1128   0.705E-02    0.635E-02
DAV:   2    -0.122320925655E+04   -0.12128E-02   -0.29726E-03  1092   0.426E-02    0.392E-01
DAV:   3    -0.122320801971E+04    0.12368E-02   -0.26377E-03  1044   0.391E-02    0.931E-02
DAV:   4    -0.122320802523E+04   -0.55202E-05   -0.19964E-04   636   0.767E-03
  73 F= -.12537788E+04 E0= -.12537154E+04  d E =0.166172E-03
       N       E                     dE             d eps       ncg     rms          rms(c)
DAV:   1    -0.122320796193E+04    0.57780E-04   -0.52119E-02  1152   0.184E-01    0.116E-01
DAV:   2    -0.122320826748E+04   -0.30555E-03   -0.33288E-03  1464   0.379E-02    0.220E-01
DAV:   3    -0.122320841927E+04   -0.15179E-03   -0.46741E-03   852   0.182E-02    0.272E-01
DAV:   4    -0.122320828011E+04    0.13916E-03   -0.31455E-03   852   0.221E-02    0.183E-01
DAV:   5    -0.122320810743E+04    0.17268E-03   -0.89544E-04   732   0.123E-02    0.103E-01
DAV:   6    -0.122320805766E+04    0.49768E-04   -0.32697E-04   672   0.660E-03
  74 F= -.12537790E+04 E0= -.12537154E+04  d E =-.265344E-04
       N       E                     dE             d eps       ncg     rms          rms(c)
DAV:   1    -0.122320752323E+04    0.58421E-03   -0.20551E-01  1152   0.366E-01    0.183E-01
DAV:   2    -0.122320915542E+04   -0.16322E-02   -0.89442E-03  1608   0.831E-02    0.493E-01
DAV:   3    -0.122321014859E+04   -0.99317E-03   -0.11047E-02  1296   0.609E-02    0.743E-01
DAV:   4    -0.122320869045E+04    0.14581E-02   -0.58920E-03  1152   0.444E-02    0.303E-01
DAV:   5    -0.122320811241E+04    0.57803E-03   -0.66327E-04   768   0.174E-02    0.214E-01
DAV:   6    -0.122320786969E+04    0.24273E-03   -0.22661E-04   732   0.130E-02    0.104E-01
DAV:   7    -0.122320791574E+04   -0.46056E-04   -0.20415E-04   732   0.109E-02
  75 F= -.12537792E+04 E0= -.12537141E+04  d E =-.205946E-03
       N       E                     dE             d eps       ncg     rms          rms(c)
DAV:   1    -0.122320799864E+04   -0.12895E-03   -0.22138E-02  1152   0.118E-01    0.706E-02
DAV:   2    -0.122320892754E+04   -0.92890E-03   -0.35992E-03  1356   0.444E-02    0.352E-01
DAV:   3    -0.122320812840E+04    0.79914E-03   -0.32828E-03  1032   0.366E-02    0.147E-01
DAV:   4    -0.122320806902E+04    0.59377E-04   -0.49875E-04   636   0.941E-03
  76 F= -.12537794E+04 E0= -.12537158E+04  d E =-.220557E-03
       N       E                     dE             d eps       ncg     rms          rms(c)
DAV:   1    -0.122320809747E+04    0.30927E-04   -0.20026E-01  1152   0.354E-01    0.182E-01
DAV:   2    -0.122320938165E+04   -0.12842E-02   -0.82464E-03  1668   0.805E-02    0.442E-01
DAV:   3    -0.122321019418E+04   -0.81253E-03   -0.91224E-03  1332   0.634E-02    0.455E-01
DAV:   4    -0.122320846523E+04    0.17290E-02   -0.34885E-03  1152   0.445E-02    0.127E-01
DAV:   5    -0.122320843800E+04    0.27230E-04   -0.47431E-04   708   0.970E-03
  77 F= -.12537800E+04 E0= -.12537170E+04  d E =-.792414E-03
       N       E                     dE             d eps       ncg     rms          rms(c)
DAV:   1    -0.122320828690E+04    0.17833E-03   -0.42398E-02  1152   0.163E-01    0.124E-01
DAV:   2    -0.122320989564E+04   -0.16087E-02   -0.61677E-03  1368   0.504E-02    0.598E-01
DAV:   3    -0.122320904267E+04    0.85296E-03   -0.84682E-03  1248   0.536E-02    0.329E-01
DAV:   4    -0.122320837630E+04    0.66637E-03   -0.18770E-03   960   0.228E-02    0.116E-01
DAV:   5    -0.122320832024E+04    0.56059E-04   -0.11640E-03   696   0.845E-03    0.945E-02
DAV:   6    -0.122320830233E+04    0.17918E-04   -0.54851E-04   624   0.811E-03
  78 F= -.12537799E+04 E0= -.12537159E+04  d E =-.750788E-03
       N       E                     dE             d eps       ncg     rms          rms(c)
DAV:   1    -0.122320846373E+04   -0.14348E-03   -0.29635E-02  1152   0.142E-01    0.907E-02
DAV:   2    -0.122320871928E+04   -0.25555E-03   -0.32057E-03  1368   0.310E-02    0.216E-01
DAV:   3    -0.122320867481E+04    0.44470E-04   -0.38650E-03   732   0.133E-02    0.165E-01
DAV:   4    -0.122320872169E+04   -0.46882E-04   -0.23788E-03   768   0.184E-02    0.205E-01
DAV:   5    -0.122320854123E+04    0.18046E-03   -0.99162E-04   696   0.118E-02    0.699E-02
DAV:   6    -0.122320852653E+04    0.14698E-04   -0.25845E-04   636   0.551E-03
  79 F= -.12537802E+04 E0= -.12537162E+04  d E =-.329522E-03
       N       E                     dE             d eps       ncg     rms          rms(c)
DAV:   1    -0.122320822005E+04    0.32118E-03   -0.26856E-01  1152   0.426E-01    0.194E-01
DAV:   2    -0.122320912370E+04   -0.90365E-03   -0.86026E-03  1704   0.900E-02    0.268E-01
DAV:   3    -0.122321160638E+04   -0.24827E-02   -0.85817E-03  1344   0.660E-02    0.891E-01
DAV:   4    -0.122320926645E+04    0.23399E-02   -0.44518E-03  1224   0.498E-02    0.244E-01
DAV:   5    -0.122320881485E+04    0.45160E-03   -0.33180E-04   828   0.146E-02    0.150E-01
DAV:   6    -0.122320870310E+04    0.11175E-03   -0.21238E-04   720   0.112E-02    0.993E-02
DAV:   7    -0.122320869990E+04    0.32014E-05   -0.28819E-04   768   0.101E-02
  80 F= -.12537807E+04 E0= -.12537161E+04  d E =-.819803E-03
       N       E                     dE             d eps       ncg     rms          rms(c)
DAV:   1    -0.122320881884E+04   -0.11574E-03   -0.48690E-02  1152   0.181E-01    0.921E-02
DAV:   2    -0.122321012104E+04   -0.13022E-02   -0.52955E-03  1548   0.588E-02    0.403E-01
DAV:   3    -0.122320902615E+04    0.10949E-02   -0.50281E-03  1224   0.447E-02    0.193E-01
DAV:   4    -0.122320893921E+04    0.86938E-04   -0.89714E-04   792   0.148E-02
  81 F= -.12537812E+04 E0= -.12537185E+04  d E =-.436773E-03
       N       E                     dE             d eps       ncg     rms          rms(c)
DAV:   1    -0.122320884510E+04    0.18105E-03   -0.17838E-02  1152   0.108E-01    0.989E-02
DAV:   2    -0.122320947861E+04   -0.63351E-03   -0.33816E-03  1104   0.303E-02    0.354E-01
DAV:   3    -0.122320942142E+04    0.57193E-04   -0.47374E-03  1164   0.414E-02    0.282E-01
DAV:   4    -0.122320883922E+04    0.58219E-03   -0.13124E-03   888   0.220E-02    0.717E-02
DAV:   5    -0.122320881269E+04    0.26536E-04   -0.49800E-04   696   0.619E-03
  82 F= -.12537812E+04 E0= -.12537176E+04  d E =-.428391E-03
       N       E                     dE             d eps       ncg     rms          rms(c)
DAV:   1    -0.122320889831E+04   -0.59084E-04   -0.45340E-02  1152   0.175E-01    0.651E-02
DAV:   2    -0.122320901841E+04   -0.12010E-03   -0.15101E-03  1404   0.319E-02    0.113E-01
DAV:   3    -0.122320906512E+04   -0.46718E-04   -0.11162E-03   816   0.169E-02    0.155E-01
DAV:   4    -0.122320901418E+04    0.50949E-04   -0.58940E-04   768   0.165E-02
  83 F= -.12537815E+04 E0= -.12537194E+04  d E =-.355863E-03
       N       E                     dE             d eps       ncg     rms          rms(c)
DAV:   1    -0.122320874952E+04    0.31560E-03   -0.10203E-01  1152   0.264E-01    0.913E-02
DAV:   2    -0.122320900288E+04   -0.25336E-03   -0.22146E-03  1644   0.467E-02    0.159E-01
DAV:   3    -0.122320917694E+04   -0.17406E-03   -0.12512E-03  1128   0.270E-02    0.270E-01
DAV:   4    -0.122320890148E+04    0.27547E-03   -0.59728E-04   960   0.201E-02    0.938E-02
DAV:   5    -0.122320888873E+04    0.12746E-04   -0.23288E-04   696   0.778E-03
  84 F= -.12537816E+04 E0= -.12537178E+04  d E =-.462834E-03
       N       E                     dE             d eps       ncg     rms          rms(c)
DAV:   1    -0.122320902895E+04   -0.12748E-03   -0.43137E-02  1152   0.169E-01    0.105E-01
DAV:   2    -0.122320981259E+04   -0.78364E-03   -0.24546E-03  1428   0.422E-02    0.326E-01
DAV:   3    -0.122320957716E+04    0.23543E-03   -0.35736E-03  1176   0.439E-02    0.332E-01
DAV:   4    -0.122320910371E+04    0.47345E-03   -0.83477E-04   876   0.234E-02    0.825E-02
DAV:   5    -0.122320905245E+04    0.51261E-04   -0.11920E-04   612   0.810E-03
  85 F= -.12537819E+04 E0= -.12537178E+04  d E =-.290438E-03
       N       E                     dE             d eps       ncg     rms          rms(c)
DAV:   1    -0.122320884508E+04    0.25863E-03   -0.84976E-02  1152   0.237E-01    0.104E-01
DAV:   2    -0.122320914391E+04   -0.29884E-03   -0.22312E-03  1536   0.461E-02    0.177E-01
DAV:   3    -0.122320934728E+04   -0.20337E-03   -0.13903E-03   912   0.290E-02    0.293E-01
DAV:   4    -0.122320900834E+04    0.33895E-03   -0.96897E-04   900   0.248E-02    0.109E-01
DAV:   5    -0.122320895077E+04    0.57564E-04   -0.19440E-04   696   0.100E-02
  86 F= -.12537820E+04 E0= -.12537178E+04  d E =-.367073E-03
       N       E                     dE             d eps       ncg     rms          rms(c)
DAV:   1    -0.122320897479E+04    0.33543E-04   -0.63175E-02  1152   0.202E-01    0.126E-01
DAV:   2    -0.122320966185E+04   -0.68706E-03   -0.61680E-03  1596   0.523E-02    0.326E-01
DAV:   3    -0.122320997673E+04   -0.31488E-03   -0.78560E-03  1200   0.449E-02    0.453E-01
DAV:   4    -0.122320925457E+04    0.72216E-03   -0.25351E-03   924   0.298E-02    0.157E-01
DAV:   5    -0.122320912416E+04    0.13041E-03   -0.66051E-04   684   0.940E-03    0.119E-01
DAV:   6    -0.122320904454E+04    0.79624E-04   -0.59846E-04   684   0.968E-03
  87 F= -.12537823E+04 E0= -.12537188E+04  d E =-.290198E-03
       N       E                     dE             d eps       ncg     rms          rms(c)
DAV:   1    -0.122320874412E+04    0.38004E-03   -0.11223E-01  1152   0.269E-01    0.156E-01
DAV:   2    -0.122320981082E+04   -0.10667E-02   -0.74973E-03  1596   0.666E-02    0.408E-01
DAV:   3    -0.122321042698E+04   -0.61617E-03   -0.89903E-03  1236   0.522E-02    0.599E-01
DAV:   4    -0.122320945544E+04    0.97154E-03   -0.36933E-03  1032   0.378E-02    0.246E-01
DAV:   5    -0.122320911001E+04    0.34544E-03   -0.35210E-04   768   0.129E-02    0.171E-01
DAV:   6    -0.122320894512E+04    0.16489E-03   -0.22233E-04   708   0.126E-02    0.926E-02
DAV:   7    -0.122320897449E+04   -0.29371E-04   -0.12100E-04   672   0.904E-03
  88 F= -.12537825E+04 E0= -.12537180E+04  d E =-.483259E-03
       N       E                     dE             d eps       ncg     rms          rms(c)
DAV:   1    -0.122320909851E+04   -0.15339E-03   -0.65996E-02  1152   0.207E-01    0.956E-02
DAV:   2    -0.122320938159E+04   -0.28309E-03   -0.22971E-03  1644   0.476E-02    0.153E-01
DAV:   3    -0.122320985841E+04   -0.47682E-03   -0.21298E-03  1092   0.337E-02    0.380E-01
DAV:   4    -0.122320931398E+04    0.54443E-03   -0.10603E-03   960   0.250E-02    0.105E-01
DAV:   5    -0.122320927322E+04    0.40766E-04   -0.11033E-04   672   0.670E-03
  89 F= -.12537829E+04 E0= -.12537189E+04  d E =-.446588E-03
       N       E                     dE             d eps       ncg     rms          rms(c)
DAV:   1    -0.122320890714E+04    0.40685E-03   -0.16691E-01  1152   0.329E-01    0.153E-01
DAV:   2    -0.122320927326E+04   -0.36613E-03   -0.47308E-03  1656   0.702E-02    0.118E-01
DAV:   3    -0.122320976943E+04   -0.49617E-03   -0.13278E-03  1092   0.297E-02    0.303E-01
DAV:   4    -0.122320938860E+04    0.38083E-03   -0.16990E-03   984   0.312E-02    0.195E-01
DAV:   5    -0.122320936413E+04    0.24469E-04   -0.53655E-04   816   0.183E-02
  90 F= -.12537833E+04 E0= -.12537221E+04  d E =-.773149E-03
       N       E                     dE             d eps       ncg     rms          rms(c)
DAV:   1    -0.122320951501E+04   -0.12641E-03   -0.49556E-02  1152   0.180E-01    0.149E-01
DAV:   2    -0.122321604146E+04   -0.65264E-02   -0.11569E-02  1548   0.883E-02    0.139E+00
DAV:   3    -0.122321088368E+04    0.51578E-02   -0.97422E-03  1284   0.731E-02    0.350E-01
DAV:   4    -0.122320961968E+04    0.12640E-02   -0.69404E-04   960   0.185E-02    0.111E-01
DAV:   5    -0.122320956505E+04    0.54627E-04   -0.24660E-04   672   0.105E-02
  91 F= -.12537835E+04 E0= -.12537212E+04  d E =-.280609E-03
       N       E                     dE             d eps       ncg     rms          rms(c)
DAV:   1    -0.122320924310E+04    0.37658E-03   -0.30664E-01  1152   0.450E-01    0.205E-01
DAV:   2    -0.122321319259E+04   -0.39495E-02   -0.13033E-02  1656   0.117E-01    0.966E-01
DAV:   3    -0.122321093978E+04    0.22528E-02   -0.98933E-03  1392   0.724E-02    0.393E-01
DAV:   4    -0.122320984640E+04    0.10934E-02   -0.13187E-03  1032   0.274E-02    0.169E-01
DAV:   5    -0.122320980221E+04    0.44191E-04   -0.68512E-04   816   0.135E-02
  92 F= -.12537840E+04 E0= -.12537217E+04  d E =-.717264E-03
       N       E                     dE             d eps       ncg     rms          rms(c)
DAV:   1    -0.122321017292E+04   -0.32652E-03   -0.66401E-02  1152   0.215E-01    0.148E-01
DAV:   2    -0.122321194739E+04   -0.17745E-02   -0.68458E-03  1536   0.519E-02    0.561E-01
DAV:   3    -0.122321162325E+04    0.32414E-03   -0.10100E-02  1224   0.531E-02    0.523E-01
DAV:   4    -0.122321072433E+04    0.89892E-03   -0.38842E-03   984   0.297E-02    0.262E-01
DAV:   5    -0.122321035700E+04    0.36733E-03   -0.89658E-04   696   0.119E-02    0.150E-01
DAV:   6    -0.122321022876E+04    0.12823E-03   -0.32135E-04   732   0.137E-02    0.989E-02
DAV:   7    -0.122321020323E+04    0.25537E-04   -0.99768E-05   720   0.105E-02
  93 F= -.12537845E+04 E0= -.12537204E+04  d E =-.520830E-03
       N       E                     dE             d eps       ncg     rms          rms(c)
DAV:   1    -0.122321014780E+04    0.80964E-04   -0.43610E-02  1152   0.174E-01    0.594E-02
DAV:   2    -0.122321034705E+04   -0.19925E-03   -0.13508E-03  1464   0.340E-02    0.133E-01
DAV:   3    -0.122321032746E+04    0.19588E-04   -0.68946E-04   924   0.201E-02
  94 F= -.12537847E+04 E0= -.12537187E+04  d E =-.742554E-03
       N       E                     dE             d eps       ncg     rms          rms(c)
DAV:   1    -0.122321036464E+04   -0.17587E-04   -0.29291E-02  1152   0.145E-01    0.670E-02
DAV:   2    -0.122321099313E+04   -0.62850E-03   -0.13345E-03  1212   0.321E-02    0.371E-01
DAV:   3    -0.122321048284E+04    0.51029E-03   -0.12796E-03  1020   0.275E-02    0.115E-01
DAV:   4    -0.122321045157E+04    0.31273E-04   -0.12088E-04   696   0.920E-03
  95 F= -.12537850E+04 E0= -.12537213E+04  d E =-.250398E-03
       N       E                     dE             d eps       ncg     rms          rms(c)
DAV:   1    -0.122321033875E+04    0.14410E-03   -0.97872E-03  1152   0.836E-02    0.489E-02
DAV:   2    -0.122321047984E+04   -0.14110E-03   -0.34630E-04   936   0.197E-02    0.145E-01
DAV:   3    -0.122321037479E+04    0.10505E-03   -0.37166E-04   780   0.175E-02    0.919E-02
DAV:   4    -0.122321036336E+04    0.11430E-04   -0.14601E-04   732   0.112E-02
  96 F= -.12537849E+04 E0= -.12537222E+04  d E =-.235435E-03
       N       E                     dE             d eps       ncg     rms          rms(c)
DAV:   1    -0.122321045808E+04   -0.83291E-04   -0.20461E-02  1152   0.119E-01    0.519E-02
DAV:   2    -0.122321060476E+04   -0.14668E-03   -0.82138E-04  1200   0.257E-02    0.139E-01
DAV:   3    -0.122321059659E+04    0.81692E-05   -0.85024E-04   876   0.214E-02
  97 F= -.12537852E+04 E0= -.12537192E+04  d E =-.296560E-03
       N       E                     dE             d eps       ncg     rms          rms(c)
DAV:   1    -0.122321049512E+04    0.10964E-03   -0.71692E-03  1140   0.716E-02    0.669E-02
DAV:   2    -0.122321161791E+04   -0.11228E-02   -0.13932E-03  1128   0.318E-02    0.524E-01
DAV:   3    -0.122321075271E+04    0.86520E-03   -0.20793E-03  1032   0.347E-02    0.167E-01
DAV:   4    -0.122321061110E+04    0.14161E-03   -0.24073E-04   672   0.105E-02    0.141E-01
DAV:   5    -0.122321048049E+04    0.13061E-03   -0.90323E-05   636   0.757E-03    0.279E-02
DAV:   6    -0.122321051256E+04   -0.32068E-04   -0.52313E-05   612   0.560E-03
  98 F= -.12537852E+04 E0= -.12537211E+04  d E =-.249591E-03
       N       E                     dE             d eps       ncg     rms          rms(c)
DAV:   1    -0.122321060052E+04   -0.12003E-03   -0.11687E-02  1128   0.853E-02    0.467E-02
DAV:   2    -0.122321075706E+04   -0.15654E-03   -0.53285E-04   924   0.229E-02    0.140E-01
DAV:   3    -0.122321068816E+04    0.68900E-04   -0.47256E-04   756   0.199E-02
  99 F= -.12537854E+04 E0= -.12537199E+04  d E =-.196040E-03
       N       E                     dE             d eps       ncg     rms          rms(c)
DAV:   1    -0.122321064704E+04    0.11002E-03   -0.10263E-02  1140   0.810E-02    0.644E-02
DAV:   2    -0.122321264582E+04   -0.19988E-02   -0.28638E-03  1164   0.439E-02    0.719E-01
DAV:   3    -0.122321088363E+04    0.17622E-02   -0.25458E-03  1140   0.393E-02    0.130E-01
DAV:   4    -0.122321072272E+04    0.16091E-03   -0.23055E-04   696   0.123E-02    0.101E-01
DAV:   5    -0.122321065434E+04    0.68378E-04   -0.56192E-05   636   0.847E-03
 100 F= -.12537854E+04 E0= -.12537219E+04  d E =-.181303E-03
       N       E                     dE             d eps       ncg     rms          rms(c)
DAV:   1    -0.122321072963E+04   -0.69076E-05   -0.96371E-03  1128   0.779E-02    0.636E-02
DAV:   2    -0.122321107055E+04   -0.34092E-03   -0.73364E-04  1080   0.273E-02    0.250E-01
DAV:   3    -0.122321100217E+04    0.68382E-04   -0.12910E-03   948   0.274E-02    0.234E-01
DAV:   4    -0.122321081997E+04    0.18220E-03   -0.43775E-04   672   0.152E-02    0.106E-01
DAV:   5    -0.122321076368E+04    0.56294E-04   -0.61400E-05   648   0.610E-03
 101 F= -.12537856E+04 E0= -.12537218E+04  d E =-.180924E-03
       N       E                     dE             d eps       ncg     rms          rms(c)
DAV:   1    -0.122321070285E+04    0.11712E-03   -0.18718E-02  1140   0.108E-01    0.707E-02
DAV:   2    -0.122321114369E+04   -0.44084E-03   -0.12829E-03  1380   0.354E-02    0.244E-01
DAV:   3    -0.122321089183E+04    0.25186E-03   -0.15859E-03  1044   0.310E-02    0.191E-01
DAV:   4    -0.122321075260E+04    0.13924E-03   -0.32286E-04   732   0.159E-02    0.692E-02
DAV:   5    -0.122321073181E+04    0.20789E-04   -0.28069E-05   600   0.559E-03
 102 F= -.12537856E+04 E0= -.12537218E+04  d E =-.249064E-03
       N       E                     dE             d eps       ncg     rms          rms(c)
DAV:   1    -0.122321076470E+04   -0.12106E-04   -0.18410E-02  1152   0.108E-01    0.613E-02
DAV:   2    -0.122321149384E+04   -0.72913E-03   -0.25207E-03  1116   0.419E-02    0.317E-01
DAV:   3    -0.122321084157E+04    0.65226E-03   -0.22769E-03   984   0.327E-02    0.113E-01
DAV:   4    -0.122321081470E+04    0.26873E-04   -0.33524E-04   636   0.880E-03
 103 F= -.12537858E+04 E0= -.12537227E+04  d E =-.194391E-03
       N       E                     dE             d eps       ncg     rms          rms(c)
DAV:   1    -0.122321077386E+04    0.67716E-04   -0.33636E-03  1104   0.450E-02    0.640E-02
DAV:   2    -0.122321104066E+04   -0.26680E-03   -0.12601E-03   828   0.181E-02    0.226E-01
DAV:   3    -0.122321099150E+04    0.49160E-04   -0.19350E-03   876   0.262E-02    0.187E-01
DAV:   4    -0.122321076248E+04    0.22901E-03   -0.55074E-04   696   0.143E-02    0.457E-02
DAV:   5    -0.122321075466E+04    0.78191E-05   -0.22469E-04   636   0.396E-03
 104 F= -.12537858E+04 E0= -.12537223E+04  d E =-.179964E-03
       N       E                     dE             d eps       ncg     rms          rms(c)
DAV:   1    -0.122321082784E+04   -0.65360E-04   -0.20659E-02  1152   0.120E-01    0.401E-02
DAV:   2    -0.122321088303E+04   -0.55183E-04   -0.48619E-04  1044   0.230E-02
 105 F= -.12537860E+04 E0= -.12537234E+04  d E =-.182155E-03
       N       E                     dE             d eps       ncg     rms          rms(c)
DAV:   1    -0.122321093065E+04   -0.10281E-03   -0.61121E-03  1152   0.670E-02    0.123E-01
DAV:   2    -0.122321712859E+04   -0.61979E-02   -0.17274E-02  1356   0.931E-02    0.748E-01
DAV:   3    -0.122321113669E+04    0.59919E-02   -0.12882E-02  1344   0.821E-02    0.168E-01
DAV:   4    -0.122321101521E+04    0.12148E-03   -0.63719E-04   792   0.143E-02    0.159E-01
DAV:   5    -0.122321092329E+04    0.91924E-04   -0.43077E-04   708   0.128E-02
 106 F= -.12537861E+04 E0= -.12537213E+04  d E =-.250765E-03
       N       E                     dE             d eps       ncg     rms          rms(c)
DAV:   1    -0.122321105432E+04   -0.39103E-04   -0.22509E-02  1152   0.125E-01    0.105E-01
DAV:   2    -0.122321279276E+04   -0.17384E-02   -0.43815E-03  1260   0.401E-02    0.654E-01
DAV:   3    -0.122321206769E+04    0.72507E-03   -0.70029E-03  1164   0.500E-02    0.326E-01
DAV:   4    -0.122321126876E+04    0.79893E-03   -0.12695E-03   792   0.201E-02    0.170E-01
DAV:   5    -0.122321106731E+04    0.20145E-03   -0.28331E-04   708   0.898E-03    0.615E-02
DAV:   6    -0.122321106236E+04    0.49477E-05   -0.11243E-04   636   0.788E-03
 107 F= -.12537862E+04 E0= -.12537219E+04  d E =-.149098E-03
       N       E                     dE             d eps       ncg     rms          rms(c)
DAV:   1    -0.122321103273E+04    0.34580E-04   -0.79688E-03  1116   0.745E-02    0.386E-02
DAV:   2    -0.122321127923E+04   -0.24650E-03   -0.48448E-04   912   0.198E-02    0.224E-01
DAV:   3    -0.122321110766E+04    0.17157E-03   -0.55537E-04   816   0.183E-02    0.104E-01
DAV:   4    -0.122321107922E+04    0.28436E-04   -0.11833E-04   636   0.860E-03
 108 F= -.12537862E+04 E0= -.12537218E+04  d E =-.172124E-03
       N       E                     dE             d eps       ncg     rms          rms(c)
DAV:   1    -0.122321109480E+04    0.12854E-04   -0.12560E-02  1140   0.912E-02    0.431E-02
DAV:   2    -0.122321139218E+04   -0.29738E-03   -0.85024E-04   972   0.293E-02    0.206E-01
DAV:   3    -0.122321112922E+04    0.26296E-03   -0.61111E-04   828   0.213E-02    0.688E-02
DAV:   4    -0.122321111975E+04    0.94699E-05   -0.26914E-05   600   0.544E-03
 109 F= -.12537863E+04 E0= -.12537229E+04  d E =-.822300E-04
       N       E                     dE             d eps       ncg     rms          rms(c)
DAV:   1    -0.122321108909E+04    0.40133E-04   -0.45910E-02  1152   0.174E-01    0.844E-02
DAV:   2    -0.122321152100E+04   -0.43191E-03   -0.17743E-03  1392   0.418E-02    0.267E-01
DAV:   3    -0.122321152766E+04   -0.66573E-05   -0.18683E-03   972   0.304E-02    0.291E-01
DAV:   4    -0.122321126354E+04    0.26412E-03   -0.72292E-04   768   0.196E-02    0.133E-01
DAV:   5    -0.122321118754E+04    0.76003E-04   -0.10244E-04   648   0.722E-03
 110 F= -.12537865E+04 E0= -.12537227E+04  d E =-.230388E-03
       N       E                     dE             d eps       ncg     rms          rms(c)
DAV:   1    -0.122321123540E+04    0.28141E-04   -0.13549E-02  1140   0.932E-02    0.521E-02
DAV:   2    -0.122321149047E+04   -0.25507E-03   -0.68980E-04   936   0.271E-02    0.189E-01
DAV:   3    -0.122321128598E+04    0.20449E-03   -0.69114E-04   852   0.229E-02    0.106E-01
DAV:   4    -0.122321126006E+04    0.25927E-04   -0.13289E-04   684   0.104E-02
 111 F= -.12537866E+04 E0= -.12537237E+04  d E =-.128248E-03
       N       E                     dE             d eps       ncg     rms          rms(c)
DAV:   1    -0.122321125580E+04    0.30179E-04   -0.33791E-02  1152   0.146E-01    0.871E-02
DAV:   2    -0.122321171543E+04   -0.45962E-03   -0.17512E-03  1344   0.381E-02    0.277E-01
DAV:   3    -0.122321177941E+04   -0.63986E-04   -0.25470E-03   996   0.334E-02    0.318E-01
DAV:   4    -0.122321143468E+04    0.34473E-03   -0.10030E-03   792   0.211E-02    0.132E-01
DAV:   5    -0.122321136129E+04    0.73384E-04   -0.98542E-05   636   0.777E-03
 112 F= -.12537868E+04 E0= -.12537226E+04  d E =-.317541E-03
       N       E                     dE             d eps       ncg     rms          rms(c)
DAV:   1    -0.122321059478E+04    0.83990E-03   -0.13563E-01  1152   0.293E-01    0.129E-01
DAV:   2    -0.122321157339E+04   -0.97861E-03   -0.51652E-03  1644   0.727E-02    0.325E-01
DAV:   3    -0.122321139653E+04    0.17686E-03   -0.41231E-03  1248   0.477E-02    0.364E-01
DAV:   4    -0.122321095246E+04    0.44407E-03   -0.87428E-04   888   0.235E-02    0.138E-01
DAV:   5    -0.122321089704E+04    0.55412E-04   -0.18313E-04   684   0.967E-03
 113 F= -.12537865E+04 E0= -.12537230E+04  d E =-.301834E-04
       N       E                     dE             d eps       ncg     rms          rms(c)
DAV:   1    -0.122321113278E+04   -0.18033E-03   -0.76195E-02  1152   0.220E-01    0.143E-01
DAV:   2    -0.122321244446E+04   -0.13117E-02   -0.52828E-03  1560   0.574E-02    0.402E-01
DAV:   3    -0.122321231131E+04    0.13315E-03   -0.72988E-03  1272   0.566E-02    0.480E-01
DAV:   4    -0.122321142070E+04    0.89061E-03   -0.19320E-03  1008   0.339E-02    0.137E-01
DAV:   5    -0.122321127229E+04    0.14842E-03   -0.32724E-04   636   0.918E-03    0.706E-02
DAV:   6    -0.122321123285E+04    0.39443E-04   -0.32050E-04   624   0.639E-03
 114 F= -.12537867E+04 E0= -.12537231E+04  d E =-.235358E-03
       N       E                     dE             d eps       ncg     rms          rms(c)
DAV:   1    -0.122321127579E+04   -0.34995E-05   -0.22948E-03  1092   0.369E-02    0.486E-02
DAV:   2    -0.122321159628E+04   -0.32049E-03   -0.15796E-03   852   0.188E-02    0.239E-01
DAV:   3    -0.122321140266E+04    0.19362E-03   -0.18657E-03   852   0.238E-02    0.165E-01
DAV:   4    -0.122321130495E+04    0.97710E-04   -0.33282E-04   660   0.101E-02
 115 F= -.12537867E+04 E0= -.12537238E+04  d E =-.285085E-03
       N       E                     dE             d eps       ncg     rms          rms(c)
DAV:   1    -0.122321133417E+04    0.68488E-04   -0.13516E-02  1140   0.933E-02    0.511E-02
DAV:   2    -0.122321142426E+04   -0.90088E-04   -0.40633E-04  1008   0.207E-02
 116 F= -.12537869E+04 E0= -.12537229E+04  d E =-.160265E-03
       N       E                     dE             d eps       ncg     rms          rms(c)
DAV:   1    -0.122321140054E+04   -0.66374E-04   -0.39863E-02  1152   0.161E-01    0.111E-01
DAV:   2    -0.122321694064E+04   -0.55401E-02   -0.79477E-03  1524   0.749E-02    0.129E+00
DAV:   3    -0.122321228742E+04    0.46532E-02   -0.67869E-03  1236   0.608E-02    0.247E-01
DAV:   4    -0.122321156164E+04    0.72577E-03   -0.67423E-04   936   0.184E-02    0.119E-01
DAV:   5    -0.122321149725E+04    0.64393E-04   -0.20094E-04   708   0.109E-02
 117 F= -.12537870E+04 E0= -.12537242E+04  d E =-.303426E-03
       N       E                     dE             d eps       ncg     rms          rms(c)
DAV:   1    -0.122321093875E+04    0.62289E-03   -0.15723E-01  1152   0.319E-01    0.165E-01
DAV:   2    -0.122321157468E+04   -0.63593E-03   -0.66502E-03  1644   0.680E-02    0.273E-01
DAV:   3    -0.122321185001E+04   -0.27532E-03   -0.59514E-03  1116   0.345E-02    0.304E-01
DAV:   4    -0.122321152955E+04    0.32046E-03   -0.43287E-03  1032   0.396E-02    0.265E-01
DAV:   5    -0.122321124259E+04    0.28696E-03   -0.10619E-03   852   0.193E-02    0.115E-01
DAV:   6    -0.122321124021E+04    0.23791E-05   -0.70117E-04   720   0.848E-03
 118 F= -.12537869E+04 E0= -.12537240E+04  d E =-.187371E-03
       N       E                     dE             d eps       ncg     rms          rms(c)
DAV:   1    -0.122321126046E+04   -0.17862E-04   -0.67889E-02  1152   0.209E-01    0.121E-01
DAV:   2    -0.122321310675E+04   -0.18463E-02   -0.65031E-03  1620   0.677E-02    0.465E-01
DAV:   3    -0.122321176202E+04    0.13447E-02   -0.70672E-03  1284   0.536E-02    0.264E-01
DAV:   4    -0.122321158588E+04    0.17614E-03   -0.10120E-03   768   0.195E-02    0.164E-01
DAV:   5    -0.122321149939E+04    0.86494E-04   -0.45835E-04   696   0.938E-03
 119 F= -.12537871E+04 E0= -.12537242E+04  d E =-.355601E-03
       N       E                     dE             d eps       ncg     rms          rms(c)
DAV:   1    -0.122321154692E+04    0.38958E-04   -0.21185E-02  1152   0.118E-01    0.953E-02
DAV:   2    -0.122321194055E+04   -0.39363E-03   -0.31178E-03  1308   0.288E-02    0.273E-01
DAV:   3    -0.122321200144E+04   -0.60885E-04   -0.40939E-03   828   0.225E-02    0.247E-01
DAV:   4    -0.122321180309E+04    0.19834E-03   -0.22049E-03   792   0.224E-02    0.191E-01
DAV:   5    -0.122321164840E+04    0.15470E-03   -0.71518E-04   636   0.982E-03    0.945E-02
[...]
       N       E                     dE             d eps       ncg     rms          rms(c)
DAV:   1    -0.122322270359E+04    0.95277E-05   -0.25858E-02  1152   0.138E-01    0.677E-02
DAV:   2    -0.122322319861E+04   -0.49503E-03   -0.21075E-03  1440   0.384E-02    0.316E-01
DAV:   3    -0.122322287979E+04    0.31882E-03   -0.18798E-03  1032   0.260E-02    0.135E-01
DAV:   4    -0.122322279026E+04    0.89530E-04   -0.26514E-04   744   0.128E-02
 201 F= -.12538249E+04 E0= -.12537609E+04  d E =-.286539E-03
       N       E                     dE             d eps       ncg     rms          rms(c)
DAV:   1    -0.122322272293E+04    0.15686E-03   -0.96065E-03  1140   0.829E-02    0.509E-02
DAV:   2    -0.122322330723E+04   -0.58431E-03   -0.15092E-03  1152   0.344E-02    0.275E-01
DAV:   3    -0.122322275408E+04    0.55316E-03   -0.12454E-03   996   0.295E-02    0.772E-02
DAV:   4    -0.122322273374E+04    0.20341E-04   -0.41265E-05   612   0.589E-03
 202 F= -.12538249E+04 E0= -.12537622E+04  d E =-.401597E-04
       N       E                     dE             d eps       ncg     rms          rms(c)
DAV:   1    -0.122322271953E+04    0.34545E-04   -0.13462E-03  1056   0.314E-02    0.496E-02
DAV:   2    -0.122322284785E+04   -0.12832E-03   -0.21014E-04   720   0.121E-02    0.164E-01
DAV:   3    -0.122322287711E+04   -0.29263E-04   -0.63737E-04   756   0.187E-02
 203 F= -.12538251E+04 E0= -.12537592E+04  d E =-.220291E-03
       N       E                     dE             d eps       ncg     rms          rms(c)
DAV:   1    -0.122322272833E+04    0.11952E-03   -0.76388E-03  1152   0.755E-02    0.673E-02
DAV:   2    -0.122322320039E+04   -0.47206E-03   -0.61428E-04   948   0.224E-02    0.320E-01
DAV:   3    -0.122322302799E+04    0.17240E-03   -0.15260E-03   972   0.302E-02    0.214E-01
DAV:   4    -0.122322281185E+04    0.21614E-03   -0.51118E-04   696   0.161E-02    0.115E-01
DAV:   5    -0.122322271497E+04    0.96882E-04   -0.60624E-05   648   0.649E-03
 204 F= -.12538250E+04 E0= -.12537621E+04  d E =0.892096E-04
       N       E                     dE             d eps       ncg     rms          rms(c)
DAV:   1    -0.122322269648E+04    0.11537E-03   -0.27118E-03  1092   0.452E-02    0.482E-02
DAV:   2    -0.122322290670E+04   -0.21022E-03   -0.32570E-04   816   0.177E-02    0.201E-01
DAV:   3    -0.122322282856E+04    0.78135E-04   -0.74318E-04   780   0.213E-02
 205 F= -.12538252E+04 E0= -.12537595E+04  d E =-.690739E-04
       N       E                     dE             d eps       ncg     rms          rms(c)
DAV:   1    -0.122322258269E+04    0.32401E-03   -0.11293E-02  1152   0.913E-02    0.772E-02
DAV:   2    -0.122322329234E+04   -0.70965E-03   -0.10112E-03  1308   0.290E-02    0.398E-01
DAV:   3    -0.122322298872E+04    0.30362E-03   -0.21876E-03  1104   0.348E-02    0.236E-01
DAV:   4    -0.122322268175E+04    0.30697E-03   -0.57078E-04   756   0.167E-02    0.121E-01
DAV:   5    -0.122322256237E+04    0.11938E-03   -0.65058E-05   624   0.675E-03    0.315E-02
DAV:   6    -0.122322257841E+04   -0.16046E-04   -0.48223E-05   612   0.689E-03
 206 F= -.12538250E+04 E0= -.12537616E+04  d E =0.915419E-04
       N       E                     dE             d eps       ncg     rms          rms(c)
DAV:   1    -0.122322265241E+04   -0.90044E-04   -0.32901E-03  1092   0.483E-02    0.654E-02
DAV:   2    -0.122322278542E+04   -0.13301E-03   -0.34269E-04   744   0.131E-02    0.161E-01
DAV:   3    -0.122322267550E+04    0.10993E-03   -0.35215E-04   624   0.828E-03    0.895E-02
DAV:   4    -0.122322273342E+04   -0.57922E-04   -0.31556E-04   636   0.781E-03
 207 F= -.12538251E+04 E0= -.12537605E+04  d E =-.161418E-04
       N       E                     dE             d eps       ncg     rms          rms(c)
DAV:   1    -0.122322268342E+04   -0.79214E-05   -0.36114E-03  1104   0.523E-02    0.468E-02
DAV:   2    -0.122322302211E+04   -0.33870E-03   -0.43073E-04   840   0.191E-02    0.263E-01
DAV:   3    -0.122322279954E+04    0.22257E-03   -0.78906E-04   792   0.222E-02    0.134E-01
DAV:   4    -0.122322275350E+04    0.46042E-04   -0.23314E-04   672   0.115E-02
 208 F= -.12538251E+04 E0= -.12537611E+04  d E =-.385688E-04
       N       E                     dE             d eps       ncg     rms          rms(c)
DAV:   1    -0.122322269711E+04    0.10243E-03   -0.88463E-03  1140   0.814E-02    0.559E-02
DAV:   2    -0.122322304567E+04   -0.34856E-03   -0.96054E-04  1212   0.295E-02    0.216E-01
DAV:   3    -0.122322279602E+04    0.24966E-03   -0.11624E-03   900   0.282E-02    0.139E-01
DAV:   4    -0.122322272209E+04    0.73922E-04   -0.18254E-04   696   0.124E-02
 209 F= -.12538251E+04 E0= -.12537629E+04  d E =-.365312E-04
       N       E                     dE             d eps       ncg     rms          rms(c)
DAV:   1    -0.122322271071E+04    0.85307E-04   -0.10823E-03  1080   0.287E-02    0.373E-02
DAV:   2    -0.122322283430E+04   -0.12360E-03   -0.33644E-04   732   0.127E-02    0.154E-01
DAV:   3    -0.122322278376E+04    0.50546E-04   -0.62248E-04   744   0.177E-02
 210 F= -.12538252E+04 E0= -.12537602E+04  d E =-.108520E-03
       N       E                     dE             d eps       ncg     rms          rms(c)
DAV:   1    -0.122322278783E+04    0.46477E-04   -0.36191E-03  1128   0.532E-02    0.589E-02
DAV:   2    -0.122322337050E+04   -0.58268E-03   -0.66889E-04   864   0.221E-02    0.361E-01
DAV:   3    -0.122322301943E+04    0.35108E-03   -0.15634E-03   948   0.302E-02    0.184E-01
DAV:   4    -0.122322284991E+04    0.16951E-03   -0.30083E-04   684   0.119E-02    0.994E-02
DAV:   5    -0.122322277142E+04    0.78490E-04   -0.41365E-05   624   0.525E-03
 211 F= -.12538252E+04 E0= -.12537625E+04  d E =0.873579E-05
       N       E                     dE             d eps       ncg     rms          rms(c)
DAV:   1    -0.122322283499E+04    0.14927E-04   -0.31398E-02  1152   0.154E-01    0.587E-02
DAV:   2    -0.122322325107E+04   -0.41608E-03   -0.15876E-03  1440   0.402E-02    0.239E-01
DAV:   3    -0.122322293798E+04    0.31309E-03   -0.10701E-03   948   0.254E-02    0.111E-01
DAV:   4    -0.122322290862E+04    0.29356E-04   -0.92765E-05   624   0.951E-03
 212 F= -.12538254E+04 E0= -.12537631E+04  d E =-.139518E-03
       N       E                     dE             d eps       ncg     rms          rms(c)
DAV:   1    -0.122322249112E+04    0.44686E-03   -0.12566E-01  1152   0.309E-01    0.115E-01
DAV:   2    -0.122322280283E+04   -0.31171E-03   -0.40528E-03  1596   0.586E-02    0.156E-01
DAV:   3    -0.122322323300E+04   -0.43017E-03   -0.29465E-03  1164   0.310E-02    0.351E-01
DAV:   4    -0.122322284614E+04    0.38686E-03   -0.19646E-03  1020   0.301E-02    0.167E-01
DAV:   5    -0.122322270021E+04    0.14593E-03   -0.19245E-04   696   0.107E-02    0.904E-02
DAV:   6    -0.122322267260E+04    0.27601E-04   -0.18734E-04   696   0.853E-03
 213 F= -.12538251E+04 E0= -.12537622E+04  d E =0.730991E-04
       N       E                     dE             d eps       ncg     rms          rms(c)
DAV:   1    -0.122322279162E+04   -0.91412E-04   -0.63613E-02  1152   0.219E-01    0.113E-01
DAV:   2    -0.122322326064E+04   -0.46902E-03   -0.21456E-03  1620   0.470E-02    0.248E-01
DAV:   3    -0.122322336642E+04   -0.10578E-03   -0.18626E-03  1068   0.348E-02    0.250E-01
DAV:   4    -0.122322293965E+04    0.42677E-03   -0.13039E-03   924   0.298E-02    0.104E-01
DAV:   5    -0.122322288115E+04    0.58500E-04   -0.10984E-04   672   0.111E-02
 214 F= -.12538253E+04 E0= -.12537630E+04  d E =-.118819E-03
       N       E                     dE             d eps       ncg     rms          rms(c)
DAV:   1    -0.122322288697E+04    0.52679E-04   -0.27199E-03  1104   0.474E-02    0.435E-02
DAV:   2    -0.122322364050E+04   -0.75353E-03   -0.15667E-03   984   0.305E-02    0.324E-01
DAV:   3    -0.122322291164E+04    0.72887E-03   -0.14081E-03   900   0.293E-02    0.655E-02
DAV:   4    -0.122322289544E+04    0.16199E-04   -0.61477E-05   648   0.693E-03
 215 F= -.12538253E+04 E0= -.12537626E+04  d E =-.129668E-03
       N       E                     dE             d eps       ncg     rms          rms(c)
DAV:   1    -0.122322291792E+04   -0.62866E-05   -0.24462E-03  1068   0.434E-02    0.215E-02
DAV:   2    -0.122322294627E+04   -0.28343E-04   -0.93132E-05   660   0.958E-03
 216 F= -.12538254E+04 E0= -.12537625E+04  d E =-.646874E-04
       N       E                     dE             d eps       ncg     rms          rms(c)
DAV:   1    -0.122322298078E+04   -0.62856E-04   -0.22115E-02  1152   0.129E-01    0.538E-02
DAV:   2    -0.122322306016E+04   -0.79376E-04   -0.71926E-04  1260   0.281E-02
 217 F= -.12538256E+04 E0= -.12537636E+04  d E =-.220263E-03
       N       E                     dE             d eps       ncg     rms          rms(c)
DAV:   1    -0.122322311134E+04   -0.13056E-03   -0.88233E-02  1152   0.258E-01    0.217E-01
DAV:   2    -0.122323674723E+04   -0.13636E-01   -0.46689E-02  1716   0.168E-01    0.967E-01
DAV:   3    -0.122322374719E+04    0.13000E-01   -0.33046E-02  1512   0.138E-01    0.313E-01
DAV:   4    -0.122322338935E+04    0.35784E-03   -0.15083E-03  1080   0.260E-02    0.251E-01
DAV:   5    -0.122322316365E+04    0.22570E-03   -0.91665E-04   924   0.228E-02    0.159E-01
DAV:   6    -0.122322320460E+04   -0.40957E-04   -0.67679E-04   756   0.195E-02
 218 F= -.12538258E+04 E0= -.12537653E+04  d E =-.448604E-03
       N       E                     dE             d eps       ncg     rms          rms(c)
DAV:   1    -0.122322306462E+04    0.99026E-04   -0.12115E-02  1152   0.958E-02    0.801E-02
DAV:   2    -0.122322376459E+04   -0.69997E-03   -0.23024E-03  1224   0.303E-02    0.358E-01
DAV:   3    -0.122322339992E+04    0.36467E-03   -0.31440E-03  1008   0.328E-02    0.258E-01
DAV:   4    -0.122322323917E+04    0.16075E-03   -0.98080E-04   768   0.182E-02    0.161E-01
DAV:   5    -0.122322306961E+04    0.16955E-03   -0.22378E-04   684   0.775E-03    0.554E-02
DAV:   6    -0.122322309056E+04   -0.20946E-04   -0.10822E-04   672   0.815E-03
 219 F= -.12538257E+04 E0= -.12537631E+04  d E =0.890986E-04
       N       E                     dE             d eps       ncg     rms          rms(c)
DAV:   1    -0.122322301862E+04    0.50990E-04   -0.22436E-02  1152   0.130E-01    0.584E-02
DAV:   2    -0.122322314875E+04   -0.13013E-03   -0.84955E-04  1332   0.287E-02    0.120E-01
DAV:   3    -0.122322324637E+04   -0.97622E-04   -0.86676E-04   816   0.215E-02
 220 F= -.12538259E+04 E0= -.12537655E+04  d E =-.101024E-03
       N       E                     dE             d eps       ncg     rms          rms(c)
DAV:   1    -0.122322317712E+04   -0.28371E-04   -0.46566E-03  1152   0.595E-02    0.528E-02
DAV:   2    -0.122322338992E+04   -0.21280E-03   -0.28201E-04   816   0.172E-02    0.200E-01
DAV:   3    -0.122322335190E+04    0.38013E-04   -0.79284E-04   780   0.222E-02
 221 F= -.12538260E+04 E0= -.12537601E+04  d E =-.132005E-03
       N       E                     dE             d eps       ncg     rms          rms(c)
DAV:   1    -0.122322328285E+04    0.10707E-03   -0.54466E-03  1164   0.627E-02    0.920E-02
DAV:   2    -0.122322664912E+04   -0.33663E-02   -0.41747E-03  1260   0.511E-02    0.965E-01
DAV:   3    -0.122322400974E+04    0.26394E-02   -0.52412E-03  1236   0.531E-02    0.219E-01
DAV:   4    -0.122322365473E+04    0.35501E-03   -0.46493E-04   828   0.160E-02    0.252E-01
DAV:   5    -0.122322327244E+04    0.38229E-03   -0.20969E-04   696   0.125E-02    0.664E-02
DAV:   6    -0.122322332693E+04   -0.54486E-04   -0.12912E-04   636   0.832E-03
 222 F= -.12538260E+04 E0= -.12537625E+04  d E =-.135155E-03
       N       E                     dE             d eps       ncg     rms          rms(c)
DAV:   1    -0.122322315048E+04    0.12196E-03   -0.19986E-02  1152   0.119E-01    0.654E-02
DAV:   2    -0.122322354308E+04   -0.39260E-03   -0.10107E-03  1392   0.336E-02    0.266E-01
DAV:   3    -0.122322337890E+04    0.16418E-03   -0.99881E-04   984   0.240E-02    0.165E-01
DAV:   4    -0.122322330379E+04    0.75118E-04   -0.44876E-04   720   0.164E-02
 223 F= -.12538261E+04 E0= -.12537614E+04  d E =-.168628E-03
       N       E                     dE             d eps       ncg     rms          rms(c)
DAV:   1    -0.122322329959E+04    0.79318E-04   -0.20317E-03  1104   0.377E-02    0.111E-01
DAV:   2    -0.122322377787E+04   -0.47828E-03   -0.49377E-04   816   0.169E-02    0.304E-01
DAV:   3    -0.122322342893E+04    0.34894E-03   -0.56204E-04   744   0.178E-02    0.148E-01
DAV:   4    -0.122322336690E+04    0.62032E-04   -0.36122E-04   732   0.159E-02
 224 F= -.12538261E+04 E0= -.12537636E+04  d E =-.214839E-03
       N       E                     dE             d eps       ncg     rms          rms(c)
DAV:   1    -0.122322328936E+04    0.13958E-03   -0.38893E-03  1092   0.509E-02    0.527E-02
DAV:   2    -0.122322376081E+04   -0.47146E-03   -0.68064E-04   888   0.217E-02    0.315E-01
DAV:   3    -0.122322347347E+04    0.28734E-03   -0.11501E-03   876   0.254E-02    0.161E-01
DAV:   4    -0.122322337361E+04    0.99860E-04   -0.29470E-04   684   0.120E-02
 225 F= -.12538262E+04 E0= -.12537622E+04  d E =-.440821E-04
       N       E                     dE             d eps       ncg     rms          rms(c)
DAV:   1    -0.122322325740E+04    0.21607E-03   -0.24524E-02  1152   0.126E-01    0.827E-02
DAV:   2    -0.122322347760E+04   -0.22019E-03   -0.12186E-03  1320   0.314E-02    0.187E-01
DAV:   3    -0.122322372563E+04   -0.24803E-03   -0.20142E-03  1104   0.329E-02    0.243E-01
DAV:   4    -0.122322332927E+04    0.39636E-03   -0.78026E-04   840   0.229E-02    0.718E-02
DAV:   5    -0.122322330479E+04    0.24484E-04   -0.52925E-05   624   0.502E-03
 226 F= -.12538262E+04 E0= -.12537635E+04  d E =-.698709E-04
       N       E                     dE             d eps       ncg     rms          rms(c)
DAV:   1    -0.122322330272E+04    0.26547E-04   -0.59705E-04   996   0.194E-02    0.496E-02
DAV:   2    -0.122322338630E+04   -0.83579E-04   -0.30149E-04   612   0.675E-03
 227 F= -.12538263E+04 E0= -.12537635E+04  d E =-.165637E-03
       N       E                     dE             d eps       ncg     rms          rms(c)
DAV:   1    -0.122322330681E+04   -0.40823E-05   -0.67969E-04   768   0.135E-02    0.648E-02
DAV:   2    -0.122322359029E+04   -0.28348E-03   -0.14304E-03   684   0.105E-02    0.229E-01
DAV:   3    -0.122322333878E+04    0.25151E-03   -0.20592E-03   720   0.136E-02    0.961E-02
DAV:   4    -0.122322336414E+04   -0.25365E-04   -0.10579E-03   708   0.986E-03    0.996E-02
DAV:   5    -0.122322329056E+04    0.73580E-04   -0.51340E-04   624   0.505E-03
 228 F= -.12538262E+04 E0= -.12537630E+04  d E =-.615442E-04
       N       E                     dE             d eps       ncg     rms          rms(c)
DAV:   1    -0.122322336725E+04   -0.31054E-05   -0.17587E-03  1092   0.346E-02    0.323E-02
DAV:   2    -0.122322346252E+04   -0.95273E-04   -0.72954E-04   744   0.106E-02
 229 F= -.12538264E+04 E0= -.12537618E+04  d E =-.183071E-03
       N       E                     dE             d eps       ncg     rms          rms(c)
DAV:   1    -0.122322345201E+04   -0.84755E-04   -0.28208E-03  1164   0.413E-02    0.109E-01
DAV:   2    -0.122323338601E+04   -0.99340E-02   -0.14002E-02  1380   0.820E-02    0.183E+00
DAV:   3    -0.122322549863E+04    0.78874E-02   -0.10503E-02  1248   0.751E-02    0.277E-01
DAV:   4    -0.122322371233E+04    0.17863E-02   -0.12744E-03  1008   0.261E-02    0.193E-01
DAV:   5    -0.122322343426E+04    0.27808E-03   -0.56321E-04   684   0.134E-02    0.901E-02
DAV:   6    -0.122322345915E+04   -0.24890E-04   -0.21983E-04   624   0.817E-03
 230 F= -.12538264E+04 E0= -.12537633E+04  d E =-.191484E-03
       N       E                     dE             d eps       ncg     rms          rms(c)
DAV:   1    -0.122322332533E+04    0.10892E-03   -0.72133E-03  1128   0.721E-02    0.525E-02
DAV:   2    -0.122322358943E+04   -0.26410E-03   -0.13646E-03   828   0.174E-02    0.226E-01
DAV:   3    -0.122322346630E+04    0.12314E-03   -0.16243E-03   780   0.197E-02    0.152E-01
DAV:   4    -0.122322340917E+04    0.57128E-04   -0.55419E-04   708   0.128E-02
 231 F= -.12538263E+04 E0= -.12537624E+04  d E =-.165228E-03
       N       E                     dE             d eps       ncg     rms          rms(c)
DAV:   1    -0.122322337271E+04    0.93589E-04   -0.32872E-03  1116   0.486E-02    0.344E-02
DAV:   2    -0.122322361884E+04   -0.24613E-03   -0.54439E-04   888   0.197E-02    0.181E-01
DAV:   3    -0.122322340066E+04    0.21818E-03   -0.58349E-04   792   0.197E-02    0.763E-02
DAV:   4    -0.122322339082E+04    0.98411E-05   -0.58614E-05   624   0.707E-03
 232 F= -.12538263E+04 E0= -.12537636E+04  d E =-.130945E-03
       N       E                     dE             d eps       ncg     rms          rms(c)
DAV:   1    -0.122322340296E+04   -0.22927E-05   -0.19220E-03  1068   0.390E-02    0.247E-02
DAV:   2    -0.122322341940E+04   -0.16448E-04   -0.13179E-04   612   0.829E-03
 233 F= -.12538264E+04 E0= -.12537635E+04  d E =-.555409E-04
       N       E                     dE             d eps       ncg     rms          rms(c)
DAV:   1    -0.122322341195E+04   -0.89921E-05   -0.35303E-03  1116   0.518E-02    0.432E-02
DAV:   2    -0.122322352122E+04   -0.10928E-03   -0.61482E-04   840   0.144E-02    0.148E-01
DAV:   3    -0.122322352306E+04   -0.18325E-05   -0.96236E-04   732   0.157E-02
 234 F= -.12538265E+04 E0= -.12537613E+04  d E =-.194830E-03
       N       E                     dE             d eps       ncg     rms          rms(c)
DAV:   1    -0.122322332026E+04    0.20097E-03   -0.13758E-02  1164   0.104E-01    0.700E-02
DAV:   2    -0.122322435118E+04   -0.10309E-02   -0.28475E-03  1212   0.333E-02    0.490E-01
DAV:   3    -0.122322362352E+04    0.72765E-03   -0.34182E-03  1176   0.367E-02    0.177E-01
DAV:   4    -0.122322340934E+04    0.21418E-03   -0.37528E-04   696   0.130E-02    0.125E-01
DAV:   5    -0.122322330143E+04    0.10791E-03   -0.11840E-04   672   0.744E-03    0.325E-02
DAV:   6    -0.122322332479E+04   -0.23364E-04   -0.44404E-05   636   0.635E-03
 235 F= -.12538264E+04 E0= -.12537631E+04  d E =-.681343E-04
       N       E                     dE             d eps       ncg     rms          rms(c)
DAV:   1    -0.122322337607E+04   -0.74642E-04   -0.64137E-03  1140   0.709E-02    0.400E-02
DAV:   2    -0.122322346968E+04   -0.93608E-04   -0.36058E-04   828   0.149E-02
 236 F= -.12538265E+04 E0= -.12537640E+04  d E =-.163670E-03
       N       E                     dE             d eps       ncg     rms          rms(c)
DAV:   1    -0.122322338179E+04   -0.57136E-05   -0.30789E-03  1104   0.477E-02    0.706E-02
DAV:   2    -0.122322558728E+04   -0.22055E-02   -0.57200E-03  1308   0.569E-02    0.483E-01
DAV:   3    -0.122322342969E+04    0.21576E-02   -0.46941E-03  1176   0.510E-02    0.840E-02
DAV:   4    -0.122322338636E+04    0.43333E-04   -0.27566E-04   684   0.884E-03
 237 F= -.12538264E+04 E0= -.12537641E+04  d E =0.439864E-04
       N       E                     dE             d eps       ncg     rms          rms(c)
DAV:   1    -0.122322338685E+04    0.42848E-04   -0.53977E-04   888   0.173E-02    0.536E-02
DAV:   2    -0.122322355843E+04   -0.17159E-03   -0.64658E-04   684   0.136E-02    0.178E-01
DAV:   3    -0.122322352046E+04    0.37974E-04   -0.11987E-03   780   0.219E-02    0.148E-01
DAV:   4    -0.122322337922E+04    0.14124E-03   -0.41245E-04   708   0.131E-02    0.366E-02
DAV:   5    -0.122322337104E+04    0.81800E-05   -0.89874E-05   612   0.316E-03
 238 F= -.12538264E+04 E0= -.12537635E+04  d E =0.457416E-04
       N       E                     dE             d eps       ncg     rms          rms(c)
DAV:   1    -0.122322339666E+04   -0.17443E-04   -0.19441E-03  1068   0.384E-02    0.254E-02
DAV:   2    -0.122322341093E+04   -0.14264E-04   -0.20503E-04   636   0.983E-03
 239 F= -.12538265E+04 E0= -.12537633E+04  d E =-.662036E-04
