basalPlane                              
           1
    15.900000    0.000000    0.000000
    -7.950000   13.769804    0.000000
     0.000000    0.000000   32.380000
   C    Cr   H    Mo   S 
  10   1  10  50 100
Direct configuration=     1
   0.46216756  0.43761794  0.50637562
   0.53408522  0.52468799  0.48728526
   0.47581013  0.35967627  0.49310860
   0.55770796  0.39877738  0.46542746
   0.59370552  0.50180076  0.46183473
   0.36283075  0.46308313  0.40574280
   0.43810081  0.38701569  0.37384955
   0.44579175  0.47982039  0.38126941
   0.35165064  0.31431912  0.39327702
   0.30534558  0.36044723  0.41296787
   0.45079426  0.42146832  0.43866366
   0.65579293  0.55315038  0.44363792
   0.50228983  0.54945470  0.36956250
   0.34560995  0.51783433  0.41605093
   0.48988149  0.37444730  0.35693453
   0.32797729  0.23724066  0.39474613
   0.54042891  0.59576307  0.49032530
   0.40374223  0.43093425  0.52611338
   0.43147825  0.28398198  0.50216530
   0.58860383  0.35858214  0.45099112
   0.23918390  0.32413301  0.43127617
   0.60000000  0.60000000  0.65735022
   0.20000000  0.80000000  0.21911674
   0.20000000  0.60000000  0.65735022
   0.60000000  0.80000000  0.21911674
   0.20000000  0.60000000  0.21911674
   0.60000000  0.80000000  0.65735022
   0.20000000  0.40000000  0.21911674
   0.80000000  0.00000000  0.21911674
   0.20000000  0.20000000  0.65735022
   0.80000000  0.00000000  0.65735022
   0.20000000  0.20000000  0.21911674
   0.20000000  0.80000000  0.65735022
   0.20000000  0.40000000  0.65735022
   0.60000000  0.60000000  0.21911674
   0.40000000  0.60000000  0.21911674
   0.40000000  0.00000000  0.65735022
   0.60000000  0.40000000  0.65735022
   0.40000000  0.20000000  0.21911674
   0.60000000  0.40000000  0.21911674
   0.40000000  0.20000000  0.65735022
   0.40000000  0.40000000  0.21911674
   0.60000000  0.20000000  0.65735022
   0.40000000  0.40000000  0.65735022
   0.60000000  0.20000000  0.21911674
   0.40000000  0.80000000  0.65735022
   0.40000000  0.60000000  0.65735022
   0.60000000  0.00000000  0.65735022
   0.40000000  0.80000000  0.21911674
   0.60000000  0.00000000  0.21911674
   0.40000000  0.00000000  0.21911674
   0.80000000  0.20000000  0.21911674
   0.20000000  0.00000000  0.65735022
   0.20000000  0.00000000  0.21911674
   0.00000000  0.00000000  0.21911674
   0.80000000  0.80000000  0.65735022
   0.00000000  0.00000000  0.65735022
   0.80000000  0.80000000  0.21911674
   0.00000000  0.20000000  0.21911674
   0.00000000  0.20000000  0.65735022
   0.80000000  0.60000000  0.65735022
   0.00000000  0.40000000  0.21911674
   0.00000000  0.40000000  0.65735022
   0.00000000  0.60000000  0.21911674
   0.80000000  0.40000000  0.65735022
   0.00000000  0.60000000  0.65735022
   0.80000000  0.60000000  0.21911674
   0.80000000  0.40000000  0.21911674
   0.00000000  0.80000000  0.65735022
   0.00000000  0.80000000  0.21911674
   0.80000000  0.20000000  0.65735022
   0.93333333  0.06666667  0.16985794
   0.73333333  0.26666667  0.60809141
   0.73333333  0.26666667  0.70660902
   0.93333333  0.66666667  0.70660902
   0.93333333  0.66666667  0.60809141
   0.73333333  0.26666667  0.16985794
   0.73333333  0.26666667  0.26837554
   0.93333333  0.46666667  0.26837554
   0.73333333  0.06666667  0.60809141
   0.73333333  0.06666667  0.70660902
   0.93333333  0.06666667  0.70660902
   0.93333333  0.86666667  0.16985794
   0.73333333  0.06666667  0.16985794
   0.93333333  0.06666667  0.60809141
   0.73333333  0.06666667  0.26837554
   0.93333333  0.26666667  0.16985794
   0.93333333  0.26666667  0.70660902
   0.93333333  0.86666667  0.26837554
   0.73333333  0.46666667  0.26837554
   0.73333333  0.46666667  0.16985794
   0.73333333  0.86666667  0.16985794
   0.73333333  0.86666667  0.70660902
   0.73333333  0.86666667  0.26837554
   0.93333333  0.46666667  0.16985794
   0.73333333  0.86666667  0.60809141
   0.73333333  0.66666667  0.60809141
   0.73333333  0.66666667  0.70660902
   0.93333333  0.46666667  0.70660902
   0.73333333  0.66666667  0.16985794
   0.93333333  0.46666667  0.60809141
   0.73333333  0.66666667  0.26837554
   0.93333333  0.26666667  0.60809141
   0.93333333  0.26666667  0.26837554
   0.73333333  0.46666667  0.60809141
   0.73333333  0.46666667  0.70660902
   0.93333333  0.66666667  0.26837554
   0.93333333  0.06666667  0.26837554
   0.93333333  0.66666667  0.16985794
   0.53333333  0.86666667  0.60809141
   0.53333333  0.06666667  0.70660902
   0.53333333  0.86666667  0.16985794
   0.33333333  0.26666667  0.16985794
   0.33333333  0.26666667  0.26837554
   0.33333333  0.06666667  0.60809141
   0.33333333  0.06666667  0.70660902
   0.33333333  0.06666667  0.16985794
   0.33333333  0.06666667  0.26837554
   0.13333333  0.86666667  0.60809141
   0.13333333  0.86666667  0.70660902
   0.13333333  0.86666667  0.16985794
   0.13333333  0.86666667  0.26837554
   0.13333333  0.66666667  0.60809141
   0.13333333  0.66666667  0.70660902
   0.33333333  0.26666667  0.70660902
   0.13333333  0.66666667  0.16985794
   0.13333333  0.46666667  0.60809141
   0.13333333  0.46666667  0.70660902
   0.13333333  0.46666667  0.16985794
   0.13333333  0.46666667  0.26837554
   0.13333333  0.26666667  0.60809141
   0.13333333  0.26666667  0.70660902
   0.13333333  0.26666667  0.16985794
   0.13333333  0.26666667  0.26837554
   0.13333333  0.06666667  0.60809141
   0.13333333  0.06666667  0.70660902
   0.13333333  0.06666667  0.16985794
   0.13333333  0.06666667  0.26837554
   0.13333333  0.66666667  0.26837554
   0.33333333  0.26666667  0.60809141
   0.33333333  0.46666667  0.26837554
   0.33333333  0.46666667  0.16985794
   0.53333333  0.86666667  0.26837554
   0.53333333  0.66666667  0.60809141
   0.53333333  0.66666667  0.70660902
   0.53333333  0.66666667  0.16985794
   0.53333333  0.66666667  0.26837554
   0.53333333  0.46666667  0.60809141
   0.53333333  0.46666667  0.70660902
   0.53333333  0.46666667  0.16985794
   0.53333333  0.46666667  0.26837554
   0.53333333  0.26666667  0.60809141
   0.53333333  0.26666667  0.70660902
   0.53333333  0.26666667  0.16985794
   0.53333333  0.26666667  0.26837554
   0.53333333  0.06666667  0.60809141
   0.93333333  0.86666667  0.70660902
   0.53333333  0.06666667  0.16985794
   0.53333333  0.06666667  0.26837554
   0.33333333  0.86666667  0.60809141
   0.33333333  0.86666667  0.70660902
   0.33333333  0.86666667  0.16985794
   0.33333333  0.86666667  0.26837554
   0.33333333  0.66666667  0.60809141
   0.33333333  0.66666667  0.70660902
   0.33333333  0.66666667  0.16985794
   0.33333333  0.66666667  0.26837554
   0.33333333  0.46666667  0.60809141
   0.33333333  0.46666667  0.70660902
   0.53333333  0.86666667  0.70660902
   0.93333333  0.86666667  0.60809141
Direct configuration=     2
   0.46194932  0.43745164  0.50625500
   0.53394568  0.52458534  0.48716693
   0.47589125  0.35976438  0.49301012
   0.55765337  0.39891956  0.46547710
   0.59355282  0.50158147  0.46183517
   0.36296635  0.46305853  0.40571690
   0.43821389  0.38711888  0.37393022
   0.44565285  0.47969795  0.38129627
   0.35176951  0.31434077  0.39338129
   0.30546154  0.36058575  0.41301273
   0.45055615  0.42129969  0.43869559
   0.65575547  0.55312806  0.44363759
   0.50232809  0.54947226  0.36955276
   0.34566368  0.51782578  0.41605261
   0.48989129  0.37446086  0.35692796
   0.32798103  0.23730943  0.39473510
   0.54042570  0.59574871  0.49035113
   0.40374899  0.43091576  0.52612669
   0.43150772  0.28401074  0.50218004
   0.58859088  0.35861269  0.45098521
   0.23925802  0.32420778  0.43126559
   0.59999853  0.59998039  0.65734646
   0.20000000  0.80000000  0.21911674
   0.20001280  0.60000712  0.65734341
   0.60000000  0.80000000  0.21911674
   0.20000000  0.60000000  0.21911674
   0.60000615  0.80002085  0.65734491
   0.20000000  0.40000000  0.21911674
   0.80000000  0.00000000  0.21911674
   0.19998107  0.19999464  0.65735088
   0.79999702  0.00000554  0.65734621
   0.20000000  0.20000000  0.21911674
   0.20000292  0.80000182  0.65734557
   0.19996081  0.39997279  0.65734469
   0.60000000  0.60000000  0.21911674
   0.40000000  0.60000000  0.21911674
   0.39998746 -0.00000586  0.65734345
   0.59998158  0.40000706  0.65734216
   0.40000000  0.20000000  0.21911674
   0.60000000  0.40000000  0.21911674
   0.40002037  0.20000342  0.65734003
   0.40000000  0.40000000  0.21911674
   0.60000093  0.19999451  0.65734712
   0.40006169  0.40001375  0.65732406
   0.60000000  0.20000000  0.21911674
   0.39999845  0.79999398  0.65734268
   0.40001873  0.60003885  0.65733779
   0.60001845 -0.00000307  0.65734353
   0.40000000  0.80000000  0.21911674
   0.60000000  0.00000000  0.21911674
   0.40000000  0.00000000  0.21911674
   0.80000000  0.20000000  0.21911674
   0.19999938 -0.00000150  0.65734648
   0.20000000  0.00000000  0.21911674
   0.00000000  0.00000000  0.21911674
   0.80000127  0.80000225  0.65734979
  -0.00000365 -0.00000199  0.65733758
   0.80000000  0.80000000  0.21911674
   0.00000000  0.20000000  0.21911674
  -0.00001231  0.19999715  0.65734419
   0.80000097  0.60000429  0.65734171
   0.00000000  0.40000000  0.21911674
   0.00000170  0.39998299  0.65734440
   0.00000000  0.60000000  0.21911674
   0.79999663  0.39999838  0.65734647
   0.00000540  0.60002153  0.65734596
   0.80000000  0.60000000  0.21911674
   0.80000000  0.40000000  0.21911674
   0.00000060  0.79999748  0.65734799
   0.00000000  0.80000000  0.21911674
   0.80000354  0.19999108  0.65734455
   0.93333333  0.06666667  0.16985794
   0.73333225  0.26667167  0.60896555
   0.73333327  0.26666719  0.70573318
   0.93333438  0.66666728  0.70573354
   0.93333005  0.66666404  0.60896724
   0.73333333  0.26666667  0.16985794
   0.73333333  0.26666667  0.26837554
   0.93333333  0.46666667  0.26837554
   0.73333537  0.06666836  0.60896885
   0.73333329  0.06666565  0.70573377
   0.93333302  0.06666731  0.70573303
   0.93333333  0.86666667  0.16985794
   0.73333333  0.06666667  0.16985794
   0.93332954  0.06666501  0.60896906
   0.73333333  0.06666667  0.26837554
   0.93333333  0.26666667  0.16985794
   0.93333494  0.26666750  0.70573463
   0.93333333  0.86666667  0.26837554
   0.73333333  0.46666667  0.26837554
   0.73333333  0.46666667  0.16985794
   0.73333333  0.86666667  0.16985794
   0.73333252  0.86666698  0.70573245
   0.73333333  0.86666667  0.26837554
   0.93333333  0.46666667  0.16985794
   0.73333597  0.86666614  0.60896779
   0.73332476  0.66665125  0.60895021
   0.73333389  0.66666690  0.70573464
   0.93333386  0.46666812  0.70573416
   0.73333333  0.66666667  0.16985794
   0.93332752  0.46666806  0.60896664
   0.73333333  0.66666667  0.26837554
   0.93332958  0.26666594  0.60896749
   0.93333333  0.26666667  0.26837554
   0.73332293  0.46666845  0.60895100
   0.73333340  0.46666705  0.70573434
   0.93333333  0.66666667  0.26837554
   0.93333333  0.06666667  0.26837554
   0.93333333  0.66666667  0.16985794
   0.53333734  0.86667121  0.60896772
   0.53333409  0.06666797  0.70573417
   0.53333333  0.86666667  0.16985794
   0.33333333  0.26666667  0.16985794
   0.33333333  0.26666667  0.26837554
   0.33333643  0.06666675  0.60896389
   0.33333503  0.06666832  0.70573372
   0.33333333  0.06666667  0.16985794
   0.33333333  0.06666667  0.26837554
   0.13333027  0.86666265  0.60896898
   0.13333311  0.86666629  0.70573317
   0.13333333  0.86666667  0.16985794
   0.13333333  0.86666667  0.26837554
   0.13332940  0.66666798  0.60896898
   0.13333157  0.66666730  0.70573321
   0.33333870  0.26667126  0.70573412
   0.13333333  0.66666667  0.16985794
   0.13332395  0.46666761  0.60896721
   0.13333306  0.46666557  0.70573428
   0.13333333  0.46666667  0.16985794
   0.13333333  0.46666667  0.26837554
   0.13332670  0.26666110  0.60896387
   0.13333606  0.26667024  0.70573315
   0.13333333  0.26666667  0.16985794
   0.13333333  0.26666667  0.26837554
   0.13333082  0.06666245  0.60896594
   0.13333404  0.06666586  0.70573382
   0.13333333  0.06666667  0.16985794
   0.13333333  0.06666667  0.26837554
   0.13333333  0.66666667  0.26837554
   0.33334977  0.26667184  0.60893141
   0.33333333  0.46666667  0.26837554
   0.33333333  0.46666667  0.16985794
   0.53333333  0.86666667  0.26837554
   0.53334186  0.66665807  0.60894400
   0.53333029  0.66666312  0.70573288
   0.53333333  0.66666667  0.16985794
   0.53333333  0.66666667  0.26837554
   0.53343551  0.46670293  0.60901199
   0.53333087  0.46666509  0.70574106
   0.53333333  0.46666667  0.16985794
   0.53333333  0.46666667  0.26837554
   0.53333741  0.26668052  0.60894222
   0.53333057  0.26666747  0.70573409
   0.53333333  0.26666667  0.16985794
   0.53333333  0.26666667  0.26837554
   0.53333728  0.06667231  0.60896626
   0.93333432  0.86666589  0.70573324
   0.53333333  0.06666667  0.16985794
   0.53333333  0.06666667  0.26837554
   0.33333205  0.86666720  0.60896996
   0.33333423  0.86666885  0.70573317
   0.33333333  0.86666667  0.16985794
   0.33333333  0.86666667  0.26837554
   0.33333134  0.66667483  0.60896716
   0.33333555  0.66666629  0.70573507
   0.33333333  0.66666667  0.16985794
   0.33333333  0.66666667  0.26837554
   0.33333317  0.46667521  0.60895378
   0.33333760  0.46666707  0.70573278
   0.53333593  0.86666747  0.70573387
   0.93333046  0.86666116  0.60896736
Direct configuration=     3
   0.46189271  0.43740851  0.50622371
   0.53390948  0.52455872  0.48713624
   0.47591229  0.35978724  0.49298458
   0.55763921  0.39895644  0.46548998
   0.59351322  0.50152458  0.46183529
   0.36300153  0.46305215  0.40571019
   0.43824322  0.38714564  0.37395114
   0.44561681  0.47966618  0.38130324
   0.35180034  0.31434638  0.39340834
   0.30549162  0.36062168  0.41302437
   0.45049438  0.42125594  0.43870388
   0.65574575  0.55312227  0.44363750
   0.50233802  0.54947681  0.36955023
   0.34567762  0.51782356  0.41605304
   0.48989383  0.37446437  0.35692625
   0.32798200  0.23732727  0.39473224
   0.54042487  0.59574498  0.49035783
   0.40375074  0.43091096  0.52613014
   0.43151536  0.28401820  0.50218387
   0.58858752  0.35862061  0.45098368
   0.23927725  0.32422718  0.43126285
   0.59999814  0.59997531  0.65734549
   0.20000000  0.80000000  0.21911674
   0.20001612  0.60000896  0.65734164
   0.60000000  0.80000000  0.21911674
   0.20000000  0.60000000  0.21911674
   0.60000774  0.80002626  0.65734353
   0.20000000  0.40000000  0.21911674
   0.80000000  0.00000000  0.21911674
   0.19997616  0.19999324  0.65735105
   0.79999624  0.00000697  0.65734517
   0.20000000  0.20000000  0.21911674
   0.20000367  0.80000229  0.65734436
   0.19995064  0.39996573  0.65734325
   0.60000000  0.60000000  0.21911674
   0.40000000  0.60000000  0.21911674
   0.39998420 -0.00000739  0.65734170
   0.59997680  0.40000889  0.65734007
   0.40000000  0.20000000  0.21911674
   0.60000000  0.40000000  0.21911674
   0.40002566  0.20000430  0.65733739
   0.40000000  0.40000000  0.21911674
   0.60000117  0.19999309  0.65734632
   0.40007769  0.40001732  0.65731728
   0.60000000  0.20000000  0.21911674
   0.39999805  0.79999242  0.65734072
   0.40002358  0.60004893  0.65733456
   0.60002324 -0.00000387  0.65734179
   0.40000000  0.80000000  0.21911674
   0.60000000  0.00000000  0.21911674
   0.40000000  0.00000000  0.21911674
   0.80000000  0.20000000  0.21911674
   0.19999922 -0.00000188  0.65734551
   0.20000000  0.00000000  0.21911674
   0.00000000  0.00000000  0.21911674
   0.80000160  0.80000283  0.65734968
  -0.00000460 -0.00000251  0.65733430
   0.80000000  0.80000000  0.21911674
   0.00000000  0.20000000  0.21911674
  -0.00001551  0.19999641  0.65734263
   0.80000122  0.60000541  0.65733951
   0.00000000  0.40000000  0.21911674
   0.00000215  0.39997858  0.65734289
   0.00000000  0.60000000  0.21911674
   0.79999576  0.39999796  0.65734550
   0.00000680  0.60002712  0.65734486
   0.80000000  0.60000000  0.21911674
   0.80000000  0.40000000  0.21911674
   0.00000076  0.79999682  0.65734741
   0.00000000  0.80000000  0.21911674
   0.80000446  0.19998876  0.65734307
   0.93333333  0.06666667  0.16985794
   0.73333197  0.26667296  0.60919230
   0.73333325  0.26666732  0.70550598
   0.93333466  0.66666744  0.70550644
   0.93332919  0.66666336  0.60919443
   0.73333333  0.26666667  0.16985794
   0.73333333  0.26666667  0.26837554
   0.93333333  0.46666667  0.26837554
   0.73333590  0.06666880  0.60919645
   0.73333328  0.06666539  0.70550673
   0.93333294  0.06666747  0.70550580
   0.93333333  0.86666667  0.16985794
   0.73333333  0.06666667  0.16985794
   0.93332856  0.06666458  0.60919672
   0.73333333  0.06666667  0.26837554
   0.93333333  0.26666667  0.16985794
   0.93333536  0.26666772  0.70550781
   0.93333333  0.86666667  0.26837554
   0.73333333  0.46666667  0.26837554
   0.73333333  0.46666667  0.16985794
   0.73333333  0.86666667  0.16985794
   0.73333232  0.86666707  0.70550507
   0.73333333  0.86666667  0.26837554
   0.93333333  0.46666667  0.16985794
   0.73333665  0.86666601  0.60919512
   0.73332254  0.66664725  0.60917298
   0.73333403  0.66666696  0.70550783
   0.93333400  0.46666850  0.70550721
   0.73333333  0.66666667  0.16985794
   0.93332601  0.46666843  0.60919368
   0.73333333  0.66666667  0.26837554
   0.93332860  0.26666575  0.60919475
   0.93333333  0.26666667  0.26837554
   0.73332023  0.46666891  0.60917399
   0.73333342  0.46666715  0.70550744
   0.93333333  0.66666667  0.26837554
   0.93333333  0.06666667  0.26837554
   0.93333333  0.66666667  0.16985794
   0.53333837  0.86667239  0.60919504
   0.53333429  0.06666831  0.70550723
   0.53333333  0.86666667  0.16985794
   0.33333333  0.26666667  0.16985794
   0.33333333  0.26666667  0.26837554
   0.33333723  0.06666677  0.60919022
   0.33333548  0.06666875  0.70550666
   0.33333333  0.06666667  0.16985794
   0.33333333  0.06666667  0.26837554
   0.13332947  0.86666161  0.60919662
   0.13333305  0.86666619  0.70550597
   0.13333333  0.86666667  0.16985794
   0.13333333  0.86666667  0.26837554
   0.13332838  0.66666832  0.60919662
   0.13333111  0.66666746  0.70550603
   0.33334009  0.26667245  0.70550717
   0.13333333  0.66666667  0.16985794
   0.13332152  0.46666786  0.60919440
   0.13333299  0.46666528  0.70550738
   0.13333333  0.46666667  0.16985794
   0.13333333  0.46666667  0.26837554
   0.13332497  0.26665965  0.60919019
   0.13333676  0.26667116  0.70550595
   0.13333333  0.26666667  0.16985794
   0.13333333  0.26666667  0.26837554
   0.13333016  0.06666135  0.60919280
   0.13333422  0.06666565  0.70550679
   0.13333333  0.06666667  0.16985794
   0.13333333  0.06666667  0.26837554
   0.13333333  0.66666667  0.26837554
   0.33335404  0.26667319  0.60914931
   0.33333333  0.46666667  0.26837554
   0.33333333  0.46666667  0.16985794
   0.53333333  0.86666667  0.26837554
   0.53334407  0.66665584  0.60916516
   0.53332949  0.66666220  0.70550561
   0.53333333  0.66666667  0.16985794
   0.53333333  0.66666667  0.26837554
   0.53346202  0.46671234  0.60925079
   0.53333023  0.46666468  0.70551590
   0.53333333  0.46666667  0.16985794
   0.53333333  0.46666667  0.26837554
   0.53333846  0.26668412  0.60916293
   0.53332985  0.26666767  0.70550713
   0.53333333  0.26666667  0.16985794
   0.53333333  0.26666667  0.26837554
   0.53333830  0.06667377  0.60919320
   0.93333457  0.86666569  0.70550605
   0.53333333  0.06666667  0.16985794
   0.53333333  0.06666667  0.26837554
   0.33333172  0.86666734  0.60919786
   0.33333446  0.86666941  0.70550598
   0.33333333  0.86666667  0.16985794
   0.33333333  0.86666667  0.26837554
   0.33333083  0.66667695  0.60919434
   0.33333612  0.66666619  0.70550837
   0.33333333  0.66666667  0.16985794
   0.33333333  0.66666667  0.26837554
   0.33333312  0.46667742  0.60917748
   0.33333871  0.46666718  0.70550548
   0.53333661  0.86666768  0.70550685
   0.93332972  0.86665973  0.60919459
Direct configuration=     4
   0.46191950  0.43742892  0.50623851
   0.53392661  0.52457132  0.48715077
   0.47590233  0.35977642  0.49299667
   0.55764591  0.39893899  0.46548388
   0.59353196  0.50155150  0.46183523
   0.36298488  0.46305517  0.40571336
   0.43822934  0.38713298  0.37394124
   0.44563387  0.47968121  0.38129995
   0.35178575  0.31434373  0.39339554
   0.30547739  0.36060468  0.41301886
   0.45052361  0.42127664  0.43869996
   0.65575035  0.55312501  0.44363754
   0.50233332  0.54947465  0.36955143
   0.34567102  0.51782461  0.41605284
   0.48989262  0.37446271  0.35692706
   0.32798154  0.23731883  0.39473360
   0.54042526  0.59574674  0.49035466
   0.40374991  0.43091323  0.52612851
   0.43151174  0.28401467  0.50218206
   0.58858911  0.35861686  0.45098441
   0.23926815  0.32421800  0.43126415
   0.59999832  0.59997771  0.65734595
   0.20000000  0.80000000  0.21911674
   0.20001455  0.60000809  0.65734248
   0.60000000  0.80000000  0.21911674
   0.20000000  0.60000000  0.21911674
   0.60000699  0.80002370  0.65734418
   0.20000000  0.40000000  0.21911674
   0.80000000  0.00000000  0.21911674
   0.19997848  0.19999390  0.65735097
   0.79999661  0.00000629  0.65734566
   0.20000000  0.20000000  0.21911674
   0.20000331  0.80000207  0.65734493
   0.19995545  0.39996907  0.65734393
   0.60000000  0.60000000  0.21911674
   0.40000000  0.60000000  0.21911674
   0.39998574 -0.00000667  0.65734253
   0.59997906  0.40000802  0.65734106
   0.40000000  0.20000000  0.21911674
   0.60000000  0.40000000  0.21911674
   0.40002316  0.20000388  0.65733864
   0.40000000  0.40000000  0.21911674
   0.60000106  0.19999376  0.65734670
   0.40007011  0.40001563  0.65732049
   0.60000000  0.20000000  0.21911674
   0.39999824  0.79999316  0.65734165
   0.40002129  0.60004416  0.65733609
   0.60002097 -0.00000349  0.65734262
   0.40000000  0.80000000  0.21911674
   0.60000000  0.00000000  0.21911674
   0.40000000  0.00000000  0.21911674
   0.80000000  0.20000000  0.21911674
   0.19999930 -0.00000170  0.65734597
   0.20000000  0.00000000  0.21911674
   0.00000000  0.00000000  0.21911674
   0.80000144  0.80000255  0.65734973
  -0.00000415 -0.00000227  0.65733585
   0.80000000  0.80000000  0.21911674
   0.00000000  0.20000000  0.21911674
  -0.00001399  0.19999676  0.65734337
   0.80000110  0.60000488  0.65734055
   0.00000000  0.40000000  0.21911674
   0.00000194  0.39998067  0.65734361
   0.00000000  0.60000000  0.21911674
   0.79999617  0.39999816  0.65734596
   0.00000614  0.60002447  0.65734538
   0.80000000  0.60000000  0.21911674
   0.80000000  0.40000000  0.21911674
   0.00000068  0.79999713  0.65734768
   0.00000000  0.80000000  0.21911674
   0.80000402  0.19998986  0.65734377
   0.93333333  0.06666667  0.16985794
   0.73333210  0.26667235  0.60908500
   0.73333326  0.26666726  0.70561349
   0.93333453  0.66666736  0.70561391
   0.93332960  0.66666369  0.60908692
   0.73333333  0.26666667  0.16985794
   0.73333333  0.26666667  0.26837554
   0.93333333  0.46666667  0.26837554
   0.73333565  0.06666860  0.60908875
   0.73333328  0.06666552  0.70561417
   0.93333298  0.06666740  0.70561333
   0.93333333  0.86666667  0.16985794
   0.73333333  0.06666667  0.16985794
   0.93332902  0.06666479  0.60908899
   0.73333333  0.06666667  0.26837554
   0.93333333  0.26666667  0.16985794
   0.93333516  0.26666762  0.70561515
   0.93333333  0.86666667  0.26837554
   0.73333333  0.46666667  0.26837554
   0.73333333  0.46666667  0.16985794
   0.73333333  0.86666667  0.16985794
   0.73333241  0.86666703  0.70561267
   0.73333333  0.86666667  0.26837554
   0.93333333  0.46666667  0.16985794
   0.73333633  0.86666607  0.60908754
   0.73332359  0.66664914  0.60906756
   0.73333396  0.66666693  0.70561516
   0.93333393  0.46666832  0.70561461
   0.73333333  0.66666667  0.16985794
   0.93332673  0.46666825  0.60908624
   0.73333333  0.66666667  0.26837554
   0.93332906  0.26666584  0.60908721
   0.93333333  0.26666667  0.26837554
   0.73332151  0.46666869  0.60906847
   0.73333341  0.46666710  0.70561481
   0.93333333  0.66666667  0.26837554
   0.93333333  0.06666667  0.26837554
   0.93333333  0.66666667  0.16985794
   0.53333788  0.86667183  0.60908747
   0.53333420  0.06666815  0.70561462
   0.53333333  0.86666667  0.16985794
   0.33333333  0.26666667  0.16985794
   0.33333333  0.26666667  0.26837554
   0.33333685  0.06666676  0.60908312
   0.33333527  0.06666854  0.70561411
   0.33333333  0.06666667  0.16985794
   0.33333333  0.06666667  0.26837554
   0.13332985  0.86666210  0.60908889
   0.13333308  0.86666624  0.70561348
   0.13333333  0.86666667  0.16985794
   0.13333333  0.86666667  0.26837554
   0.13332886  0.66666816  0.60908890
   0.13333133  0.66666739  0.70561354
   0.33333943  0.26667188  0.70561457
   0.13333333  0.66666667  0.16985794
   0.13332267  0.46666774  0.60908689
   0.13333302  0.46666542  0.70561475
   0.13333333  0.46666667  0.16985794
   0.13333333  0.46666667  0.26837554
   0.13332579  0.26666034  0.60908309
   0.13333643  0.26667072  0.70561346
   0.13333333  0.26666667  0.16985794
   0.13333333  0.26666667  0.26837554
   0.13333047  0.06666187  0.60908545
   0.13333413  0.06666575  0.70561422
   0.13333333  0.06666667  0.16985794
   0.13333333  0.06666667  0.26837554
   0.13333333  0.66666667  0.26837554
   0.33335202  0.26667255  0.60904619
   0.33333333  0.46666667  0.26837554
   0.33333333  0.46666667  0.16985794
   0.53333333  0.86666667  0.26837554
   0.53334302  0.66665690  0.60906050
   0.53332987  0.66666264  0.70561316
   0.53333333  0.66666667  0.16985794
   0.53333333  0.66666667  0.26837554
   0.53344948  0.46670789  0.60913779
   0.53333054  0.46666487  0.70562245
   0.53333333  0.46666667  0.16985794
   0.53333333  0.46666667  0.26837554
   0.53333796  0.26668241  0.60905849
   0.53333019  0.26666758  0.70561453
   0.53333333  0.26666667  0.16985794
   0.53333333  0.26666667  0.26837554
   0.53333782  0.06667308  0.60908581
   0.93333445  0.86666579  0.70561356
   0.53333333  0.06666667  0.16985794
   0.53333333  0.06666667  0.26837554
   0.33333188  0.86666727  0.60909001
   0.33333435  0.86666914  0.70561349
   0.33333333  0.86666667  0.16985794
   0.33333333  0.86666667  0.26837554
   0.33333107  0.66667594  0.60908683
   0.33333585  0.66666623  0.70561565
   0.33333333  0.66666667  0.16985794
   0.33333333  0.66666667  0.26837554
   0.33333314  0.46667637  0.60907162
   0.33333818  0.46666713  0.70561305
   0.53333629  0.86666758  0.70561428
   0.93333007  0.86666041  0.60908706
Direct configuration=     5
   0.46198233  0.43771445  0.50632920
   0.53377299  0.52466230  0.48730032
   0.47531319  0.35912078  0.49326715
   0.55816356  0.39832776  0.46532267
   0.59414884  0.50242504  0.46175126
   0.36251267  0.46333182  0.40579397
   0.43809367  0.38665199  0.37386382
   0.44631291  0.48032140  0.38107932
   0.35173429  0.31453056  0.39333016
   0.30525813  0.36019502  0.41294472
   0.45060727  0.42135417  0.43867641
   0.65551487  0.55290510  0.44368201
   0.50212567  0.54920112  0.36958934
   0.34577563  0.51772841  0.41602129
   0.48987173  0.37451370  0.35694381
   0.32794317  0.23720952  0.39474026
   0.54039865  0.59564350  0.49034211
   0.40370818  0.43084908  0.52611649
   0.43167140  0.28421591  0.50214718
   0.58845034  0.35882614  0.45103946
   0.23927113  0.32428274  0.43127494
   0.60001125  0.60000413  0.65736367
   0.20000000  0.80000000  0.21911674
   0.20000853  0.60000175  0.65734929
   0.60000000  0.80000000  0.21911674
   0.20000000  0.60000000  0.21911674
   0.59999787  0.79999078  0.65734569
   0.20000000  0.40000000  0.21911674
   0.80000000  0.00000000  0.21911674
   0.20001891  0.20002266  0.65734763
   0.80000258  0.00000603  0.65735306
   0.20000000  0.20000000  0.21911674
   0.20000164  0.80000216  0.65735151
   0.19998604  0.39997765  0.65734738
   0.60000000  0.60000000  0.21911674
   0.40000000  0.60000000  0.21911674
   0.39999337 -0.00000214  0.65734875
   0.59999991  0.39998996  0.65736456
   0.40000000  0.20000000  0.21911674
   0.60000000  0.40000000  0.21911674
   0.40002430  0.20002561  0.65732828
   0.40000000  0.40000000  0.21911674
   0.59999163  0.20001085  0.65734885
   0.40005270  0.40000284  0.65732600
   0.60000000  0.20000000  0.21911674
   0.40000097  0.80000100  0.65735050
   0.40002367  0.60002568  0.65733474
   0.60001069  0.00000214  0.65735074
   0.40000000  0.80000000  0.21911674
   0.60000000  0.00000000  0.21911674
   0.40000000  0.00000000  0.21911674
   0.80000000  0.20000000  0.21911674
   0.20000214  0.00000512  0.65734923
   0.20000000  0.00000000  0.21911674
   0.00000000  0.00000000  0.21911674
   0.79999018  0.79998410  0.65735003
  -0.00000329 -0.00000570  0.65734486
   0.80000000  0.80000000  0.21911674
   0.00000000  0.20000000  0.21911674
  -0.00000821  0.19999652  0.65735122
   0.79998908  0.59999798  0.65734037
   0.00000000  0.40000000  0.21911674
  -0.00000535  0.39999117  0.65735091
   0.00000000  0.60000000  0.21911674
   0.79998730  0.40000293  0.65734840
   0.00000055  0.60001262  0.65735118
   0.80000000  0.60000000  0.21911674
   0.80000000  0.40000000  0.21911674
  -0.00000285  0.79999693  0.65735228
   0.00000000  0.80000000  0.21911674
   0.80000320  0.19999673  0.65735064
   0.93333333  0.06666667  0.16985794
   0.73332741  0.26667305  0.60911410
   0.73333198  0.26666353  0.70557541
   0.93332802  0.66666726  0.70557962
   0.93332372  0.66666497  0.60911314
   0.73333333  0.26666667  0.16985794
   0.73333333  0.26666667  0.26837554
   0.93333333  0.46666667  0.26837554
   0.73334071  0.06667063  0.60911321
   0.73333651  0.06666728  0.70558094
   0.93333384  0.06666682  0.70557554
   0.93333333  0.86666667  0.16985794
   0.73333333  0.06666667  0.16985794
   0.93332442  0.06666546  0.60911434
   0.73333333  0.06666667  0.26837554
   0.93333333  0.26666667  0.16985794
   0.93333126  0.26666041  0.70558013
   0.93333333  0.86666667  0.26837554
   0.73333333  0.46666667  0.26837554
   0.73333333  0.46666667  0.16985794
   0.73333333  0.86666667  0.16985794
   0.73332888  0.86666900  0.70557718
   0.73333333  0.86666667  0.26837554
   0.93333333  0.46666667  0.16985794
   0.73333453  0.86666340  0.60911509