  93  93   0   0
  0.3967126E+02  0.9570947E-09  0.1276126E-08  0.3488026E-08  0.5000000E-15
  1.000000000000000E-004
  CAR 
 basalPlane                              
      2.30111438    -19.28708296  301     -0.00055750      1.00000000
    -19.287  0.0000E+00  0.0000E+00
    -19.215  0.0000E+00  0.0000E+00
    -19.143  0.0000E+00  0.0000E+00
    -19.071  0.0000E+00  0.0000E+00
    -18.999  0.0000E+00  0.0000E+00
    -18.927  0.0000E+00  0.0000E+00
    -18.855  0.1234E-17  0.8882E-19
    -18.783  0.3118E-14  0.2244E-15
    -18.711  0.2727E-11  0.1964E-12
    -18.639  0.8671E-09  0.6259E-10
    -18.567  0.1010E-06  0.7328E-08
    -18.496  0.4347E-05  0.3202E-06
    -18.424  0.7004E-04  0.5361E-05
    -18.352  0.4280E-03  0.3616E-04
    -18.280  0.1004E-02  0.1084E-03
    -18.208  0.9098E-03  0.1739E-03
    -18.136  0.3216E-03  0.1970E-03
    -18.064  0.9893E-04  0.2041E-03
    -17.992  0.3784E-03  0.2314E-03
    -17.920  0.9649E-03  0.3008E-03
    -17.848  0.9560E-03  0.3696E-03
    -17.776  0.3659E-03  0.3959E-03
    -17.704  0.5369E-04  0.3998E-03
    -17.632  0.2984E-05  0.4000E-03
    -17.560  0.6195E-07  0.4000E-03
    -17.488  0.4750E-09  0.4000E-03
    -17.416  0.1332E-11  0.4000E-03
    -17.344  0.1358E-14  0.4000E-03
    -17.272  0.6171E-18  0.4000E-03
    -17.200  0.0000E+00  0.4000E-03
    -17.128  0.0000E+00  0.4000E-03
    -17.056  0.0000E+00  0.4000E-03
    -16.984  0.0000E+00  0.4000E-03
    -16.912  0.0000E+00  0.4000E-03
    -16.840  0.0000E+00  0.4000E-03
    -16.768  0.0000E+00  0.4000E-03
    -16.696  0.0000E+00  0.4000E-03
    -16.625  0.0000E+00  0.4000E-03
    -16.553  0.0000E+00  0.4000E-03
    -16.481  0.0000E+00  0.4000E-03
    -16.409  0.0000E+00  0.4000E-03
    -16.337  0.1964E-15  0.4000E-03
    -16.265  0.2598E-12  0.4000E-03
    -16.193  0.1259E-09  0.4000E-03
    -16.121  0.2253E-07  0.4000E-03
    -16.049  0.1508E-05  0.4001E-03
    -15.977  0.3823E-04  0.4029E-03
    -15.905  0.3728E-03  0.4297E-03
    -15.833  0.1419E-02  0.5318E-03
    -15.761  0.2132E-02  0.6853E-03
    -15.689  0.1269E-02  0.7766E-03
    -15.617  0.2975E-03  0.7980E-03
    -15.545  0.2720E-04  0.7999E-03
    -15.473  0.9545E-06  0.8000E-03
    -15.401  0.1322E-07  0.8000E-03
    -15.329  0.8632E-07  0.8000E-03
    -15.257  0.5026E-05  0.8004E-03
    -15.185  0.1113E-03  0.8084E-03
    -15.113  0.9503E-03  0.8768E-03
    -15.041  0.3176E-02  0.1105E-02
    -14.969  0.4198E-02  0.1407E-02
    -14.897  0.2307E-02  0.1573E-02
    -14.826  0.1417E-02  0.1675E-02
    -14.754  0.3286E-02  0.1912E-02
    -14.682  0.4854E-02  0.2261E-02
    -14.610  0.5409E-02  0.2650E-02
    -14.538  0.6691E-02  0.3132E-02
    -14.466  0.4847E-02  0.3481E-02
    -14.394  0.1510E-02  0.3589E-02
    -14.322  0.6297E-03  0.3635E-02
    -14.250  0.2285E-02  0.3799E-02
    -14.178  0.5303E-02  0.4181E-02
    -14.106  0.8802E-02  0.4814E-02
    -14.034  0.1348E-01  0.5784E-02
    -13.962  0.1319E-01  0.6734E-02
    -13.890  0.8523E-02  0.7347E-02
    -13.818  0.8947E-02  0.7991E-02
    -13.746  0.1285E-01  0.8915E-02
    -13.674  0.1303E-01  0.9853E-02
    -13.602  0.8676E-02  0.1048E-01
    -13.530  0.3626E-02  0.1074E-01
    -13.458  0.7821E-03  0.1079E-01
    -13.386  0.7315E-04  0.1080E-01
    -13.314  0.2723E-05  0.1080E-01
    -13.242  0.3878E-07  0.1080E-01
    -13.170  0.2069E-09  0.1080E-01
    -13.098  0.4080E-12  0.1080E-01
    -13.027  0.2950E-15  0.1080E-01
    -12.955  0.0000E+00  0.1080E-01
    -12.883  0.0000E+00  0.1080E-01
    -12.811  0.0000E+00  0.1080E-01
    -12.739  0.0000E+00  0.1080E-01
    -12.667  0.0000E+00  0.1080E-01
    -12.595  0.0000E+00  0.1080E-01
    -12.523  0.0000E+00  0.1080E-01
    -12.451  0.0000E+00  0.1080E-01
    -12.379  0.0000E+00  0.1080E-01
    -12.307  0.0000E+00  0.1080E-01
    -12.235  0.0000E+00  0.1080E-01
    -12.163  0.0000E+00  0.1080E-01
    -12.091  0.0000E+00  0.1080E-01
    -12.019  0.0000E+00  0.1080E-01
    -11.947  0.0000E+00  0.1080E-01
    -11.875  0.0000E+00  0.1080E-01
    -11.803  0.0000E+00  0.1080E-01
    -11.731  0.0000E+00  0.1080E-01
    -11.659  0.0000E+00  0.1080E-01
    -11.587  0.0000E+00  0.1080E-01
    -11.515  0.0000E+00  0.1080E-01
    -11.443  0.0000E+00  0.1080E-01
    -11.371  0.0000E+00  0.1080E-01
    -11.299  0.0000E+00  0.1080E-01
    -11.227  0.0000E+00  0.1080E-01
    -11.156  0.0000E+00  0.1080E-01
    -11.084  0.0000E+00  0.1080E-01
    -11.012  0.0000E+00  0.1080E-01
    -10.940  0.0000E+00  0.1080E-01
    -10.868  0.0000E+00  0.1080E-01
    -10.796  0.0000E+00  0.1080E-01
    -10.724  0.0000E+00  0.1080E-01
    -10.652  0.0000E+00  0.1080E-01
    -10.580  0.0000E+00  0.1080E-01
    -10.508  0.0000E+00  0.1080E-01
    -10.436  0.0000E+00  0.1080E-01
    -10.364  0.0000E+00  0.1080E-01
    -10.292  0.0000E+00  0.1080E-01
    -10.220  0.0000E+00  0.1080E-01
    -10.148  0.2191E-16  0.1080E-01
    -10.076  0.3733E-13  0.1080E-01
    -10.004  0.2301E-10  0.1080E-01
     -9.932  0.5195E-08  0.1080E-01
     -9.860  0.4351E-06  0.1080E-01
     -9.788  0.1380E-04  0.1080E-01
     -9.716  0.1712E-03  0.1081E-01
     -9.644  0.8692E-03  0.1088E-01
     -9.572  0.1946E-02  0.1102E-01
     -9.500  0.2379E-02  0.1119E-01
     -9.428  0.2606E-02  0.1137E-01
     -9.357  0.2699E-02  0.1157E-01
     -9.285  0.1985E-02  0.1171E-01
     -9.213  0.9788E-03  0.1178E-01
     -9.141  0.4368E-03  0.1181E-01
     -9.069  0.7626E-03  0.1187E-01
     -8.997  0.1077E-02  0.1195E-01
     -8.925  0.6081E-03  0.1199E-01
     -8.853  0.1322E-03  0.1200E-01
     -8.781  0.1094E-04  0.1200E-01
     -8.709  0.3403E-06  0.1200E-01
     -8.637  0.3926E-08  0.1200E-01
     -8.565  0.1663E-10  0.1200E-01
     -8.493  0.2566E-13  0.1200E-01
     -8.421  0.1419E-16  0.1200E-01
     -8.349  0.0000E+00  0.1200E-01
     -8.277  0.0000E+00  0.1200E-01
     -8.205  0.0000E+00  0.1200E-01
     -8.133  0.0000E+00  0.1200E-01
     -8.061  0.1543E-18  0.1200E-01
     -7.989  0.3280E-15  0.1200E-01
     -7.917  0.4058E-12  0.1200E-01
     -7.845  0.1838E-09  0.1200E-01
     -7.773  0.3080E-07  0.1200E-01
     -7.701  0.1930E-05  0.1200E-01
     -7.629  0.4589E-04  0.1200E-01
     -7.557  0.4213E-03  0.1203E-01
     -7.486  0.1538E-02  0.1214E-01
     -7.414  0.2477E-02  0.1232E-01
     -7.342  0.2570E-02  0.1251E-01
     -7.270  0.2393E-02  0.1268E-01
     -7.198  0.1400E-02  0.1278E-01
     -7.126  0.1187E-02  0.1287E-01
     -7.054  0.4444E-02  0.1319E-01
     -6.982  0.1028E-01  0.1393E-01
     -6.910  0.1129E-01  0.1474E-01
     -6.838  0.7089E-02  0.1525E-01
     -6.766  0.7939E-02  0.1582E-01
     -6.694  0.1284E-01  0.1674E-01
     -6.622  0.1256E-01  0.1765E-01
     -6.550  0.8574E-02  0.1826E-01
     -6.478  0.4940E-02  0.1862E-01
     -6.406  0.2221E-02  0.1878E-01
     -6.334  0.1196E-02  0.1887E-01
     -6.262  0.1135E-02  0.1895E-01
     -6.190  0.7817E-03  0.1900E-01
     -6.118  0.1087E-02  0.1908E-01
     -6.046  0.2218E-02  0.1924E-01
     -5.974  0.3079E-02  0.1946E-01
     -5.902  0.5096E-02  0.1983E-01
     -5.830  0.7275E-02  0.2035E-01
     -5.758  0.6461E-02  0.2082E-01
     -5.687  0.6807E-02  0.2131E-01
     -5.615  0.1517E-01  0.2240E-01
     -5.543  0.2363E-01  0.2410E-01
     -5.471  0.1799E-01  0.2539E-01
     -5.399  0.7978E-02  0.2597E-01
     -5.327  0.5720E-02  0.2638E-01
     -5.255  0.7087E-02  0.2689E-01
     -5.183  0.6024E-02  0.2732E-01
     -5.111  0.3056E-02  0.2754E-01
     -5.039  0.2442E-02  0.2772E-01
     -4.967  0.6554E-02  0.2819E-01
     -4.895  0.1074E-01  0.2896E-01
     -4.823  0.8842E-02  0.2960E-01
     -4.751  0.7201E-02  0.3012E-01
     -4.679  0.8222E-02  0.3071E-01
     -4.607  0.8152E-02  0.3130E-01
     -4.535  0.6264E-02  0.3175E-01
     -4.463  0.3518E-02  0.3200E-01
     -4.391  0.3400E-02  0.3224E-01
     -4.319  0.5572E-02  0.3265E-01
     -4.247  0.6491E-02  0.3311E-01
     -4.175  0.5980E-02  0.3354E-01
     -4.103  0.5429E-02  0.3393E-01
     -4.031  0.4331E-02  0.3425E-01
     -3.959  0.1813E-02  0.3438E-01
     -3.888  0.3330E-03  0.3440E-01
     -3.816  0.3052E-03  0.3442E-01
     -3.744  0.1720E-02  0.3455E-01
     -3.672  0.4535E-02  0.3487E-01
     -3.600  0.7242E-02  0.3539E-01
     -3.528  0.1118E-01  0.3620E-01
     -3.456  0.1463E-01  0.3725E-01
     -3.384  0.1337E-01  0.3821E-01
     -3.312  0.1038E-01  0.3896E-01
     -3.240  0.8384E-02  0.3956E-01
     -3.168  0.7062E-02  0.4007E-01
     -3.096  0.8396E-02  0.4068E-01
     -3.024  0.1084E-01  0.4146E-01
     -2.952  0.9269E-02  0.4212E-01
     -2.880  0.5048E-02  0.4249E-01
     -2.808  0.3758E-02  0.4276E-01
     -2.736  0.5240E-02  0.4313E-01
     -2.664  0.7512E-02  0.4367E-01
     -2.592  0.7739E-02  0.4423E-01
     -2.520  0.5978E-02  0.4466E-01
     -2.448  0.5086E-02  0.4503E-01
     -2.376  0.7014E-02  0.4553E-01
     -2.304  0.7793E-02  0.4609E-01
     -2.232  0.6798E-02  0.4658E-01
     -2.160  0.5396E-02  0.4697E-01
     -2.088  0.2659E-02  0.4716E-01
     -2.017  0.1211E-02  0.4725E-01
     -1.945  0.2729E-02  0.4744E-01
     -1.873  0.4321E-02  0.4776E-01
     -1.801  0.3040E-02  0.4797E-01
     -1.729  0.2041E-02  0.4812E-01
     -1.657  0.2214E-02  0.4828E-01
     -1.585  0.1316E-02  0.4838E-01
     -1.513  0.3121E-03  0.4840E-01
     -1.441  0.2855E-04  0.4840E-01
     -1.369  0.9925E-06  0.4840E-01
     -1.297  0.1294E-07  0.4840E-01
     -1.225  0.6255E-10  0.4840E-01
     -1.153  0.1111E-12  0.4840E-01
     -1.081  0.7190E-16  0.4840E-01
     -1.009  0.0000E+00  0.4840E-01
     -0.937  0.0000E+00  0.4840E-01
     -0.865  0.0000E+00  0.4840E-01
     -0.793  0.4058E-16  0.4840E-01
     -0.721  0.6346E-13  0.4840E-01
     -0.649  0.3602E-10  0.4840E-01
     -0.577  0.7455E-08  0.4840E-01
     -0.505  0.5672E-06  0.4840E-01
     -0.433  0.1603E-04  0.4840E-01
     -0.361  0.1705E-03  0.4841E-01
     -0.289  0.6919E-03  0.4846E-01
     -0.218  0.1088E-02  0.4854E-01
     -0.146  0.7647E-03  0.4860E-01
     -0.074  0.8534E-03  0.4866E-01
     -0.002  0.1936E-02  0.4880E-01
      0.070  0.3019E-02  0.4901E-01
      0.142  0.4288E-02  0.4932E-01
      0.214  0.4598E-02  0.4965E-01
      0.286  0.3890E-02  0.4993E-01
      0.358  0.6045E-02  0.5037E-01
      0.430  0.1149E-01  0.5120E-01
      0.502  0.1667E-01  0.5240E-01
      0.574  0.1538E-01  0.5350E-01
      0.646  0.1347E-01  0.5447E-01
      0.718  0.1136E-01  0.5529E-01
      0.790  0.5638E-02  0.5569E-01
      0.862  0.1786E-02  0.5582E-01
      0.934  0.2801E-02  0.5602E-01
      1.006  0.7444E-02  0.5656E-01
      1.078  0.1109E-01  0.5736E-01
      1.150  0.1128E-01  0.5817E-01
      1.222  0.1047E-01  0.5892E-01
      1.294  0.8766E-02  0.5955E-01
      1.366  0.4749E-02  0.5990E-01
      1.438  0.1288E-02  0.5999E-01
      1.510  0.1556E-03  0.6000E-01
      1.582  0.7852E-05  0.6000E-01
      1.653  0.1580E-06  0.6000E-01
      1.725  0.1226E-08  0.6000E-01
      1.797  0.3578E-11  0.6000E-01
      1.869  0.3868E-14  0.6000E-01
      1.941  0.1234E-17  0.6000E-01
      2.013  0.0000E+00  0.6000E-01
      2.085  0.0000E+00  0.6000E-01
      2.157  0.0000E+00  0.6000E-01
      2.229  0.0000E+00  0.6000E-01
      2.301  0.0000E+00  0.6000E-01
