       N       E                     dE             d eps       ncg     rms          rms(c)
DAV:   1     0.439036253559E+04    0.43904E+04   -0.18018E+05   600   0.112E+03
DAV:   2    -0.168576169780E+02   -0.44072E+04   -0.42337E+04   984   0.266E+02
DAV:   3    -0.679079972871E+03   -0.66222E+03   -0.65226E+03   732   0.112E+02
DAV:   4    -0.713616961335E+03   -0.34537E+02   -0.34321E+02   864   0.324E+01
DAV:   5    -0.714910428172E+03   -0.12935E+01   -0.12845E+01   888   0.542E+00    0.123E+02
DAV:   6    -0.699708086413E+03    0.15202E+02   -0.59301E+02   816   0.302E+01    0.767E+01
DAV:   7    -0.710769152462E+03   -0.11061E+02   -0.80357E+02   912   0.678E+01    0.440E+01
DAV:   8    -0.675862768189E+03    0.34906E+02   -0.13120E+02   804   0.130E+01    0.344E+01
DAV:   9    -0.679318418584E+03   -0.34557E+01   -0.13474E+02   828   0.101E+01    0.416E+01
DAV:  10    -0.666162416993E+03    0.13156E+02   -0.16179E+02   840   0.943E+00    0.242E+01
DAV:  11    -0.659193205233E+03    0.69692E+01   -0.21389E+01   924   0.975E+00    0.147E+01
DAV:  12    -0.659759421531E+03   -0.56622E+00   -0.11049E+01   912   0.173E+00    0.169E+01
DAV:  13    -0.659017465895E+03    0.74196E+00   -0.39935E-01   888   0.557E-01    0.147E+01
DAV:  14    -0.662637539698E+03   -0.36201E+01   -0.14510E+01   960   0.265E+00    0.201E+01
DAV:  15    -0.662300510457E+03    0.33703E+00   -0.64998E-01   828   0.136E+00    0.189E+01
DAV:  16    -0.658559123295E+03    0.37414E+01   -0.24470E+00   876   0.397E+00    0.659E+00
DAV:  17    -0.658444268149E+03    0.11486E+00   -0.37059E-01   816   0.996E-01    0.529E+00
DAV:  18    -0.658590882670E+03   -0.14661E+00   -0.11212E-01   912   0.546E-01    0.594E+00
DAV:  19    -0.658500086325E+03    0.90796E-01   -0.11044E-01   852   0.302E-01    0.506E+00
DAV:  20    -0.658386775964E+03    0.11331E+00   -0.18541E-01   924   0.394E-01    0.425E+00
DAV:  21    -0.658257641425E+03    0.12913E+00   -0.29522E-01   936   0.477E-01    0.283E+00
DAV:  22    -0.658215154559E+03    0.42487E-01   -0.12895E-01   912   0.250E-01    0.232E+00
DAV:  23    -0.658206223078E+03    0.89315E-02   -0.41738E-02   864   0.971E-02    0.214E+00
DAV:  24    -0.658190918760E+03    0.15304E-01   -0.31072E-02   828   0.117E-01    0.192E+00
DAV:  25    -0.658141437798E+03    0.49481E-01   -0.97069E-02   900   0.408E-01    0.852E-01
DAV:  26    -0.658195798929E+03   -0.54361E-01   -0.27779E-01   888   0.278E-01    0.463E+00
DAV:  27    -0.658173190536E+03    0.22608E-01   -0.55769E-02   828   0.132E-01    0.253E+00
DAV:  28    -0.658158104988E+03    0.15086E-01   -0.94556E-03   780   0.822E-02    0.229E+00
DAV:  29    -0.658176629885E+03   -0.18525E-01   -0.59280E-03   708   0.576E-02    0.341E+00
DAV:  30    -0.658153944048E+03    0.22686E-01   -0.16483E-02   756   0.779E-02    0.130E+00
DAV:  31    -0.658149253502E+03    0.46905E-02   -0.37002E-03   780   0.666E-02    0.139E+00
DAV:  32    -0.658156391707E+03   -0.71382E-02   -0.19573E-03   612   0.429E-02    0.220E+00
DAV:  33    -0.658152187341E+03    0.42044E-02   -0.64174E-04   588   0.260E-02    0.185E+00
DAV:  34    -0.658144406270E+03    0.77811E-02   -0.64497E-04   516   0.307E-02    0.135E+00
DAV:  35    -0.658141039980E+03    0.33663E-02   -0.38991E-04   516   0.225E-02    0.120E+00
DAV:  36    -0.658138688210E+03    0.23518E-02   -0.13185E-04   372   0.162E-02    0.114E+00
DAV:  37    -0.658133774212E+03    0.49140E-02   -0.73345E-04   600   0.215E-02    0.897E-01
DAV:  38    -0.658130687482E+03    0.30867E-02   -0.40291E-04   516   0.237E-02    0.899E-01
DAV:  39    -0.658125532936E+03    0.51545E-02   -0.73968E-04   636   0.247E-02    0.621E-01
DAV:  40    -0.658119757368E+03    0.57756E-02   -0.11372E-03   696   0.413E-02    0.183E-01
DAV:  41    -0.658116784515E+03    0.29729E-02   -0.50405E-04   660   0.308E-02    0.180E-01
DAV:  42    -0.658115374391E+03    0.14101E-02   -0.11012E-04   456   0.173E-02    0.194E-01
DAV:  43    -0.658114306377E+03    0.10680E-02   -0.55622E-05   432   0.130E-02    0.235E-01
DAV:  44    -0.658111978151E+03    0.23282E-02   -0.20850E-04   612   0.200E-02    0.251E-01
DAV:  45    -0.658110589614E+03    0.13885E-02   -0.10859E-04   468   0.180E-02    0.323E-01
DAV:  46    -0.658109412652E+03    0.11770E-02   -0.12053E-04   480   0.155E-02    0.346E-01
DAV:  47    -0.658108515606E+03    0.89705E-03   -0.56630E-05   432   0.118E-02    0.352E-01
DAV:  48    -0.658106733099E+03    0.17825E-02   -0.40446E-04   588   0.231E-02    0.341E-01
DAV:  49    -0.658106745338E+03   -0.12239E-04   -0.86277E-05   384   0.114E-02
   1 F= -.67313979E+03 E0= -.67308021E+03  d E =-.673140E+03
       N       E                     dE             d eps       ncg     rms          rms(c)
DAV:   1    -0.658116807278E+03   -0.10074E-01   -0.10535E+01   624   0.471E+00    0.237E+00
DAV:   2    -0.658163761323E+03   -0.46954E-01   -0.47615E-01   732   0.114E+00    0.241E+00
DAV:   3    -0.658308673590E+03   -0.14491E+00   -0.88183E-01   900   0.958E-01    0.315E+00
DAV:   4    -0.658190763673E+03    0.11791E+00   -0.65858E-01   912   0.663E-01    0.188E+00
DAV:   5    -0.658170738460E+03    0.20025E-01   -0.29634E-01   876   0.257E-01    0.158E+00
DAV:   6    -0.658288117138E+03   -0.11738E+00   -0.98439E-01   876   0.443E-01    0.758E+00
DAV:   7    -0.658228285568E+03    0.59832E-01   -0.27890E+00   852   0.564E-01    0.143E+00
DAV:   8    -0.658188827908E+03    0.39458E-01   -0.55731E-02   912   0.242E-01    0.109E+00
DAV:   9    -0.658182702023E+03    0.61259E-02   -0.24257E-02   876   0.107E-01    0.103E+00
DAV:  10    -0.658176669014E+03    0.60330E-02   -0.11050E-02   696   0.650E-02    0.816E-01
DAV:  11    -0.658172861467E+03    0.38075E-02   -0.73933E-03   684   0.598E-02    0.833E-01
DAV:  12    -0.658168693657E+03    0.41678E-02   -0.41099E-03   660   0.455E-02    0.715E-01
DAV:  13    -0.658165962064E+03    0.27316E-02   -0.24124E-03   528   0.346E-02    0.726E-01
DAV:  14    -0.658165728085E+03    0.23398E-03   -0.97408E-04   432   0.206E-02    0.688E-01
DAV:  15    -0.658165580052E+03    0.14803E-03   -0.84567E-04   384   0.131E-02    0.704E-01
DAV:  16    -0.658165909494E+03   -0.32944E-03   -0.73925E-04   384   0.952E-03    0.693E-01
DAV:  17    -0.658165962947E+03   -0.53453E-04   -0.23739E-04   360   0.774E-03
   2 F= -.67321707E+03 E0= -.67316233E+03  d E =-.772815E-01
       N       E                     dE             d eps       ncg     rms          rms(c)
DAV:   1    -0.658166305901E+03   -0.39641E-03   -0.66377E-02   624   0.376E-01    0.727E-01
DAV:   2    -0.658651951873E+03   -0.48565E+00   -0.46508E+00   924   0.789E-01    0.125E+01
DAV:   3    -0.658244201125E+03    0.40775E+00   -0.56107E+00   888   0.642E-01    0.189E+00
DAV:   4    -0.658182538312E+03    0.61663E-01   -0.33692E-01   888   0.221E-01    0.146E+00
DAV:   5    -0.658171605470E+03    0.10933E-01   -0.20943E-01   768   0.120E-01    0.103E+00
DAV:   6    -0.658165094735E+03    0.65107E-02   -0.20155E-02   648   0.787E-02    0.878E-01
DAV:   7    -0.658159236698E+03    0.58580E-02   -0.15746E-02   684   0.831E-02    0.598E-01
DAV:   8    -0.658156167942E+03    0.30688E-02   -0.40958E-03   648   0.530E-02    0.440E-01
DAV:   9    -0.658154841879E+03    0.13261E-02   -0.24450E-03   564   0.407E-02    0.335E-01
DAV:  10    -0.658153900332E+03    0.94155E-03   -0.17198E-03   444   0.307E-02    0.209E-01
DAV:  11    -0.658153366386E+03    0.53395E-03   -0.67221E-04   624   0.314E-02    0.172E-01
DAV:  12    -0.658153168433E+03    0.19795E-03   -0.37672E-04   420   0.193E-02    0.881E-02
DAV:  13    -0.658153296342E+03   -0.12791E-03   -0.20931E-04   372   0.166E-02    0.202E-01
DAV:  14    -0.658153115852E+03    0.18049E-03   -0.25891E-04   444   0.160E-02    0.930E-02
DAV:  15    -0.658153106067E+03    0.97851E-05   -0.51076E-05   396   0.109E-02
   3 F= -.67320274E+03 E0= -.67313718E+03  d E =-.629472E-01
       N       E                     dE             d eps       ncg     rms          rms(c)
DAV:   1    -0.658153675992E+03   -0.56014E-03   -0.83566E-03   612   0.133E-01    0.893E-02
DAV:   2    -0.658153817716E+03   -0.14172E-03   -0.21446E-03   600   0.397E-02    0.160E-01
DAV:   3    -0.658153939948E+03   -0.12223E-03   -0.35481E-03   456   0.261E-02    0.199E-01
DAV:   4    -0.658153874910E+03    0.65039E-04   -0.20049E-03   456   0.273E-02    0.161E-01
DAV:   5    -0.658153767009E+03    0.10790E-03   -0.61604E-04   408   0.155E-02    0.852E-02
DAV:   6    -0.658153743592E+03    0.23417E-04   -0.22683E-04   384   0.792E-03
   4 F= -.67320286E+03 E0= -.67313787E+03  d E =-.630643E-01
       N       E                     dE             d eps       ncg     rms          rms(c)
DAV:   1    -0.658139068672E+03    0.14698E-01   -0.15627E+00   624   0.178E+00    0.926E-01
DAV:   2    -0.658230237313E+03   -0.91169E-01   -0.43081E-01   876   0.843E-01    0.229E+00
DAV:   3    -0.658154802575E+03    0.75435E-01   -0.31404E-01   900   0.565E-01    0.114E+00
DAV:   4    -0.658148205541E+03    0.65970E-02   -0.41204E-02   852   0.150E-01    0.865E-01
DAV:   5    -0.658147815695E+03    0.38985E-03   -0.59061E-03   852   0.110E-01    0.103E+00
DAV:   6    -0.658147749087E+03    0.66608E-04   -0.11364E-02   840   0.127E-01    0.762E-01
DAV:   7    -0.658144635951E+03    0.31131E-02   -0.44361E-03   792   0.850E-02    0.619E-01
DAV:   8    -0.658143293075E+03    0.13429E-02   -0.15744E-03   708   0.618E-02    0.314E-01
DAV:   9    -0.658142845391E+03    0.44768E-03   -0.64516E-04   468   0.352E-02    0.382E-01
DAV:  10    -0.658142331667E+03    0.51372E-03   -0.46232E-04   408   0.255E-02    0.117E-01
DAV:  11    -0.658142294536E+03    0.37131E-04   -0.30765E-04   396   0.196E-02
   5 F= -.67319771E+03 E0= -.67313025E+03  d E =0.514978E-02
       N       E                     dE             d eps       ncg     rms          rms(c)
DAV:   1    -0.658153265553E+03   -0.10934E-01   -0.60439E-01   624   0.111E+00    0.486E-01
DAV:   2    -0.658224418116E+03   -0.71153E-01   -0.11915E-01   864   0.418E-01    0.551E+00
DAV:   3    -0.658180566025E+03    0.43852E-01   -0.12851E-01   900   0.264E-01    0.882E-01
DAV:   4    -0.658161340247E+03    0.19226E-01   -0.11460E-02   864   0.119E-01    0.971E-01
DAV:   5    -0.658157598809E+03    0.37414E-02   -0.23565E-03   636   0.588E-02    0.576E-01
DAV:   6    -0.658156252082E+03    0.13467E-02   -0.34633E-03   576   0.539E-02    0.475E-01
DAV:   7    -0.658155303813E+03    0.94827E-03   -0.20994E-03   720   0.583E-02    0.317E-01
DAV:   8    -0.658154960376E+03    0.34344E-03   -0.22936E-03   528   0.392E-02    0.220E-01
DAV:   9    -0.658154617510E+03    0.34287E-03   -0.18065E-03   408   0.286E-02    0.147E-01
DAV:  10    -0.658154550668E+03    0.66843E-04   -0.11643E-03   432   0.214E-02    0.122E-01
DAV:  11    -0.658154455539E+03    0.95129E-04   -0.83508E-04   396   0.164E-02
   6 F= -.67320593E+03 E0= -.67314155E+03  d E =-.307763E-02
       N       E                     dE             d eps       ncg     rms          rms(c)
DAV:   1    -0.658149075441E+03    0.54752E-02   -0.77640E-01   600   0.136E+00    0.600E-01
DAV:   2    -0.658159146931E+03   -0.10071E-01   -0.48116E-02   828   0.363E-01    0.881E-01
DAV:   3    -0.658184935903E+03   -0.25789E-01   -0.91630E-02   900   0.291E-01    0.370E+00
DAV:   4    -0.658164716775E+03    0.20219E-01   -0.33888E-02   816   0.194E-01    0.742E-01
DAV:   5    -0.658154778344E+03    0.99384E-02   -0.53508E-03   696   0.825E-02    0.641E-01
DAV:   6    -0.658152552105E+03    0.22262E-02   -0.25951E-03   732   0.766E-02    0.308E-01
DAV:   7    -0.658153392637E+03   -0.84053E-03   -0.44261E-03   588   0.465E-02    0.648E-01
DAV:   8    -0.658152431368E+03    0.96127E-03   -0.43840E-03   492   0.400E-02    0.352E-01
DAV:   9    -0.658152010155E+03    0.42121E-03   -0.34170E-03   444   0.336E-02    0.347E-01
DAV:  10    -0.658151704457E+03    0.30570E-03   -0.19457E-03   408   0.270E-02    0.188E-01
DAV:  11    -0.658151551901E+03    0.15256E-03   -0.13582E-03   456   0.186E-02    0.167E-01
DAV:  12    -0.658151486262E+03    0.65640E-04   -0.74408E-04   384   0.135E-02
   7 F= -.67320688E+03 E0= -.67314045E+03  d E =-.944991E-03
       N       E                     dE             d eps       ncg     rms          rms(c)
DAV:   1    -0.658153959507E+03   -0.24076E-02   -0.14363E-01   600   0.582E-01    0.280E-01
DAV:   2    -0.658155092923E+03   -0.11334E-02   -0.10021E-02   804   0.138E-01    0.398E-01
DAV:   3    -0.658156476284E+03   -0.13834E-02   -0.14145E-02   660   0.752E-02    0.545E-01
DAV:   4    -0.658155438835E+03    0.10374E-02   -0.12352E-02   600   0.839E-02    0.475E-01
DAV:   5    -0.658154787260E+03    0.65158E-03   -0.36254E-03   516   0.475E-02    0.261E-01
DAV:   6    -0.658154571896E+03    0.21536E-03   -0.24586E-03   408   0.204E-02    0.220E-01
DAV:   7    -0.658154470758E+03    0.10114E-03   -0.33032E-03   456   0.290E-02    0.162E-01
DAV:   8    -0.658154389591E+03    0.81167E-04   -0.25499E-03   396   0.210E-02    0.141E-01
DAV:   9    -0.658154328646E+03    0.60945E-04   -0.15998E-03   384   0.129E-02    0.622E-02
DAV:  10    -0.658154307693E+03    0.20952E-04   -0.80602E-04   384   0.927E-03
   8 F= -.67320801E+03 E0= -.67314222E+03  d E =-.207597E-02
       N       E                     dE             d eps       ncg     rms          rms(c)
DAV:   1    -0.658154667106E+03   -0.33846E-03   -0.27830E-02   600   0.194E-01    0.697E-02
DAV:   2    -0.658156501720E+03   -0.18346E-02   -0.45747E-03   720   0.789E-02    0.502E-01
DAV:   3    -0.658154824712E+03    0.16770E-02   -0.33093E-03   552   0.562E-02    0.102E-01
DAV:   4    -0.658154757818E+03    0.66894E-04   -0.26945E-04   384   0.147E-02
   9 F= -.67320822E+03 E0= -.67314361E+03  d E =-.207318E-03
       N       E                     dE             d eps       ncg     rms          rms(c)
DAV:   1    -0.658154757905E+03    0.66806E-04   -0.47834E-04   480   0.191E-02    0.753E-02
DAV:   2    -0.658156476341E+03   -0.17184E-02   -0.31396E-03   624   0.477E-02    0.648E-01
DAV:   3    -0.658155135339E+03    0.13410E-02   -0.35014E-03   588   0.570E-02    0.226E-01
DAV:   4    -0.658154768965E+03    0.36637E-03   -0.34948E-04   408   0.166E-02    0.591E-02
DAV:   5    -0.658154732157E+03    0.36809E-04   -0.19416E-04   384   0.813E-03
  10 F= -.67320817E+03 E0= -.67314334E+03  d E =-.163045E-03
       N       E                     dE             d eps       ncg     rms          rms(c)
DAV:   1    -0.658154925273E+03   -0.15631E-03   -0.29446E-03   600   0.659E-02    0.427E-02
DAV:   2    -0.658155202859E+03   -0.27759E-03   -0.47415E-04   492   0.258E-02    0.236E-01
DAV:   3    -0.658155092177E+03    0.11068E-03   -0.82356E-04   468   0.272E-02    0.169E-01
DAV:   4    -0.658154980076E+03    0.11210E-03   -0.21311E-04   396   0.152E-02    0.900E-02
DAV:   5    -0.658154939023E+03    0.41053E-04   -0.29780E-05   384   0.674E-03
  11 F= -.67320827E+03 E0= -.67314284E+03  d E =-.102991E-03
       N       E                     dE             d eps       ncg     rms          rms(c)
DAV:   1    -0.658155444236E+03   -0.46416E-03   -0.26191E-02   600   0.196E-01    0.826E-02
DAV:   2    -0.658157056467E+03   -0.16122E-02   -0.31955E-03   744   0.749E-02    0.464E-01
DAV:   3    -0.658155606309E+03    0.14502E-02   -0.30785E-03   552   0.590E-02    0.148E-01
DAV:   4    -0.658155528165E+03    0.78144E-04   -0.19463E-04   408   0.186E-02
  12 F= -.67320855E+03 E0= -.67314472E+03  d E =-.380887E-03
       N       E                     dE             d eps       ncg     rms          rms(c)
DAV:   1    -0.658156027469E+03   -0.42116E-03   -0.10441E-01   600   0.391E-01    0.138E-01
DAV:   2    -0.658162139221E+03   -0.61118E-02   -0.14794E-02   852   0.155E-01    0.788E-01
DAV:   3    -0.658156447626E+03    0.56916E-02   -0.97641E-03   756   0.100E-01    0.153E-01
DAV:   4    -0.658156353534E+03    0.94092E-04   -0.38943E-04   468   0.230E-02
  13 F= -.67320876E+03 E0= -.67314519E+03  d E =-.585420E-03
       N       E                     dE             d eps       ncg     rms          rms(c)
DAV:   1    -0.658156505123E+03   -0.57497E-04   -0.10479E-02   612   0.122E-01    0.103E-01
DAV:   2    -0.658157499023E+03   -0.99390E-03   -0.17054E-03   648   0.438E-02    0.459E-01
DAV:   3    -0.658157227316E+03    0.27171E-03   -0.34802E-03   624   0.612E-02    0.339E-01
DAV:   4    -0.658156472598E+03    0.75472E-03   -0.63100E-04   456   0.286E-02    0.566E-02
DAV:   5    -0.658156450143E+03    0.22455E-04   -0.33507E-04   384   0.115E-02
  14 F= -.67320874E+03 E0= -.67314416E+03  d E =0.181828E-04
       N       E                     dE             d eps       ncg     rms          rms(c)
DAV:   1    -0.658156787013E+03   -0.31441E-03   -0.48037E-02   600   0.257E-01    0.809E-02
DAV:   2    -0.658157791499E+03   -0.10045E-02   -0.35465E-03   852   0.759E-02    0.384E-01
DAV:   3    -0.658157015918E+03    0.77558E-03   -0.25120E-03   588   0.460E-02    0.154E-01
DAV:   4    -0.658156955605E+03    0.60313E-04   -0.29923E-04   372   0.180E-02
  15 F= -.67320900E+03 E0= -.67314531E+03  d E =-.243445E-03
       N       E                     dE             d eps       ncg     rms          rms(c)
DAV:   1    -0.658157012197E+03    0.37214E-05   -0.11426E-02   600   0.126E-01    0.695E-02
DAV:   2    -0.658157706280E+03   -0.69408E-03   -0.13670E-03   552   0.422E-02    0.390E-01
DAV:   3    -0.658157269812E+03    0.43647E-03   -0.17971E-03   504   0.452E-02    0.208E-01
DAV:   4    -0.658157018912E+03    0.25090E-03   -0.18477E-04   360   0.166E-02    0.409E-02
DAV:   5    -0.658157007685E+03    0.11227E-04   -0.15035E-04   348   0.854E-03
  16 F= -.67320893E+03 E0= -.67314435E+03  d E =-.176482E-03
       N       E                     dE             d eps       ncg     rms          rms(c)
DAV:   1    -0.658157050544E+03   -0.31632E-04   -0.66000E-03   576   0.103E-01    0.508E-02
DAV:   2    -0.658157894901E+03   -0.84436E-03   -0.17030E-03   504   0.464E-02    0.441E-01
DAV:   3    -0.658157212097E+03    0.68280E-03   -0.15455E-03   444   0.400E-02    0.131E-01
DAV:   4    -0.658157080156E+03    0.13194E-03   -0.13348E-04   348   0.137E-02    0.500E-02
DAV:   5    -0.658157065884E+03    0.14272E-04   -0.12099E-04   348   0.830E-03
  17 F= -.67320912E+03 E0= -.67314408E+03  d E =-.183796E-03
       N       E                     dE             d eps       ncg     rms          rms(c)
DAV:   1    -0.658156983589E+03    0.96567E-04   -0.87477E-03   588   0.119E-01    0.522E-02
DAV:   2    -0.658157107500E+03   -0.12391E-03   -0.90508E-04   576   0.323E-02    0.149E-01
DAV:   3    -0.658157151176E+03   -0.43676E-04   -0.12089E-03   432   0.256E-02    0.157E-01
DAV:   4    -0.658157025049E+03    0.12613E-03   -0.56308E-04   420   0.207E-02    0.684E-02
DAV:   5    -0.658157005055E+03    0.19995E-04   -0.27418E-04   324   0.743E-03
  18 F= -.67320920E+03 E0= -.67314400E+03  d E =-.268346E-03
       N       E                     dE             d eps       ncg     rms          rms(c)
DAV:   1    -0.658156970921E+03    0.54128E-04   -0.64662E-03   576   0.104E-01    0.401E-02
DAV:   2    -0.658157281325E+03   -0.31040E-03   -0.80297E-04   504   0.372E-02    0.258E-01
DAV:   3    -0.658157031007E+03    0.25032E-03   -0.67608E-04   420   0.262E-02    0.793E-02
DAV:   4    -0.658157000403E+03    0.30604E-04   -0.65816E-05   324   0.113E-02
  19 F= -.67320942E+03 E0= -.67314367E+03  d E =-.216857E-03
       N       E                     dE             d eps       ncg     rms          rms(c)
DAV:   1    -0.658156586350E+03    0.44466E-03   -0.56787E-02   600   0.311E-01    0.104E-01
DAV:   2    -0.658156867169E+03   -0.28082E-03   -0.21246E-03   864   0.774E-02    0.200E-01
DAV:   3    -0.658157333860E+03   -0.46669E-03   -0.19030E-03   552   0.390E-02    0.318E-01
DAV:   4    -0.658156897499E+03    0.43636E-03   -0.13313E-03   468   0.379E-02    0.183E-01
DAV:   5    -0.658156774212E+03    0.12329E-03   -0.16498E-04   348   0.146E-02    0.102E-01
DAV:   6    -0.658156754112E+03    0.20100E-04   -0.12926E-04   348   0.102E-02
  20 F= -.67320984E+03 E0= -.67314503E+03  d E =-.636280E-03
       N       E                     dE             d eps       ncg     rms          rms(c)
DAV:   1    -0.658154553914E+03    0.22203E-02   -0.22502E-01   600   0.620E-01    0.211E-01
DAV:   2    -0.658158120321E+03   -0.35664E-02   -0.13166E-02   876   0.173E-01    0.932E-01
DAV:   3    -0.658157045973E+03    0.10743E-02   -0.10295E-02   720   0.928E-02    0.469E-01
DAV:   4    -0.658155428477E+03    0.16175E-02   -0.14950E-03   624   0.454E-02    0.228E-01
DAV:   5    -0.658155198088E+03    0.23039E-03   -0.34687E-04   456   0.215E-02    0.156E-01
DAV:   6    -0.658155105885E+03    0.92203E-04   -0.45914E-04   504   0.230E-02
  21 F= -.67320953E+03 E0= -.67314312E+03  d E =-.324785E-03
       N       E                     dE             d eps       ncg     rms          rms(c)
DAV:   1    -0.658156317460E+03   -0.11194E-02   -0.11472E-01   600   0.442E-01    0.214E-01
DAV:   2    -0.658165564482E+03   -0.92470E-02   -0.25572E-02   864   0.203E-01    0.871E-01
DAV:   3    -0.658156756378E+03    0.88081E-02   -0.23646E-02   840   0.151E-01    0.252E-01
DAV:   4    -0.658156907811E+03   -0.15143E-03   -0.13414E-03   492   0.376E-02    0.290E-01
DAV:   5    -0.658156504539E+03    0.40327E-03   -0.54512E-04   372   0.224E-02    0.132E-01
DAV:   6    -0.658156430518E+03    0.74021E-04   -0.51198E-04   420   0.175E-02
  22 F= -.67320991E+03 E0= -.67314456E+03  d E =-.705471E-03
       N       E                     dE             d eps       ncg     rms          rms(c)
DAV:   1    -0.658156519901E+03   -0.15362E-04   -0.22770E-03   588   0.579E-02    0.653E-02
DAV:   2    -0.658157029994E+03   -0.51009E-03   -0.29675E-03   420   0.316E-02    0.314E-01
DAV:   3    -0.658156818168E+03    0.21183E-03   -0.35667E-03   480   0.424E-02    0.244E-01
DAV:   4    -0.658156592002E+03    0.22617E-03   -0.82754E-04   420   0.235E-02    0.119E-01
DAV:   5    -0.658156518024E+03    0.73978E-04   -0.26863E-04   348   0.888E-03
  23 F= -.67320987E+03 E0= -.67314509E+03  d E =-.672626E-03
       N       E                     dE             d eps       ncg     rms          rms(c)
DAV:   1    -0.658156408916E+03    0.18309E-03   -0.12435E-02   600   0.135E-01    0.585E-02
DAV:   2    -0.658157489913E+03   -0.10810E-02   -0.27752E-03   576   0.543E-02    0.512E-01
DAV:   3    -0.658156675659E+03    0.81425E-03   -0.22692E-03   468   0.440E-02    0.151E-01
DAV:   4    -0.658156496094E+03    0.17956E-03   -0.20297E-04   348   0.160E-02    0.945E-02
DAV:   5    -0.658156445669E+03    0.50426E-04   -0.14069E-04   348   0.102E-02
  24 F= -.67321006E+03 E0= -.67314482E+03  d E =-.182964E-03
       N       E                     dE             d eps       ncg     rms          rms(c)
DAV:   1    -0.658156157983E+03    0.33811E-03   -0.36609E-02   600   0.233E-01    0.994E-02
DAV:   2    -0.658156866608E+03   -0.70862E-03   -0.18483E-03   804   0.615E-02    0.367E-01
DAV:   3    -0.658156920590E+03   -0.53983E-04   -0.30776E-03   564   0.544E-02    0.325E-01
DAV:   4    -0.658156255858E+03    0.66473E-03   -0.11080E-03   444   0.354E-02    0.872E-02
DAV:   5    -0.658156202418E+03    0.53439E-04   -0.20237E-04   348   0.952E-03
  25 F= -.67321026E+03 E0= -.67314533E+03  d E =-.380698E-03
       N       E                     dE             d eps       ncg     rms          rms(c)
DAV:   1    -0.658154976054E+03    0.12798E-02   -0.14651E-01   600   0.465E-01    0.157E-01
DAV:   2    -0.658159782890E+03   -0.48068E-02   -0.98910E-03   912   0.137E-01    0.114E+00
DAV:   3    -0.658156253839E+03    0.35291E-02   -0.71993E-03   672   0.865E-02    0.320E-01
DAV:   4    -0.658155370567E+03    0.88327E-03   -0.73297E-04   480   0.312E-02    0.164E-01
DAV:   5    -0.658155268815E+03    0.10175E-03   -0.39937E-04   408   0.168E-02    0.134E-01
DAV:   6    -0.658155235596E+03    0.33219E-04   -0.67107E-04   372   0.155E-02
  26 F= -.67321017E+03 E0= -.67314402E+03  d E =-.298271E-03
       N       E                     dE             d eps       ncg     rms          rms(c)
DAV:   1    -0.658155909938E+03   -0.64112E-03   -0.60751E-02   600   0.296E-01    0.160E-01
DAV:   2    -0.658162584559E+03   -0.66746E-02   -0.20620E-02   888   0.147E-01    0.813E-01
DAV:   3    -0.658156365620E+03    0.62189E-02   -0.19761E-02   768   0.121E-01    0.244E-01
DAV:   4    -0.658156194389E+03    0.17123E-03   -0.27374E-03   444   0.280E-02    0.214E-01
DAV:   5    -0.658156092259E+03    0.10213E-03   -0.24158E-03   408   0.172E-02    0.154E-01
DAV:   6    -0.658155959272E+03    0.13299E-03   -0.15371E-03   408   0.187E-02    0.101E-01
DAV:   7    -0.658155937740E+03    0.21532E-04   -0.14251E-03   348   0.153E-02    0.833E-02
DAV:   8    -0.658155923346E+03    0.14394E-04   -0.88717E-04   348   0.118E-02
  27 F= -.67321030E+03 E0= -.67314554E+03  d E =-.428770E-03
       N       E                     dE             d eps       ncg     rms          rms(c)
DAV:   1    -0.658155905534E+03    0.32206E-04   -0.11852E-02   600   0.125E-01    0.639E-02
DAV:   2    -0.658156156706E+03   -0.25117E-03   -0.29438E-03   540   0.361E-02    0.230E-01
DAV:   3    -0.658156244417E+03   -0.87710E-04   -0.38092E-03   444   0.318E-02    0.220E-01
DAV:   4    -0.658155984018E+03    0.26040E-03   -0.14304E-03   420   0.244E-02    0.947E-02
DAV:   5    -0.658155934937E+03    0.49081E-04   -0.63757E-04   348   0.928E-03
  28 F= -.67321045E+03 E0= -.67314504E+03  d E =-.144372E-03
       N       E                     dE             d eps       ncg     rms          rms(c)
DAV:   1    -0.658155669938E+03    0.31408E-03   -0.10070E-01   600   0.372E-01    0.122E-01
DAV:   2    -0.658160811049E+03   -0.51411E-02   -0.96372E-03   900   0.120E-01    0.121E+00
DAV:   3    -0.658156786049E+03    0.40250E-02   -0.69834E-03   672   0.799E-02    0.266E-01
DAV:   4    -0.658155981002E+03    0.80505E-03   -0.76895E-04   480   0.298E-02    0.155E-01
DAV:   5    -0.658155881992E+03    0.99010E-04   -0.60343E-04   384   0.168E-02
  29 F= -.67321079E+03 E0= -.67314559E+03  d E =-.491190E-03
       N       E                     dE             d eps       ncg     rms          rms(c)
DAV:   1    -0.658154199791E+03    0.17812E-02   -0.40042E-01   600   0.744E-01    0.230E-01
DAV:   2    -0.658170226991E+03   -0.16027E-01   -0.27349E-02   924   0.219E-01    0.232E+00
DAV:   3    -0.658158466642E+03    0.11760E-01   -0.16909E-02   852   0.132E-01    0.478E-01
DAV:   4    -0.658155213542E+03    0.32531E-02   -0.19461E-03   672   0.489E-02    0.243E-01
DAV:   5    -0.658154951746E+03    0.26180E-03   -0.81590E-04   540   0.276E-02    0.220E-01
DAV:   6    -0.658154838925E+03    0.11282E-03   -0.15709E-03   480   0.230E-02    0.175E-01
DAV:   7    -0.658154780168E+03    0.58757E-04   -0.25695E-03   468   0.248E-02    0.152E-01
DAV:   8    -0.658154700705E+03    0.79463E-04   -0.17993E-03   420   0.192E-02    0.915E-02
DAV:   9    -0.658154665964E+03    0.34740E-04   -0.11642E-03   384   0.150E-02    0.856E-02
DAV:  10    -0.658154635017E+03    0.30948E-04   -0.60811E-04   372   0.119E-02
  30 F= -.67321035E+03 E0= -.67314495E+03  d E =-.501197E-04
       N       E                     dE             d eps       ncg     rms          rms(c)
DAV:   1    -0.658155317296E+03   -0.65133E-03   -0.23959E-01   600   0.575E-01    0.186E-01
DAV:   2    -0.658162696012E+03   -0.73787E-02   -0.24332E-02   900   0.191E-01    0.836E-01
DAV:   3    -0.658156088945E+03    0.66071E-02   -0.18564E-02   768   0.123E-01    0.241E-01
DAV:   4    -0.658156002808E+03    0.86137E-04   -0.19162E-03   456   0.279E-02    0.246E-01
DAV:   5    -0.658155914632E+03    0.88177E-04   -0.19119E-03   408   0.203E-02    0.189E-01
DAV:   6    -0.658155760345E+03    0.15429E-03   -0.18548E-03   456   0.256E-02    0.145E-01
DAV:   7    -0.658155726885E+03    0.33460E-04   -0.23808E-03   384   0.192E-02    0.134E-01
DAV:   8    -0.658155660682E+03    0.66203E-04   -0.13740E-03   360   0.160E-02    0.527E-02
DAV:   9    -0.658155660105E+03    0.57666E-06   -0.76199E-04   348   0.127E-02
  31 F= -.67321076E+03 E0= -.67314467E+03  d E =-.452910E-03
       N       E                     dE             d eps       ncg     rms          rms(c)
DAV:   1    -0.658155841966E+03   -0.18128E-03   -0.28066E-02   600   0.196E-01    0.552E-02
DAV:   2    -0.658155932193E+03   -0.90226E-04   -0.77546E-04   684   0.447E-02
  32 F= -.67321105E+03 E0= -.67314442E+03  d E =-.298454E-03
       N       E                     dE             d eps       ncg     rms          rms(c)
DAV:   1    -0.658156237752E+03   -0.39579E-03   -0.16282E-01   600   0.476E-01    0.233E-01
DAV:   2    -0.658196355455E+03   -0.40118E-01   -0.42161E-02   852   0.210E-01    0.408E+00
DAV:   3    -0.658169064510E+03    0.27291E-01   -0.36500E-02   864   0.184E-01    0.615E-01
DAV:   4    -0.658157843425E+03    0.11221E-01   -0.55915E-03   768   0.851E-02    0.403E-01
DAV:   5    -0.658156767624E+03    0.10758E-02   -0.10629E-03   468   0.390E-02    0.212E-01
DAV:   6    -0.658156619270E+03    0.14835E-03   -0.12039E-03   408   0.255E-02    0.234E-01
DAV:   7    -0.658156388789E+03    0.23048E-03   -0.16315E-03   408   0.249E-02    0.126E-01
DAV:   8    -0.658156352915E+03    0.35874E-04   -0.12975E-03   360   0.201E-02    0.139E-01
DAV:   9    -0.658156276769E+03    0.76147E-04   -0.79502E-04   348   0.169E-02
  33 F= -.67321147E+03 E0= -.67314580E+03  d E =-.709322E-03
       N       E                     dE             d eps       ncg     rms          rms(c)
DAV:   1    -0.658154880735E+03    0.14722E-02   -0.64545E-01   600   0.949E-01    0.261E-01
DAV:   2    -0.658156554764E+03   -0.16740E-02   -0.15664E-02   852   0.190E-01    0.409E-01
DAV:   3    -0.658160443780E+03   -0.38890E-02   -0.14707E-02   840   0.117E-01    0.705E-01
DAV:   4    -0.658156148910E+03    0.42949E-02   -0.67007E-03   672   0.855E-02    0.201E-01
DAV:   5    -0.658156005263E+03    0.14365E-03   -0.46209E-04   480   0.257E-02    0.200E-01
DAV:   6    -0.658155961883E+03    0.43380E-04   -0.11445E-03   564   0.275E-02    0.164E-01
DAV:   7    -0.658155985443E+03   -0.23560E-04   -0.17069E-03   432   0.257E-02    0.176E-01
DAV:   8    -0.658155860657E+03    0.12479E-03   -0.16088E-03   420   0.268E-02    0.981E-02
DAV:   9    -0.658155815999E+03    0.44658E-04   -0.10574E-03   360   0.150E-02    0.683E-02
DAV:  10    -0.658155801057E+03    0.14942E-04   -0.67367E-04   348   0.101E-02
  34 F= -.67321113E+03 E0= -.67314567E+03  d E =-.377324E-03
       N       E                     dE             d eps       ncg     rms          rms(c)
DAV:   1    -0.658155871583E+03   -0.55584E-04   -0.26291E-01   600   0.608E-01    0.170E-01
DAV:   2    -0.658157751374E+03   -0.18798E-02   -0.84150E-03   852   0.139E-01    0.475E-01
DAV:   3    -0.658157489624E+03    0.26175E-03   -0.66945E-03   732   0.814E-02    0.541E-01
DAV:   4    -0.658156683209E+03    0.80642E-03   -0.13125E-03   588   0.462E-02    0.216E-01
DAV:   5    -0.658156439839E+03    0.24337E-03   -0.24193E-04   408   0.192E-02    0.163E-01
DAV:   6    -0.658156392744E+03    0.47095E-04   -0.34130E-04   456   0.270E-02
  35 F= -.67321163E+03 E0= -.67314486E+03  d E =-.875625E-03
       N       E                     dE             d eps       ncg     rms          rms(c)
DAV:   1    -0.658156589658E+03   -0.14982E-03   -0.26981E-02   600   0.194E-01    0.107E-01
DAV:   2    -0.658159147663E+03   -0.25580E-02   -0.52856E-03   828   0.876E-02    0.622E-01
DAV:   3    -0.658157343436E+03    0.18042E-02   -0.62747E-03   624   0.778E-02    0.334E-01
DAV:   4    -0.658156951816E+03    0.39162E-03   -0.70475E-04   420   0.299E-02    0.219E-01
DAV:   5    -0.658156702014E+03    0.24980E-03   -0.14655E-04   384   0.153E-02    0.952E-02
DAV:   6    -0.658156630113E+03    0.71901E-04   -0.12492E-04   396   0.165E-02
  36 F= -.67321184E+03 E0= -.67314691E+03  d E =-.210567E-03
       N       E                     dE             d eps       ncg     rms          rms(c)
DAV:   1    -0.658156823704E+03   -0.12169E-03   -0.23602E-01   600   0.570E-01    0.160E-01
DAV:   2    -0.658157240549E+03   -0.41684E-03   -0.53672E-03   864   0.113E-01    0.160E-01
DAV:   3    -0.658158026898E+03   -0.78635E-03   -0.25034E-03   552   0.432E-02    0.464E-01
DAV:   4    -0.658157773702E+03    0.25320E-03   -0.33207E-03   504   0.513E-02    0.300E-01
DAV:   5    -0.658157238644E+03    0.53506E-03   -0.58305E-04   420   0.277E-02    0.121E-01
DAV:   6    -0.658157187439E+03    0.51205E-04   -0.14363E-04   348   0.133E-02
  37 F= -.67321232E+03 E0= -.67314727E+03  d E =-.691196E-03
       N       E                     dE             d eps       ncg     rms          rms(c)
DAV:   1    -0.658157098760E+03    0.13988E-03   -0.31441E-02   600   0.210E-01    0.703E-02
DAV:   2    -0.658157256447E+03   -0.15769E-03   -0.90045E-04   708   0.474E-02    0.163E-01
DAV:   3    -0.658157205339E+03    0.51108E-04   -0.33117E-04   348   0.153E-02
  38 F= -.67321231E+03 E0= -.67314610E+03  d E =-.681954E-03
       N       E                     dE             d eps       ncg     rms          rms(c)
DAV:   1    -0.658157355630E+03   -0.99183E-04   -0.81614E-03   588   0.107E-01    0.209E-01
DAV:   2    -0.658206054041E+03   -0.48698E-01   -0.51400E-02   912   0.199E-01    0.455E+00
DAV:   3    -0.658173277573E+03    0.32776E-01   -0.45042E-02   840   0.194E-01    0.631E-01
DAV:   4    -0.658158546768E+03    0.14731E-01   -0.65627E-03   756   0.906E-02    0.336E-01
DAV:   5    -0.658157603983E+03    0.94279E-03   -0.11131E-03   432   0.352E-02    0.202E-01
DAV:   6    -0.658157460817E+03    0.14317E-03   -0.88503E-04   360   0.223E-02    0.206E-01
DAV:   7    -0.658157228783E+03    0.23203E-03   -0.60260E-04   372   0.182E-02    0.729E-02
DAV:   8    -0.658157215977E+03    0.12806E-04   -0.28738E-04   360   0.116E-02
  39 F= -.67321234E+03 E0= -.67314707E+03  d E =-.705602E-03
       N       E                     dE             d eps       ncg     rms          rms(c)
DAV:   1    -0.658157416701E+03   -0.18792E-03   -0.34047E-02   600   0.221E-01    0.599E-02
DAV:   2    -0.658157498200E+03   -0.81499E-04   -0.10618E-03   684   0.425E-02    0.104E-01
DAV:   3    -0.658157477153E+03    0.21047E-04   -0.61074E-04   348   0.128E-02
  40 F= -.67321263E+03 E0= -.67314825E+03  d E =-.295561E-03
       N       E                     dE             d eps       ncg     rms          rms(c)
DAV:   1    -0.658158168051E+03   -0.66985E-03   -0.30543E-01   600   0.662E-01    0.301E-01
DAV:   2    -0.658182309051E+03   -0.24141E-01   -0.75907E-02   912   0.288E-01    0.124E+00
DAV:   3    -0.658160120686E+03    0.22188E-01   -0.54966E-02   912   0.228E-01    0.454E-01
DAV:   4    -0.658159041472E+03    0.10792E-02   -0.32830E-03   732   0.521E-02    0.343E-01
DAV:   5    -0.658158858104E+03    0.18337E-03   -0.27043E-03   732   0.472E-02    0.316E-01
DAV:   6    -0.658158980232E+03   -0.12213E-03   -0.24752E-03   612   0.477E-02    0.332E-01
DAV:   7    -0.658158483527E+03    0.49671E-03   -0.12224E-03   468   0.317E-02    0.179E-01
DAV:   8    -0.658158321907E+03    0.16162E-03   -0.42716E-04   372   0.223E-02    0.101E-01
DAV:   9    -0.658158281720E+03    0.40188E-04   -0.15658E-04   348   0.157E-02
  41 F= -.67321354E+03 E0= -.67314729E+03  d E =-.120568E-02
       N       E                     dE             d eps       ncg     rms          rms(c)
DAV:   1    -0.658157379276E+03    0.94263E-03   -0.12207E+00   600   0.132E+00    0.344E-01
DAV:   2    -0.658163004318E+03   -0.56250E-02   -0.31404E-02   876   0.269E-01    0.695E-01
DAV:   3    -0.658165814686E+03   -0.28104E-02   -0.27384E-02   864   0.168E-01    0.145E+00
DAV:   4    -0.658161536189E+03    0.42785E-02   -0.10203E-02   708   0.106E-01    0.503E-01
DAV:   5    -0.658159474124E+03    0.20621E-02   -0.11012E-03   696   0.420E-02    0.280E-01
DAV:   6    -0.658159335723E+03    0.13840E-03   -0.11337E-03   660   0.452E-02    0.279E-01
DAV:   7    -0.658158964633E+03    0.37109E-03   -0.45616E-04   516   0.337E-02    0.128E-01
DAV:   8    -0.658158927286E+03    0.37347E-04   -0.41315E-04   372   0.171E-02
  42 F= -.67321441E+03 E0= -.67314938E+03  d E =-.207336E-02
       N       E                     dE             d eps       ncg     rms          rms(c)
DAV:   1    -0.658159031969E+03   -0.67335E-04   -0.31663E-02   600   0.202E-01    0.927E-02
DAV:   2    -0.658162457925E+03   -0.34260E-02   -0.79773E-03   828   0.100E-01    0.665E-01
DAV:   3    -0.658159294326E+03    0.31636E-02   -0.59705E-03   600   0.751E-02    0.112E-01
DAV:   4    -0.658159231115E+03    0.63211E-04   -0.46444E-04   456   0.225E-02
  43 F= -.67321482E+03 E0= -.67315079E+03  d E =-.408046E-03
       N       E                     dE             d eps       ncg     rms          rms(c)
DAV:   1    -0.658159281737E+03    0.12589E-04   -0.28293E-01   600   0.602E-01    0.164E-01
DAV:   2    -0.658159729583E+03   -0.44785E-03   -0.59826E-03   900   0.119E-01    0.146E-01
DAV:   3    -0.658159788331E+03   -0.58748E-04   -0.92532E-04   480   0.208E-02
  44 F= -.67321569E+03 E0= -.67314910E+03  d E =-.128022E-02
       N       E                     dE             d eps       ncg     rms          rms(c)
DAV:   1    -0.658159018430E+03    0.71115E-03   -0.11309E+00   600   0.120E+00    0.448E-01
DAV:   2    -0.658218498931E+03   -0.59481E-01   -0.93560E-02   792   0.292E-01    0.498E+00
DAV:   3    -0.658183604197E+03    0.34895E-01   -0.89917E-02   912   0.261E-01    0.804E-01
DAV:   4    -0.658167919138E+03    0.15685E-01   -0.18459E-02   804   0.110E-01    0.108E+00
DAV:   5    -0.658162865163E+03    0.50540E-02   -0.11815E-02   660   0.712E-02    0.484E-01
DAV:   6    -0.658161933121E+03    0.93204E-03   -0.41570E-03   660   0.565E-02    0.543E-01
DAV:   7    -0.658160725024E+03    0.12081E-02   -0.20788E-03   744   0.523E-02    0.236E-01
DAV:   8    -0.658160547344E+03    0.17768E-03   -0.16943E-03   552   0.378E-02    0.308E-01
DAV:   9    -0.658160096377E+03    0.45097E-03   -0.13098E-03   396   0.230E-02    0.744E-02
DAV:  10    -0.658160091166E+03    0.52114E-05   -0.89774E-04   408   0.189E-02
  45 F= -.67321663E+03 E0= -.67315019E+03  d E =-.222342E-02
       N       E                     dE             d eps       ncg     rms          rms(c)
DAV:   1    -0.658160174070E+03   -0.77693E-04   -0.21468E-01   600   0.526E-01    0.162E-01
DAV:   2    -0.658164088449E+03   -0.39144E-02   -0.13342E-02   912   0.152E-01    0.662E-01
DAV:   3    -0.658160994304E+03    0.30941E-02   -0.10301E-02   732   0.976E-02    0.324E-01
DAV:   4    -0.658160694597E+03    0.29971E-03   -0.71537E-04   468   0.290E-02    0.188E-01
DAV:   5    -0.658160622926E+03    0.71671E-04   -0.43613E-04   432   0.191E-02
  46 F= -.67321764E+03 E0= -.67315308E+03  d E =-.100465E-02
       N       E                     dE             d eps       ncg     rms          rms(c)
DAV:   1    -0.658158607051E+03    0.20875E-02   -0.19240E+00   600   0.157E+00    0.504E-01
DAV:   2    -0.658187856085E+03   -0.29249E-01   -0.12016E-01   924   0.465E-01    0.125E+00
DAV:   3    -0.658161636160E+03    0.26220E-01   -0.93446E-02   840   0.311E-01    0.391E-01
DAV:   4    -0.658162085018E+03   -0.44886E-03   -0.53653E-03   828   0.682E-02    0.479E-01
DAV:   5    -0.658161708546E+03    0.37647E-03   -0.52660E-03   780   0.481E-02    0.348E-01
DAV:   6    -0.658161666898E+03    0.41648E-04   -0.60373E-03   732   0.598E-02    0.358E-01
DAV:   7    -0.658161382660E+03    0.28424E-03   -0.69428E-03   540   0.414E-02    0.241E-01
DAV:   8    -0.658161110151E+03    0.27251E-03   -0.56580E-03   516   0.430E-02    0.208E-01
DAV:   9    -0.658160870004E+03    0.24015E-03   -0.28063E-03   384   0.247E-02    0.844E-02
DAV:  10    -0.658160882981E+03   -0.12977E-04   -0.17846E-03   360   0.174E-02    0.143E-01
DAV:  11    -0.658160806848E+03    0.76133E-04   -0.10657E-03   360   0.149E-02    0.605E-02
DAV:  12    -0.658160792102E+03    0.14746E-04   -0.49178E-04   348   0.926E-03
  47 F= -.67321924E+03 E0= -.67315438E+03  d E =-.260716E-02
       N       E                     dE             d eps       ncg     rms          rms(c)
DAV:   1    -0.658159717618E+03    0.10892E-02   -0.43795E-01   600   0.750E-01    0.215E-01
DAV:   2    -0.658165046501E+03   -0.53289E-02   -0.19031E-02   900   0.200E-01    0.722E-01
DAV:   3    -0.658161210225E+03    0.38363E-02   -0.13614E-02   828   0.119E-01    0.427E-01
DAV:   4    -0.658160868735E+03    0.34149E-03   -0.10851E-03   528   0.386E-02    0.278E-01
DAV:   5    -0.658160602789E+03    0.26595E-03   -0.28584E-04   468   0.225E-02    0.190E-01
DAV:   6    -0.658160676300E+03   -0.73511E-04   -0.72265E-04   684   0.355E-02
  48 F= -.67321982E+03 E0= -.67315259E+03  d E =-.318183E-02
       N       E                     dE             d eps       ncg     rms          rms(c)
DAV:   1    -0.658155899604E+03    0.47032E-02   -0.17452E+00   600   0.150E+00    0.446E-01
DAV:   2    -0.658177368138E+03   -0.21469E-01   -0.93727E-02   912   0.441E-01    0.122E+00
DAV:   3    -0.658160457186E+03    0.16911E-01   -0.63637E-02   876   0.253E-01    0.617E-01
DAV:   4    -0.658160524086E+03   -0.66900E-04   -0.31025E-03   744   0.608E-02    0.571E-01
DAV:   5    -0.658159982647E+03    0.54144E-03   -0.19046E-03   660   0.488E-02    0.439E-01
DAV:   6    -0.658161170713E+03   -0.11881E-02   -0.56206E-03   804   0.888E-02    0.792E-01
DAV:   7    -0.658158659208E+03    0.25115E-02   -0.21487E-03   744   0.702E-02    0.121E-01
DAV:   8    -0.658158371468E+03    0.28774E-03   -0.92152E-04   480   0.286E-02    0.126E-01
DAV:   9    -0.658158314732E+03    0.56736E-04   -0.79266E-04   360   0.156E-02
  49 F= -.67321885E+03 E0= -.67315260E+03  d E =-.221635E-02
       N       E                     dE             d eps       ncg     rms          rms(c)
DAV:   1    -0.658158725390E+03   -0.35392E-03   -0.83155E-01   600   0.103E+00    0.277E-01
DAV:   2    -0.658161226206E+03   -0.25008E-02   -0.19596E-02   864   0.214E-01    0.566E-01
DAV:   3    -0.658164268326E+03   -0.30421E-02   -0.14319E-02   804   0.117E-01    0.710E-01
DAV:   4    -0.658160287770E+03    0.39806E-02   -0.60844E-03   660   0.780E-02    0.187E-01
DAV:   5    -0.658160150376E+03    0.13739E-03   -0.59706E-04   468   0.292E-02    0.224E-01
DAV:   6    -0.658159964434E+03    0.18594E-03   -0.68275E-04   468   0.284E-02    0.101E-01
DAV:   7    -0.658160154183E+03   -0.18975E-03   -0.12605E-03   480   0.271E-02    0.228E-01
DAV:   8    -0.658159919211E+03    0.23497E-03   -0.12802E-03   432   0.243E-02    0.749E-02
DAV:   9    -0.658159913445E+03    0.57665E-05   -0.82923E-04   348   0.155E-02
  50 F= -.67321949E+03 E0= -.67315508E+03  d E =-.285121E-02
       N       E                     dE             d eps       ncg     rms          rms(c)
DAV:   1    -0.658159692854E+03    0.22636E-03   -0.19153E-01   600   0.494E-01    0.145E-01
DAV:   2    -0.658161980127E+03   -0.22873E-02   -0.84287E-03   936   0.122E-01    0.536E-01
DAV:   3    -0.658160506048E+03    0.14741E-02   -0.67582E-03   660   0.773E-02    0.337E-01
DAV:   4    -0.658160208237E+03    0.29781E-03   -0.92315E-04   492   0.341E-02    0.204E-01
DAV:   5    -0.658160035418E+03    0.17282E-03   -0.21374E-04   396   0.165E-02    0.121E-01
DAV:   6    -0.658159991014E+03    0.44405E-04   -0.44284E-04   432   0.201E-02
  51 F= -.67322001E+03 E0= -.67315475E+03  d E =-.524118E-03
       N       E                     dE             d eps       ncg     rms          rms(c)
DAV:   1    -0.658157263374E+03    0.27720E-02   -0.17158E+00   600   0.148E+00    0.423E-01
DAV:   2    -0.658175417655E+03   -0.18154E-01   -0.77704E-02   900   0.392E-01    0.110E+00
DAV:   3    -0.658161336710E+03    0.14081E-01   -0.56823E-02   876   0.238E-01    0.636E-01
DAV:   4    -0.658161615882E+03   -0.27917E-03   -0.47782E-03   744   0.698E-02    0.561E-01
DAV:   5    -0.658160687928E+03    0.92795E-03   -0.17067E-03   708   0.428E-02    0.385E-01
DAV:   6    -0.658161447446E+03   -0.75952E-03   -0.45048E-03   792   0.721E-02    0.639E-01
DAV:   7    -0.658159741660E+03    0.17058E-02   -0.36547E-03   696   0.581E-02    0.159E-01
DAV:   8    -0.658159554543E+03    0.18712E-03   -0.32340E-03   408   0.277E-02    0.145E-01
DAV:   9    -0.658159543665E+03    0.10877E-04   -0.22418E-03   396   0.261E-02    0.156E-01
DAV:  10    -0.658159474344E+03    0.69321E-04   -0.13734E-03   384   0.158E-02    0.102E-01
DAV:  11    -0.658159414382E+03    0.59962E-04   -0.76239E-04   384   0.122E-02
  52 F= -.67322079E+03 E0= -.67315552E+03  d E =-.130017E-02
       N       E                     dE             d eps       ncg     rms          rms(c)
DAV:   1    -0.658160018226E+03   -0.54388E-03   -0.20300E-02   600   0.178E-01    0.515E-02
DAV:   2    -0.658160172969E+03   -0.15474E-03   -0.14087E-03   576   0.403E-02    0.157E-01
DAV:   3    -0.658160206751E+03   -0.33782E-04   -0.13207E-03   468   0.273E-02    0.174E-01
DAV:   4    -0.658160093303E+03    0.11345E-03   -0.44452E-04   444   0.198E-02    0.839E-02
DAV:   5    -0.658160063816E+03    0.29487E-04   -0.16120E-04   360   0.888E-03
  53 F= -.67322152E+03 E0= -.67315654E+03  d E =-.733308E-03
       N       E                     dE             d eps       ncg     rms          rms(c)
DAV:   1    -0.658160677988E+03   -0.58468E-03   -0.18017E-01   600   0.530E-01    0.150E-01
DAV:   2    -0.658161215278E+03   -0.53729E-03   -0.79956E-03   900   0.102E-01    0.249E-01
DAV:   3    -0.658161344751E+03   -0.12947E-03   -0.73503E-03   636   0.297E-02    0.262E-01
DAV:   4    -0.658161856936E+03   -0.51218E-03   -0.53905E-03   540   0.471E-02    0.456E-01
DAV:   5    -0.658161118138E+03    0.73880E-03   -0.20067E-03   468   0.362E-02    0.135E-01
DAV:   6    -0.658161028057E+03    0.90081E-04   -0.38703E-04   372   0.160E-02
  54 F= -.67322274E+03 E0= -.67315753E+03  d E =-.195191E-02
       N       E                     dE             d eps       ncg     rms          rms(c)
DAV:   1    -0.658161666848E+03   -0.54871E-03   -0.44087E-02   600   0.276E-01    0.714E-02
DAV:   2    -0.658161921511E+03   -0.25466E-03   -0.17060E-03   876   0.635E-02    0.208E-01
DAV:   3    -0.658161920708E+03    0.80289E-06   -0.85761E-04   516   0.269E-02
  55 F= -.67322373E+03 E0= -.67316120E+03  d E =-.994163E-03
       N       E                     dE             d eps       ncg     rms          rms(c)
DAV:   1    -0.658162089683E+03   -0.16817E-03   -0.23386E-01   600   0.632E-01    0.222E-01
DAV:   2    -0.658164769650E+03   -0.26800E-02   -0.77421E-03   888   0.131E-01    0.643E-01
DAV:   3    -0.658166846189E+03   -0.20765E-02   -0.11848E-02   744   0.107E-01    0.107E+00
DAV:   4    -0.658164040936E+03    0.28053E-02   -0.61561E-03   672   0.766E-02    0.389E-01
DAV:   5    -0.658162822796E+03    0.12181E-02   -0.74807E-04   612   0.356E-02    0.234E-01
DAV:   6    -0.658162676421E+03    0.14638E-03   -0.36262E-04   456   0.213E-02    0.209E-01
DAV:   7    -0.658162521031E+03    0.15539E-03   -0.95667E-04   420   0.223E-02    0.129E-01
DAV:   8    -0.658162432638E+03    0.88393E-04   -0.10929E-03   420   0.197E-02    0.911E-02
DAV:   9    -0.658162384605E+03    0.48034E-04   -0.72835E-04   384   0.144E-02
  56 F= -.67322443E+03 E0= -.67315918E+03  d E =-.169594E-02
       N       E                     dE             d eps       ncg     rms          rms(c)
DAV:   1    -0.658162877164E+03   -0.44453E-03   -0.75977E-02   600   0.326E-01    0.111E-01
DAV:   2    -0.658166947953E+03   -0.40708E-02   -0.74877E-03   900   0.113E-01    0.107E+00
DAV:   3    -0.658163815888E+03    0.31321E-02   -0.54321E-03   660   0.721E-02    0.239E-01
DAV:   4    -0.658163221207E+03    0.59468E-03   -0.50434E-04   492   0.281E-02    0.168E-01
DAV:   5    -0.658163084928E+03    0.13628E-03   -0.24314E-04   396   0.158E-02    0.871E-02
DAV:   6    -0.658163062483E+03    0.22445E-04   -0.26181E-04   384   0.137E-02
  57 F= -.67322527E+03 E0= -.67316002E+03  d E =-.834325E-03
       N       E                     dE             d eps       ncg     rms          rms(c)
DAV:   1    -0.658162398903E+03    0.68603E-03   -0.44977E-01   600   0.794E-01    0.262E-01
DAV:   2    -0.658188259725E+03   -0.25861E-01   -0.40154E-02   876   0.264E-01    0.312E+00
DAV:   3    -0.658170443271E+03    0.17816E-01   -0.26732E-02   888   0.164E-01    0.547E-01
DAV:   4    -0.658164647331E+03    0.57959E-02   -0.37738E-03   732   0.691E-02    0.437E-01
DAV:   5    -0.658163744331E+03    0.90300E-03   -0.10196E-03   528   0.366E-02    0.237E-01
DAV:   6    -0.658163591497E+03    0.15283E-03   -0.12389E-03   540   0.318E-02    0.249E-01
DAV:   7    -0.658163356395E+03    0.23510E-03   -0.17244E-03   492   0.294E-02    0.158E-01
DAV:   8    -0.658163244960E+03    0.11144E-03   -0.15183E-03   432   0.225E-02    0.122E-01
DAV:   9    -0.658163173014E+03    0.71946E-04   -0.96296E-04   384   0.187E-02
  58 F= -.67322577E+03 E0= -.67316085E+03  d E =-.133728E-02
       N       E                     dE             d eps       ncg     rms          rms(c)
DAV:   1    -0.658163251709E+03   -0.67493E-05   -0.25009E-02   600   0.186E-01    0.799E-02
DAV:   2    -0.658164565616E+03   -0.13139E-02   -0.43059E-03   744   0.713E-02    0.465E-01
DAV:   3    -0.658163665303E+03    0.90031E-03   -0.42070E-03   564   0.534E-02    0.233E-01
DAV:   4    -0.658163433024E+03    0.23228E-03   -0.58170E-04   432   0.235E-02    0.150E-01
DAV:   5    -0.658163334823E+03    0.98200E-04   -0.19114E-04   396   0.108E-02
  59 F= -.67322584E+03 E0= -.67316130E+03  d E =-.140661E-02
       N       E                     dE             d eps       ncg     rms          rms(c)
DAV:   1    -0.658163399091E+03    0.33933E-04   -0.11764E-01   600   0.402E-01    0.131E-01
DAV:   2    -0.658168293292E+03   -0.48942E-02   -0.10201E-02   924   0.132E-01    0.117E+00
DAV:   3    -0.658164693669E+03    0.35996E-02   -0.62212E-03   720   0.795E-02    0.268E-01
DAV:   4    -0.658163946216E+03    0.74745E-03   -0.59142E-04   516   0.313E-02    0.202E-01
DAV:   5    -0.658163745053E+03    0.20116E-03   -0.18713E-04   444   0.182E-02    0.971E-02
DAV:   6    -0.658163719120E+03    0.25933E-04   -0.15512E-04   396   0.167E-02
  60 F= -.67322668E+03 E0= -.67316119E+03  d E =-.843549E-03
       N       E                     dE             d eps       ncg     rms          rms(c)
DAV:   1    -0.658163002804E+03    0.74225E-03   -0.15908E-01   600   0.468E-01    0.138E-01
DAV:   2    -0.658167025145E+03   -0.40223E-02   -0.87207E-03   924   0.135E-01    0.104E+00
DAV:   3    -0.658164147084E+03    0.28781E-02   -0.51678E-03   696   0.733E-02    0.255E-01
DAV:   4    -0.658163562872E+03    0.58421E-03   -0.48712E-04   576   0.302E-02    0.203E-01
DAV:   5    -0.658163369711E+03    0.19316E-03   -0.16234E-04   444   0.176E-02    0.920E-02
DAV:   6    -0.658163354582E+03    0.15129E-04   -0.15210E-04   444   0.196E-02
  61 F= -.67322686E+03 E0= -.67316130E+03  d E =-.102021E-02
       N       E                     dE             d eps       ncg     rms          rms(c)
DAV:   1    -0.658162908832E+03    0.46088E-03   -0.12691E-01   600   0.435E-01    0.117E-01
DAV:   2    -0.658166166067E+03   -0.32572E-02   -0.69339E-03   912   0.124E-01    0.927E-01
DAV:   3    -0.658163756407E+03    0.24097E-02   -0.41232E-03   660   0.651E-02    0.210E-01
DAV:   4    -0.658163341851E+03    0.41456E-03   -0.41467E-04   480   0.278E-02    0.191E-01
DAV:   5    -0.658163191804E+03    0.15005E-03   -0.16085E-04   396   0.166E-02    0.894E-02
DAV:   6    -0.658163162547E+03    0.29258E-04   -0.15321E-04   384   0.189E-02
  62 F= -.67322743E+03 E0= -.67316184E+03  d E =-.571183E-03
       N       E                     dE             d eps       ncg     rms          rms(c)
DAV:   1    -0.658162399706E+03    0.79210E-03   -0.99820E-02   600   0.387E-01    0.113E-01
DAV:   2    -0.658165005581E+03   -0.26059E-02   -0.69336E-03   900   0.110E-01    0.815E-01
DAV:   3    -0.658163195187E+03    0.18104E-02   -0.50431E-03   636   0.635E-02    0.238E-01
DAV:   4    -0.658162754459E+03    0.44073E-03   -0.48365E-04   468   0.264E-02    0.174E-01
DAV:   5    -0.658162619106E+03    0.13535E-03   -0.22238E-04   408   0.149E-02    0.833E-02
DAV:   6    -0.658162587794E+03    0.31312E-04   -0.19836E-04   396   0.158E-02
  63 F= -.67322754E+03 E0= -.67316199E+03  d E =-.676184E-03
       N       E                     dE             d eps       ncg     rms          rms(c)
DAV:   1    -0.658162367013E+03    0.25209E-03   -0.10501E-01   600   0.409E-01    0.133E-01
DAV:   2    -0.658163609268E+03   -0.12423E-02   -0.68408E-03   912   0.104E-01    0.515E-01
DAV:   3    -0.658163708603E+03   -0.99335E-04   -0.70761E-03   612   0.633E-02    0.394E-01
DAV:   4    -0.658162802271E+03    0.90633E-03   -0.19664E-03   492   0.444E-02    0.206E-01
DAV:   5    -0.658162644869E+03    0.15740E-03   -0.23734E-04   432   0.144E-02    0.129E-01
DAV:   6    -0.658162560984E+03    0.83886E-04   -0.23346E-04   432   0.163E-02
  64 F= -.67322839E+03 E0= -.67316331E+03  d E =-.852050E-03
       N       E                     dE             d eps       ncg     rms          rms(c)
DAV:   1    -0.658161274164E+03    0.13707E-02   -0.24104E-01   600   0.620E-01    0.212E-01
DAV:   2    -0.658162918014E+03   -0.16439E-02   -0.11800E-02   900   0.144E-01    0.548E-01
DAV:   3    -0.658164626092E+03   -0.17081E-02   -0.13579E-02   672   0.827E-02    0.617E-01
DAV:   4    -0.658162529165E+03    0.20969E-02   -0.72154E-03   648   0.786E-02    0.377E-01
DAV:   5    -0.658162022153E+03    0.50701E-03   -0.96552E-04   528   0.286E-02    0.240E-01
DAV:   6    -0.658161793362E+03    0.22879E-03   -0.26417E-04   444   0.209E-02    0.153E-01
DAV:   7    -0.658161848879E+03   -0.55517E-04   -0.41336E-04   492   0.263E-02
  65 F= -.67322902E+03 E0= -.67316314E+03  d E =-.147944E-02
       N       E                     dE             d eps       ncg     rms          rms(c)
DAV:   1    -0.658161533701E+03    0.25966E-03   -0.34911E-02   600   0.236E-01    0.821E-02
DAV:   2    -0.658161835157E+03   -0.30146E-03   -0.11092E-03   828   0.540E-02    0.230E-01
DAV:   3    -0.658161679955E+03    0.15520E-03   -0.44702E-04   456   0.235E-02    0.123E-01
DAV:   4    -0.658161818097E+03   -0.13814E-03   -0.80903E-04   468   0.314E-02    0.238E-01
DAV:   5    -0.658161555979E+03    0.26212E-03   -0.29019E-04   444   0.195E-02    0.553E-02
DAV:   6    -0.658161542266E+03    0.13713E-04   -0.47200E-05   324   0.105E-02
  66 F= -.67322923E+03 E0= -.67316344E+03  d E =-.209867E-03
       N       E                     dE             d eps       ncg     rms          rms(c)
DAV:   1    -0.658160297936E+03    0.12580E-02   -0.31408E-01   600   0.703E-01    0.200E-01
DAV:   2    -0.658160987266E+03   -0.68933E-03   -0.77833E-03   864   0.143E-01    0.201E-01
DAV:   3    -0.658163776067E+03   -0.27888E-02   -0.70277E-03   708   0.821E-02    0.619E-01
DAV:   4    -0.658161126650E+03    0.26494E-02   -0.54172E-03   648   0.764E-02    0.191E-01
DAV:   5    -0.658161067324E+03    0.59326E-04   -0.31322E-04   468   0.216E-02
  67 F= -.67323031E+03 E0= -.67316571E+03  d E =-.128951E-02
       N       E                     dE             d eps       ncg     rms          rms(c)
DAV:   1    -0.658160170487E+03    0.95616E-03   -0.68666E-02   600   0.331E-01    0.153E-01
DAV:   2    -0.658173470465E+03   -0.13300E-01   -0.16227E-02   912   0.140E-01    0.213E+00
DAV:   3    -0.658163010055E+03    0.10460E-01   -0.14038E-02   768   0.120E-01    0.400E-01
DAV:   4    -0.658160436639E+03    0.25734E-02   -0.17124E-03   576   0.467E-02    0.145E-01
DAV:   5    -0.658160309657E+03    0.12698E-03   -0.10250E-03   444   0.244E-02    0.170E-01
DAV:   6    -0.658160205703E+03    0.10395E-03   -0.10027E-03   384   0.162E-02    0.887E-02
DAV:   7    -0.658160225056E+03   -0.19352E-04   -0.14258E-03   384   0.198E-02    0.131E-01
DAV:   8    -0.658160151026E+03    0.74030E-04   -0.97105E-04   384   0.155E-02
  68 F= -.67323013E+03 E0= -.67316464E+03  d E =-.110978E-02
       N       E                     dE             d eps       ncg     rms          rms(c)
DAV:   1    -0.658160490308E+03   -0.26525E-03   -0.40961E-02   600   0.256E-01    0.112E-01
DAV:   2    -0.658160840296E+03   -0.34999E-03   -0.47965E-03   864   0.617E-02    0.244E-01
DAV:   3    -0.658160780089E+03    0.60207E-04   -0.59241E-03   444   0.189E-02    0.164E-01
DAV:   4    -0.658160736026E+03    0.44062E-04   -0.38371E-03   420   0.200E-02    0.169E-01
DAV:   5    -0.658160643194E+03    0.92833E-04   -0.20404E-03   408   0.180E-02    0.972E-02
DAV:   6    -0.658160574472E+03    0.68722E-04   -0.48206E-04   360   0.129E-02
  69 F= -.67323077E+03 E0= -.67316529E+03  d E =-.641415E-03
       N       E                     dE             d eps       ncg     rms          rms(c)
DAV:   1    -0.658160153041E+03    0.49015E-03   -0.36635E-01   600   0.767E-01    0.245E-01
DAV:   2    -0.658161249951E+03   -0.10969E-02   -0.10622E-02   864   0.161E-01    0.300E-01
DAV:   3    -0.658163453095E+03   -0.22031E-02   -0.65780E-03   732   0.766E-02    0.624E-01
DAV:   4    -0.658162174853E+03    0.12782E-02   -0.77813E-03   672   0.861E-02    0.500E-01
DAV:   5    -0.658161386003E+03    0.78885E-03   -0.17096E-03   552   0.429E-02    0.263E-01
DAV:   6    -0.658161028980E+03    0.35702E-03   -0.30939E-04   444   0.222E-02    0.175E-01
DAV:   7    -0.658160925582E+03    0.10340E-03   -0.51676E-04   492   0.247E-02    0.118E-01
DAV:   8    -0.658160869625E+03    0.55957E-04   -0.39576E-04   396   0.213E-02
  70 F= -.67323172E+03 E0= -.67316596E+03  d E =-.159618E-02
       N       E                     dE             d eps       ncg     rms          rms(c)
DAV:   1    -0.658161461894E+03   -0.53631E-03   -0.94998E-02   600   0.376E-01    0.131E-01
DAV:   2    -0.658164012991E+03   -0.25511E-02   -0.93968E-03   912   0.116E-01    0.570E-01
DAV:   3    -0.658162120336E+03    0.18927E-02   -0.82971E-03   660   0.821E-02    0.307E-01
DAV:   4    -0.658161838116E+03    0.28222E-03   -0.11733E-03   492   0.315E-02    0.181E-01
DAV:   5    -0.658161733491E+03    0.10462E-03   -0.68058E-04   396   0.155E-02    0.137E-01
DAV:   6    -0.658161649492E+03    0.84000E-04   -0.74438E-04   384   0.184E-02
  71 F= -.67323250E+03 E0= -.67316733E+03  d E =-.781986E-03
       N       E                     dE             d eps       ncg     rms          rms(c)
DAV:   1    -0.658161705936E+03    0.27555E-04   -0.57128E-02   600   0.290E-01    0.139E-01
DAV:   2    -0.658164730646E+03   -0.30247E-02   -0.11660E-02   888   0.108E-01    0.671E-01
DAV:   3    -0.658162933484E+03    0.17972E-02   -0.13054E-02   648   0.910E-02    0.454E-01
DAV:   4    -0.658162280112E+03    0.65337E-03   -0.26032E-03   456   0.424E-02    0.259E-01
DAV:   5    -0.658161956691E+03    0.32342E-03   -0.72594E-04   408   0.176E-02    0.148E-01
DAV:   6    -0.658161804293E+03    0.15240E-03   -0.51028E-04   408   0.197E-02    0.963E-02
DAV:   7    -0.658161829835E+03   -0.25542E-04   -0.72972E-04   324   0.152E-02
  72 F= -.67323269E+03 E0= -.67316680E+03  d E =-.965695E-03
       N       E                     dE             d eps       ncg     rms          rms(c)
DAV:   1    -0.658162321856E+03   -0.51756E-03   -0.93903E-02   600   0.393E-01    0.105E-01
DAV:   2    -0.658163093371E+03   -0.77152E-03   -0.35985E-03   912   0.992E-02    0.327E-01
DAV:   3    -0.658162715585E+03    0.37779E-03   -0.20765E-03   528   0.475E-02    0.241E-01
DAV:   4    -0.658162540247E+03    0.17534E-03   -0.32266E-04   420   0.229E-02    0.125E-01
DAV:   5    -0.658162502299E+03    0.37948E-04   -0.79349E-05   348   0.114E-02
  73 F= -.67323328E+03 E0= -.67316820E+03  d E =-.590727E-03
       N       E                     dE             d eps       ncg     rms          rms(c)
DAV:   1    -0.658162557879E+03   -0.17632E-04   -0.36868E-01   600   0.779E-01    0.236E-01
DAV:   2    -0.658170310451E+03   -0.77526E-02   -0.25984E-02   900   0.224E-01    0.837E-01
DAV:   3    -0.658163592782E+03    0.67177E-02   -0.20704E-02   852   0.140E-01    0.316E-01
DAV:   4    -0.658163562077E+03    0.30705E-04   -0.21969E-03   636   0.364E-02    0.309E-01
DAV:   5    -0.658163397862E+03    0.16421E-03   -0.18384E-03   516   0.265E-02    0.224E-01
DAV:   6    -0.658163286305E+03    0.11156E-03   -0.25025E-03   600   0.352E-02    0.213E-01
DAV:   7    -0.658163129687E+03    0.15662E-03   -0.29690E-03   396   0.268E-02    0.144E-01
DAV:   8    -0.658163062586E+03    0.67102E-04   -0.21401E-03   360   0.197E-02    0.988E-02
DAV:   9    -0.658163050645E+03    0.11940E-04   -0.12840E-03   348   0.181E-02    0.101E-01
DAV:  10    -0.658163003966E+03    0.46679E-04   -0.68595E-04   348   0.111E-02
  74 F= -.67323362E+03 E0= -.67316837E+03  d E =-.937379E-03
       N       E                     dE             d eps       ncg     rms          rms(c)
DAV:   1    -0.658163062219E+03   -0.11574E-04   -0.87864E-02   600   0.355E-01    0.856E-02
DAV:   2    -0.658163384097E+03   -0.32188E-03   -0.26679E-03   876   0.762E-02    0.173E-01
DAV:   3    -0.658163672684E+03   -0.28859E-03   -0.14039E-03   540   0.383E-02    0.316E-01
DAV:   4    -0.658163322160E+03    0.35052E-03   -0.60075E-04   480   0.282E-02    0.107E-01
DAV:   5    -0.658163260800E+03    0.61361E-04   -0.10328E-04   372   0.112E-02
  75 F= -.67323415E+03 E0= -.67316885E+03  d E =-.529835E-03
       N       E                     dE             d eps       ncg     rms          rms(c)
DAV:   1    -0.658163191307E+03    0.13085E-03   -0.25967E-03   588   0.627E-02    0.567E-02
DAV:   2    -0.658163822304E+03   -0.63100E-03   -0.10370E-03   504   0.372E-02    0.316E-01
DAV:   3    -0.658163316810E+03    0.50549E-03   -0.15856E-03   480   0.434E-02    0.165E-01
DAV:   4    -0.658163190609E+03    0.12620E-03   -0.16618E-04   348   0.153E-02    0.502E-02
DAV:   5    -0.658163173927E+03    0.16682E-04   -0.79375E-05   336   0.832E-03
  76 F= -.67323412E+03 E0= -.67316869E+03  d E =-.491336E-03
       N       E                     dE             d eps       ncg     rms          rms(c)
DAV:   1    -0.658163032388E+03    0.15822E-03   -0.70065E-02   600   0.328E-01    0.107E-01
DAV:   2    -0.658164627618E+03   -0.15952E-02   -0.43446E-03   924   0.956E-02    0.460E-01
DAV:   3    -0.658163412771E+03    0.12148E-02   -0.37743E-03   648   0.636E-02    0.232E-01
DAV:   4    -0.658163240368E+03    0.17240E-03   -0.25279E-04   408   0.208E-02    0.118E-01
DAV:   5    -0.658163195732E+03    0.44636E-04   -0.82853E-05   384   0.123E-02
  77 F= -.67323480E+03 E0= -.67316959E+03  d E =-.679090E-03
       N       E                     dE             d eps       ncg     rms          rms(c)
DAV:   1    -0.658162213170E+03    0.10272E-02   -0.16877E-01   600   0.508E-01    0.189E-01
DAV:   2    -0.658167818262E+03   -0.56051E-02   -0.15000E-02   936   0.163E-01    0.734E-01
DAV:   3    -0.658162948421E+03    0.48698E-02   -0.14780E-02   852   0.124E-01    0.340E-01
DAV:   4    -0.658162733251E+03    0.21517E-03   -0.10775E-03   528   0.342E-02    0.224E-01
DAV:   5    -0.658162527203E+03    0.20605E-03   -0.32211E-04   372   0.208E-02    0.136E-01
DAV:   6    -0.658162595613E+03   -0.68410E-04   -0.66854E-04   552   0.243E-02
  78 F= -.67323522E+03 E0= -.67316847E+03  d E =-.110696E-02
       N       E                     dE             d eps       ncg     rms          rms(c)
DAV:   1    -0.658162042425E+03    0.48478E-03   -0.83757E-02   600   0.350E-01    0.144E-01
DAV:   2    -0.658167018231E+03   -0.49758E-02   -0.14909E-02   912   0.149E-01    0.752E-01
DAV:   3    -0.658162569277E+03    0.44490E-02   -0.11988E-02   792   0.103E-01    0.219E-01
DAV:   4    -0.658162429850E+03    0.13943E-03   -0.98640E-04   480   0.250E-02    0.211E-01
DAV:   5    -0.658162296773E+03    0.13308E-03   -0.88401E-04   444   0.205E-02    0.124E-01
DAV:   6    -0.658162246801E+03    0.49972E-04   -0.92151E-04   456   0.237E-02
  79 F= -.67323560E+03 E0= -.67316977E+03  d E =-.373688E-03
       N       E                     dE             d eps       ncg     rms          rms(c)
DAV:   1    -0.658161432970E+03    0.86380E-03   -0.78635E-02   600   0.338E-01    0.131E-01
DAV:   2    -0.658164728596E+03   -0.32956E-02   -0.10837E-02   912   0.127E-01    0.652E-01
DAV:   3    -0.658162029108E+03    0.26995E-02   -0.94546E-03   648   0.869E-02    0.270E-01
DAV:   4    -0.658161804850E+03    0.22426E-03   -0.95607E-04   480   0.296E-02    0.203E-01
DAV:   5    -0.658161670915E+03    0.13394E-03   -0.54310E-04   408   0.169E-02    0.125E-01
DAV:   6    -0.658161602062E+03    0.68852E-04   -0.66426E-04   420   0.220E-02
  80 F= -.67323565E+03 E0= -.67317001E+03  d E =-.430412E-03
       N       E                     dE             d eps       ncg     rms          rms(c)
DAV:   1    -0.658161361229E+03    0.30969E-03   -0.11402E-01   600   0.400E-01    0.135E-01
DAV:   2    -0.658162857837E+03   -0.14966E-02   -0.94863E-03   888   0.103E-01    0.483E-01
DAV:   3    -0.658162846737E+03    0.11100E-04   -0.99418E-03   648   0.736E-02    0.535E-01
DAV:   4    -0.658161968999E+03    0.87774E-03   -0.27197E-03   516   0.467E-02    0.222E-01
DAV:   5    -0.658161681301E+03    0.28770E-03   -0.55514E-04   432   0.187E-02    0.140E-01
DAV:   6    -0.658161578667E+03    0.10263E-03   -0.46540E-04   432   0.193E-02    0.922E-02
DAV:   7    -0.658161576206E+03    0.24611E-05   -0.42171E-04   336   0.162E-02
  81 F= -.67323623E+03 E0= -.67317065E+03  d E =-.571677E-03
       N       E                     dE             d eps       ncg     rms          rms(c)
DAV:   1    -0.658161221087E+03    0.35758E-03   -0.29177E-02   600   0.203E-01    0.658E-02
DAV:   2    -0.658161451044E+03   -0.22996E-03   -0.12081E-03   732   0.473E-02    0.180E-01
DAV:   3    -0.658161448430E+03    0.26144E-05   -0.89249E-04   468   0.282E-02
  82 F= -.67323640E+03 E0= -.67316908E+03  d E =-.748799E-03
       N       E                     dE             d eps       ncg     rms          rms(c)
DAV:   1    -0.658161378858E+03    0.72186E-04   -0.71795E-02   600   0.331E-01    0.110E-01
DAV:   2    -0.658164689332E+03   -0.33105E-02   -0.51406E-03   852   0.855E-02    0.937E-01
DAV:   3    -0.658162031941E+03    0.26574E-02   -0.45479E-03   660   0.701E-02    0.231E-01
DAV:   4    -0.658161584494E+03    0.44745E-03   -0.39967E-04   420   0.250E-02    0.126E-01
DAV:   5    -0.658161510763E+03    0.73732E-04   -0.23631E-04   360   0.157E-02
  83 F= -.67323670E+03 E0= -.67317197E+03  d E =-.298624E-03
       N       E                     dE             d eps       ncg     rms          rms(c)
DAV:   1    -0.658161386374E+03    0.19812E-03   -0.24973E-02   600   0.195E-01    0.104E-01
DAV:   2    -0.658161847356E+03   -0.46098E-03   -0.25099E-03   660   0.458E-02    0.312E-01
DAV:   3    -0.658162141700E+03   -0.29434E-03   -0.37626E-03   516   0.378E-02    0.380E-01
DAV:   4    -0.658161645050E+03    0.49665E-03   -0.20385E-03   432   0.322E-02    0.178E-01
DAV:   5    -0.658161516224E+03    0.12883E-03   -0.52839E-04   372   0.153E-02    0.142E-01
DAV:   6    -0.658161417098E+03    0.99126E-04   -0.18868E-04   360   0.136E-02
  84 F= -.67323675E+03 E0= -.67317166E+03  d E =-.345120E-03
       N       E                     dE             d eps       ncg     rms          rms(c)
DAV:   1    -0.658161778680E+03   -0.26246E-03   -0.31930E-02   600   0.225E-01    0.125E-01
DAV:   2    -0.658162277994E+03   -0.49931E-03   -0.16183E-03   744   0.496E-02    0.307E-01
DAV:   3    -0.658162129680E+03    0.14831E-03   -0.15562E-03   384   0.202E-02    0.200E-01
DAV:   4    -0.658162164165E+03   -0.34485E-04   -0.14523E-03   420   0.265E-02    0.245E-01
DAV:   5    -0.658161865607E+03    0.29856E-03   -0.58181E-04   396   0.204E-02    0.833E-02
DAV:   6    -0.658161825330E+03    0.40278E-04   -0.10079E-04   348   0.103E-02
  85 F= -.67323719E+03 E0= -.67317281E+03  d E =-.437696E-03
       N       E                     dE             d eps       ncg     rms          rms(c)
DAV:   1    -0.658162047944E+03   -0.18234E-03   -0.28790E-01   600   0.673E-01    0.207E-01
DAV:   2    -0.658164808359E+03   -0.27604E-02   -0.12055E-02   876   0.147E-01    0.761E-01
DAV:   3    -0.658164856106E+03   -0.47747E-04   -0.12573E-02   792   0.105E-01    0.543E-01
DAV:   4    -0.658162623228E+03    0.22329E-02   -0.26196E-03   624   0.563E-02    0.150E-01
DAV:   5    -0.658162536596E+03    0.86632E-04   -0.70865E-04   432   0.207E-02
  86 F= -.67323799E+03 E0= -.67317415E+03  d E =-.124008E-02
       N       E                     dE             d eps       ncg     rms          rms(c)
DAV:   1    -0.658159792588E+03    0.28306E-02   -0.11503E+00   600   0.135E+00    0.401E-01
DAV:   2    -0.658172187067E+03   -0.12394E-01   -0.40610E-02   864   0.295E-01    0.185E+00
DAV:   3    -0.658167358703E+03    0.48284E-02   -0.31690E-02   924   0.180E-01    0.752E-01
DAV:   4    -0.658162347196E+03    0.50115E-02   -0.36067E-03   732   0.701E-02    0.397E-01
DAV:   5    -0.658161918877E+03    0.42832E-03   -0.10698E-03   732   0.376E-02    0.385E-01
DAV:   6    -0.658161686325E+03    0.23255E-03   -0.35666E-03   612   0.400E-02    0.307E-01
DAV:   7    -0.658161587076E+03    0.99250E-04   -0.47253E-03   612   0.394E-02    0.273E-01
DAV:   8    -0.658161202697E+03    0.38438E-03   -0.42731E-03   492   0.325E-02    0.149E-01
DAV:   9    -0.658161129730E+03    0.72967E-04   -0.29257E-03   408   0.226E-02    0.124E-01
DAV:  10    -0.658161066578E+03    0.63152E-04   -0.15804E-03   396   0.164E-02    0.690E-02
DAV:  11    -0.658161056098E+03    0.10480E-04   -0.10243E-03   384   0.101E-02    0.824E-02
DAV:  12    -0.658161030162E+03    0.25936E-04   -0.60498E-04   384   0.882E-03
  87 F= -.67323668E+03 E0= -.67317163E+03  d E =0.719403E-04
       N       E                     dE             d eps       ncg     rms          rms(c)
DAV:   1    -0.658161461320E+03   -0.40522E-03   -0.64748E-01   600   0.101E+00    0.289E-01
DAV:   2    -0.658165646376E+03   -0.41851E-02   -0.23223E-02   792   0.224E-01    0.655E-01
DAV:   3    -0.658167765842E+03   -0.21195E-02   -0.24356E-02   864   0.147E-01    0.125E+00
DAV:   4    -0.658164443896E+03    0.33219E-02   -0.73132E-03   780   0.979E-02    0.429E-01
DAV:   5    -0.658163009043E+03    0.14349E-02   -0.10226E-03   624   0.360E-02    0.281E-01
DAV:   6    -0.658162578523E+03    0.43052E-03   -0.45142E-04   456   0.294E-02    0.162E-01
DAV:   7    -0.658162734627E+03   -0.15610E-03   -0.63609E-04   480   0.283E-02    0.271E-01
DAV:   8    -0.658162488137E+03    0.24649E-03   -0.37364E-04   336   0.251E-02    0.974E-02
DAV:   9    -0.658162416009E+03    0.72127E-04   -0.25204E-04   360   0.184E-02
  88 F= -.67323791E+03 E0= -.67317168E+03  d E =-.116684E-02
       N       E                     dE             d eps       ncg     rms          rms(c)
DAV:   1    -0.658162600517E+03   -0.11238E-03   -0.27202E-02   600   0.200E-01    0.676E-02
DAV:   2    -0.658162931318E+03   -0.33080E-03   -0.18003E-03   768   0.486E-02    0.228E-01
DAV:   3    -0.658162909069E+03    0.22249E-04   -0.19784E-03   456   0.385E-02    0.241E-01
DAV:   4    -0.658162685229E+03    0.22384E-03   -0.58680E-04   432   0.243E-02    0.813E-02
DAV:   5    -0.658162649856E+03    0.35373E-04   -0.23163E-04   324   0.901E-03
  89 F= -.67323822E+03 E0= -.67317279E+03  d E =-.301721E-03
       N       E                     dE             d eps       ncg     rms          rms(c)
DAV:   1    -0.658162808026E+03   -0.12280E-03   -0.24157E-01   600   0.595E-01    0.177E-01
DAV:   2    -0.658163883338E+03   -0.10753E-02   -0.68916E-03   852   0.131E-01    0.417E-01
DAV:   3    -0.658164850203E+03   -0.96686E-03   -0.62332E-03   696   0.792E-02    0.484E-01
DAV:   4    -0.658163313962E+03    0.15362E-02   -0.17451E-03   600   0.511E-02    0.139E-01
DAV:   5    -0.658163223724E+03    0.90239E-04   -0.17162E-04   360   0.160E-02
  90 F= -.67323900E+03 E0= -.67317493E+03  d E =-.108171E-02
       N       E                     dE             d eps       ncg     rms          rms(c)
DAV:   1    -0.658161504808E+03    0.18092E-02   -0.96050E-01   600   0.119E+00    0.391E-01
DAV:   2    -0.658164524569E+03   -0.30198E-02   -0.27413E-02   840   0.237E-01    0.585E-01
DAV:   3    -0.658164747806E+03   -0.22324E-03   -0.17707E-02   804   0.681E-02    0.510E-01
DAV:   4    -0.658166365312E+03   -0.16175E-02   -0.19502E-02   780   0.102E-01    0.922E-01
DAV:   5    -0.658163407391E+03    0.29579E-02   -0.78349E-03   636   0.754E-02    0.268E-01
DAV:   6    -0.658162919306E+03    0.48808E-03   -0.40078E-03   612   0.375E-02    0.237E-01
DAV:   7    -0.658162717837E+03    0.20147E-03   -0.40875E-03   480   0.243E-02    0.872E-02
DAV:   8    -0.658162735426E+03   -0.17589E-04   -0.24483E-03   396   0.211E-02    0.159E-01
DAV:   9    -0.658162638448E+03    0.96978E-04   -0.15736E-03   384   0.176E-02    0.483E-02
DAV:  10    -0.658162645342E+03   -0.68945E-05   -0.83990E-04   384   0.116E-02
  91 F= -.67323884E+03 E0= -.67317338E+03  d E =-.926747E-03
       N       E                     dE             d eps       ncg     rms          rms(c)
DAV:   1    -0.658162782847E+03   -0.14440E-03   -0.24248E-01   600   0.595E-01    0.186E-01
DAV:   2    -0.658165298829E+03   -0.25160E-02   -0.97747E-03   852   0.148E-01    0.532E-01
DAV:   3    -0.658164631200E+03    0.66763E-03   -0.96858E-03   744   0.982E-02    0.607E-01
DAV:   4    -0.658163643247E+03    0.98795E-03   -0.17926E-03   588   0.529E-02    0.243E-01
DAV:   5    -0.658163302366E+03    0.34088E-03   -0.24457E-04   384   0.200E-02    0.147E-01
DAV:   6    -0.658163297377E+03    0.49887E-05   -0.32562E-04   456   0.249E-02
  92 F= -.67323928E+03 E0= -.67317295E+03  d E =-.136521E-02
       N       E                     dE             d eps       ncg     rms          rms(c)
DAV:   1    -0.658163348670E+03   -0.46304E-04   -0.11506E-01   600   0.402E-01    0.145E-01
DAV:   2    -0.658167454173E+03   -0.41055E-02   -0.11330E-02   924   0.131E-01    0.702E-01
DAV:   3    -0.658164061376E+03    0.33928E-02   -0.96929E-03   744   0.987E-02    0.268E-01
DAV:   4    -0.658163832780E+03    0.22860E-03   -0.67165E-04   456   0.272E-02    0.225E-01
DAV:   5    -0.658163654362E+03    0.17842E-03   -0.35549E-04   396   0.200E-02    0.115E-01
DAV:   6    -0.658163572355E+03    0.82008E-04   -0.35839E-04   396   0.209E-02
  93 F= -.67323991E+03 E0= -.67317456E+03  d E =-.631668E-03
       N       E                     dE             d eps       ncg     rms          rms(c)
DAV:   1    -0.658161048879E+03    0.26055E-02   -0.10173E+00   600   0.120E+00    0.343E-01
DAV:   2    -0.658162809098E+03   -0.17602E-02   -0.24068E-02   900   0.232E-01    0.193E-01
DAV:   3    -0.658162659450E+03    0.14965E-03   -0.10914E-03   720   0.528E-02    0.171E-01
DAV:   4    -0.658164129252E+03   -0.14698E-02   -0.30097E-03   720   0.534E-02    0.639E-01
DAV:   5    -0.658163313068E+03    0.81618E-03   -0.39596E-03   612   0.657E-02    0.306E-01
DAV:   6    -0.658162681805E+03    0.63126E-03   -0.92836E-04   528   0.302E-02    0.127E-01
DAV:   7    -0.658162603591E+03    0.78213E-04   -0.66678E-04   360   0.154E-02
  94 F= -.67324002E+03 E0= -.67317564E+03  d E =-.742163E-03
       N       E                     dE             d eps       ncg     rms          rms(c)
DAV:   1    -0.658163078267E+03   -0.39646E-03   -0.16311E-01   600   0.478E-01    0.158E-01
DAV:   2    -0.658163768840E+03   -0.69057E-03   -0.48506E-03   864   0.102E-01    0.305E-01
DAV:   3    -0.658164822926E+03   -0.10541E-02   -0.39866E-03   576   0.537E-02    0.593E-01
DAV:   4    -0.658164114096E+03    0.70883E-03   -0.36206E-03   540   0.595E-02    0.310E-01
DAV:   5    -0.658163487600E+03    0.62650E-03   -0.49451E-04   408   0.254E-02    0.146E-01
DAV:   6    -0.658163369359E+03    0.11824E-03   -0.13890E-04   372   0.162E-02    0.942E-02
DAV:   7    -0.658163347412E+03    0.21946E-04   -0.19221E-04   324   0.151E-02
  95 F= -.67324033E+03 E0= -.67317425E+03  d E =-.105393E-02
       N       E                     dE             d eps       ncg     rms          rms(c)
DAV:   1    -0.658163231036E+03    0.13832E-03   -0.21448E-01   600   0.553E-01    0.161E-01
DAV:   2    -0.658163769721E+03   -0.53869E-03   -0.59071E-03   888   0.115E-01    0.205E-01
DAV:   3    -0.658163775836E+03   -0.61144E-05   -0.23940E-03   468   0.243E-02    0.189E-01
DAV:   4    -0.658163732151E+03    0.43685E-04   -0.23376E-03   372   0.206E-02    0.171E-01
DAV:   5    -0.658163950732E+03   -0.21858E-03   -0.21696E-03   432   0.299E-02    0.258E-01
DAV:   6    -0.658163596453E+03    0.35428E-03   -0.70252E-04   456   0.276E-02    0.725E-02
DAV:   7    -0.658163601105E+03   -0.46519E-05   -0.72058E-05   348   0.126E-02
  96 F= -.67324138E+03 E0= -.67317723E+03  d E =-.104902E-02
       N       E                     dE             d eps       ncg     rms          rms(c)
DAV:   1    -0.658160136920E+03    0.34595E-02   -0.19147E+00   600   0.166E+00    0.458E-01
DAV:   2    -0.658166093621E+03   -0.59567E-02   -0.48239E-02   876   0.333E-01    0.921E-01
DAV:   3    -0.658174022233E+03   -0.79286E-02   -0.43866E-02   912   0.203E-01    0.954E-01
DAV:   4    -0.658164721115E+03    0.93011E-02   -0.12850E-02   840   0.125E-01    0.473E-01
DAV:   5    -0.658163516377E+03    0.12047E-02   -0.21148E-03   756   0.472E-02    0.343E-01
DAV:   6    -0.658164304777E+03   -0.78840E-03   -0.36370E-03   744   0.610E-02    0.577E-01
DAV:   7    -0.658163457738E+03    0.84704E-03   -0.30529E-03   732   0.619E-02    0.285E-01
DAV:   8    -0.658162976255E+03    0.48148E-03   -0.93142E-04   468   0.300E-02    0.103E-01
DAV:   9    -0.658162910746E+03    0.65509E-04   -0.77370E-04   396   0.209E-02
  97 F= -.67324309E+03 E0= -.67317809E+03  d E =-.275958E-02
       N       E                     dE             d eps       ncg     rms          rms(c)
DAV:   1    -0.658162116744E+03    0.85951E-03   -0.57791E-01   600   0.925E-01    0.235E-01
DAV:   2    -0.658163198600E+03   -0.10819E-02   -0.14088E-02   840   0.171E-01    0.241E-01
DAV:   3    -0.658165414931E+03   -0.22163E-02   -0.10324E-02   720   0.771E-02    0.598E-01
DAV:   4    -0.658163634786E+03    0.17801E-02   -0.82065E-03   672   0.825E-02    0.354E-01
DAV:   5    -0.658163253331E+03    0.38145E-03   -0.11138E-03   540   0.364E-02    0.234E-01
DAV:   6    -0.658163173439E+03    0.79893E-04   -0.35438E-04   432   0.211E-02
  98 F= -.67324468E+03 E0= -.67318112E+03  d E =-.158833E-02
       N       E                     dE             d eps       ncg     rms          rms(c)
DAV:   1    -0.658162431723E+03    0.82161E-03   -0.10230E-01   600   0.392E-01    0.178E-01
DAV:   2    -0.658164283592E+03   -0.18519E-02   -0.87353E-03   864   0.871E-02    0.534E-01
DAV:   3    -0.658164707765E+03   -0.42417E-03   -0.13170E-02   768   0.902E-02    0.702E-01
DAV:   4    -0.658162862097E+03    0.18457E-02   -0.44572E-03   600   0.572E-02    0.179E-01
DAV:   5    -0.658162516996E+03    0.34510E-03   -0.17683E-03   372   0.230E-02    0.113E-01
DAV:   6    -0.658162469101E+03    0.47895E-04   -0.14854E-03   348   0.144E-02    0.871E-02
DAV:   7    -0.658162467490E+03    0.16105E-05   -0.11477E-03   372   0.162E-02    0.825E-02
DAV:   8    -0.658162448887E+03    0.18603E-04   -0.78473E-04   348   0.127E-02
  99 F= -.67324452E+03 E0= -.67317938E+03  d E =-.142992E-02
       N       E                     dE             d eps       ncg     rms          rms(c)
DAV:   1    -0.658161350562E+03    0.11169E-02   -0.62314E-01   600   0.993E-01    0.252E-01
DAV:   2    -0.658162861823E+03   -0.15113E-02   -0.16989E-02   900   0.179E-01    0.347E-01
DAV:   3    -0.658167091623E+03   -0.42298E-02   -0.16255E-02   744   0.999E-02    0.118E+00
DAV:   4    -0.658163566126E+03    0.35255E-02   -0.96317E-03   684   0.910E-02    0.359E-01
DAV:   5    -0.658162486267E+03    0.10799E-02   -0.11540E-03   636   0.353E-02    0.211E-01
[...]
DAV:   5    -0.658157209492E+03    0.41728E-03   -0.45347E-04   492   0.259E-02    0.974E-02
DAV:   6    -0.658157189794E+03    0.19698E-04   -0.59321E-04   384   0.159E-02
 181 F= -.67326721E+03 E0= -.67320230E+03  d E =-.377815E-03
       N       E                     dE             d eps       ncg     rms          rms(c)
DAV:   1    -0.658157456285E+03   -0.24679E-03   -0.30861E-02   600   0.217E-01    0.830E-02
DAV:   2    -0.658157715716E+03   -0.25943E-03   -0.32944E-03   852   0.560E-02    0.213E-01
DAV:   3    -0.658157710807E+03    0.49096E-05   -0.38356E-03   456   0.221E-02    0.180E-01
DAV:   4    -0.658157788404E+03   -0.77597E-04   -0.23844E-03   432   0.315E-02    0.218E-01
DAV:   5    -0.658157539394E+03    0.24901E-03   -0.75646E-04   408   0.189E-02    0.524E-02
DAV:   6    -0.658157523045E+03    0.16349E-04   -0.24845E-04   348   0.913E-03
 182 F= -.67326726E+03 E0= -.67320254E+03  d E =-.426677E-03
       N       E                     dE             d eps       ncg     rms          rms(c)
DAV:   1    -0.658157751994E+03   -0.21260E-03   -0.29430E-02   600   0.216E-01    0.634E-02
DAV:   2    -0.658157887216E+03   -0.13522E-03   -0.92872E-04   804   0.442E-02    0.147E-01
DAV:   3    -0.658157987100E+03   -0.99884E-04   -0.68445E-04   444   0.228E-02
 183 F= -.67326743E+03 E0= -.67319972E+03  d E =-.603719E-03
       N       E                     dE             d eps       ncg     rms          rms(c)
DAV:   1    -0.658157841748E+03    0.45468E-04   -0.91497E-03   624   0.118E-01    0.143E-01
DAV:   2    -0.658175683164E+03   -0.17841E-01   -0.19761E-02   852   0.132E-01    0.256E+00
DAV:   3    -0.658162414765E+03    0.13268E-01   -0.19099E-02   780   0.137E-01    0.424E-01
DAV:   4    -0.658158434971E+03    0.39798E-02   -0.23760E-03   624   0.579E-02    0.255E-01
DAV:   5    -0.658157931470E+03    0.50350E-03   -0.49897E-04   408   0.291E-02    0.889E-02
DAV:   6    -0.658157898388E+03    0.33082E-04   -0.34539E-04   348   0.154E-02
 184 F= -.67326751E+03 E0= -.67320198E+03  d E =-.737328E-04
       N       E                     dE             d eps       ncg     rms          rms(c)
DAV:   1    -0.658157443520E+03    0.48795E-03   -0.77655E-02   600   0.340E-01    0.980E-02
DAV:   2    -0.658157878219E+03   -0.43470E-03   -0.22268E-03   888   0.733E-02    0.236E-01
DAV:   3    -0.658158023834E+03   -0.14562E-03   -0.18866E-03   528   0.475E-02    0.333E-01
DAV:   4    -0.658157640617E+03    0.38322E-03   -0.85228E-04   456   0.338E-02    0.122E-01
DAV:   5    -0.658157562143E+03    0.78474E-04   -0.84427E-05   324   0.139E-02
 185 F= -.67326766E+03 E0= -.67320179E+03  d E =-.225427E-03
       N       E                     dE             d eps       ncg     rms          rms(c)
DAV:   1    -0.658156300235E+03    0.13404E-02   -0.30815E-01   600   0.677E-01    0.228E-01
DAV:   2    -0.658159137437E+03   -0.28372E-02   -0.14040E-02   900   0.166E-01    0.581E-01
DAV:   3    -0.658160533217E+03   -0.13958E-02   -0.18400E-02   852   0.129E-01    0.103E+00
DAV:   4    -0.658157632503E+03    0.29007E-02   -0.62632E-03   648   0.796E-02    0.301E-01
DAV:   5    -0.658156860775E+03    0.77173E-03   -0.10358E-03   492   0.296E-02    0.163E-01
DAV:   6    -0.658156723335E+03    0.13744E-03   -0.11107E-03   396   0.190E-02    0.106E-01
DAV:   7    -0.658156725380E+03   -0.20454E-05   -0.10731E-03   396   0.188E-02    0.120E-01
DAV:   8    -0.658156682553E+03    0.42827E-04   -0.71765E-04   348   0.169E-02
 186 F= -.67326776E+03 E0= -.67320244E+03  d E =-.324477E-03
       N       E                     dE             d eps       ncg     rms          rms(c)
DAV:   1    -0.658156580646E+03    0.14473E-03   -0.74332E-03   588   0.101E-01    0.653E-02
DAV:   2    -0.658157665347E+03   -0.10847E-02   -0.35501E-03   612   0.509E-02    0.426E-01
DAV:   3    -0.658156873269E+03    0.79208E-03   -0.38148E-03   552   0.531E-02    0.205E-01
DAV:   4    -0.658156678021E+03    0.19525E-03   -0.52400E-04   372   0.196E-02    0.117E-01
DAV:   5    -0.658156610501E+03    0.67520E-04   -0.21063E-04   372   0.103E-02
 187 F= -.67326782E+03 E0= -.67320294E+03  d E =-.658899E-04
       N       E                     dE             d eps       ncg     rms          rms(c)
DAV:   1    -0.658156396578E+03    0.28144E-03   -0.32115E-02   600   0.211E-01    0.850E-02
DAV:   2    -0.658156696001E+03   -0.29942E-03   -0.12974E-03   792   0.463E-02    0.214E-01
DAV:   3    -0.658156910950E+03   -0.21495E-03   -0.18350E-03   492   0.403E-02    0.316E-01
DAV:   4    -0.658156497359E+03    0.41359E-03   -0.90481E-04   432   0.323E-02    0.939E-02
DAV:   5    -0.658156428539E+03    0.68820E-04   -0.16938E-04   324   0.115E-02
 188 F= -.67326793E+03 E0= -.67320251E+03  d E =-.175797E-03
       N       E                     dE             d eps       ncg     rms          rms(c)
DAV:   1    -0.658155900844E+03    0.59651E-03   -0.12854E-01   600   0.422E-01    0.128E-01
DAV:   2    -0.658156796325E+03   -0.89548E-03   -0.48374E-03   900   0.958E-02    0.342E-01
DAV:   3    -0.658157066804E+03   -0.27048E-03   -0.50605E-03   612   0.675E-02    0.486E-01
DAV:   4    -0.658156296850E+03    0.76995E-03   -0.15125E-03   468   0.430E-02    0.167E-01
DAV:   5    -0.658156137183E+03    0.15967E-03   -0.17581E-04   360   0.162E-02    0.104E-01
DAV:   6    -0.658156100037E+03    0.37145E-04   -0.25761E-04   360   0.145E-02
 189 F= -.67326819E+03 E0= -.67320305E+03  d E =-.432051E-03
       N       E                     dE             d eps       ncg     rms          rms(c)
DAV:   1    -0.658154429498E+03    0.17077E-02   -0.51180E-01   600   0.842E-01    0.245E-01
DAV:   2    -0.658158498012E+03   -0.40685E-02   -0.19829E-02   876   0.200E-01    0.657E-01
DAV:   3    -0.658158138553E+03    0.35946E-03   -0.18507E-02   852   0.134E-01    0.882E-01
DAV:   4    -0.658156369570E+03    0.17690E-02   -0.48172E-03   636   0.733E-02    0.365E-01
DAV:   5    -0.658155559496E+03    0.81007E-03   -0.51682E-04   480   0.302E-02    0.228E-01
DAV:   6    -0.658155279443E+03    0.28005E-03   -0.48060E-04   420   0.281E-02    0.137E-01
DAV:   7    -0.658155334103E+03   -0.54660E-04   -0.76379E-04   468   0.232E-02
 190 F= -.67326860E+03 E0= -.67320142E+03  d E =-.839733E-03
       N       E                     dE             d eps       ncg     rms          rms(c)
DAV:   1    -0.658155456224E+03   -0.17678E-03   -0.36159E-02   600   0.234E-01    0.106E-01
DAV:   2    -0.658157067649E+03   -0.16114E-02   -0.74003E-03   876   0.826E-02    0.494E-01
DAV:   3    -0.658156115079E+03    0.95257E-03   -0.81315E-03   636   0.743E-02    0.369E-01
DAV:   4    -0.658155571800E+03    0.54328E-03   -0.15106E-03   432   0.340E-02    0.118E-01
DAV:   5    -0.658155480487E+03    0.91313E-04   -0.93702E-04   348   0.134E-02
 191 F= -.67326896E+03 E0= -.67320388E+03  d E =-.360819E-03
       N       E                     dE             d eps       ncg     rms          rms(c)
DAV:   1    -0.658154949617E+03    0.62218E-03   -0.32017E-01   600   0.697E-01    0.184E-01
DAV:   2    -0.658158140310E+03   -0.31907E-02   -0.11887E-02   912   0.160E-01    0.597E-01
DAV:   3    -0.658156378967E+03    0.17613E-02   -0.92365E-03   804   0.103E-01    0.466E-01
DAV:   4    -0.658155782936E+03    0.59603E-03   -0.11426E-03   528   0.401E-02    0.227E-01
DAV:   5    -0.658155598492E+03    0.18444E-03   -0.26669E-04   420   0.218E-02    0.174E-01
DAV:   6    -0.658155563108E+03    0.35384E-04   -0.49997E-04   636   0.314E-02
 192 F= -.67326969E+03 E0= -.67320291E+03  d E =-.108920E-02
       N       E                     dE             d eps       ncg     rms          rms(c)
DAV:   1    -0.658155551142E+03    0.47350E-04   -0.59806E-02   600   0.318E-01    0.127E-01
DAV:   2    -0.658157962527E+03   -0.24114E-02   -0.61915E-03   912   0.108E-01    0.618E-01
DAV:   3    -0.658156765554E+03    0.11970E-02   -0.72013E-03   660   0.839E-02    0.455E-01
DAV:   4    -0.658156076632E+03    0.68892E-03   -0.14102E-03   480   0.405E-02    0.243E-01
DAV:   5    -0.658155758144E+03    0.31849E-03   -0.18516E-04   372   0.178E-02    0.130E-01
DAV:   6    -0.658155647181E+03    0.11096E-03   -0.18690E-04   384   0.195E-02    0.767E-02
DAV:   7    -0.658155695192E+03   -0.48010E-04   -0.79538E-05   324   0.146E-02
 193 F= -.67326998E+03 E0= -.67320380E+03  d E =-.290920E-03
       N       E                     dE             d eps       ncg     rms          rms(c)
DAV:   1    -0.658154882503E+03    0.76468E-03   -0.54173E-01   600   0.951E-01    0.237E-01
DAV:   2    -0.658158486552E+03   -0.36040E-02   -0.17897E-02   876   0.203E-01    0.600E-01
DAV:   3    -0.658158254132E+03    0.23242E-03   -0.14596E-02   852   0.128E-01    0.827E-01
DAV:   4    -0.658156556518E+03    0.16976E-02   -0.34937E-03   648   0.667E-02    0.324E-01
DAV:   5    -0.658156015427E+03    0.54109E-03   -0.48472E-04   576   0.296E-02    0.225E-01
DAV:   6    -0.658155840206E+03    0.17522E-03   -0.60927E-04   708   0.342E-02    0.164E-01
DAV:   7    -0.658155751869E+03    0.88337E-04   -0.64137E-04   420   0.225E-02
 194 F= -.67327052E+03 E0= -.67320386E+03  d E =-.827744E-03
       N       E                     dE             d eps       ncg     rms          rms(c)
DAV:   1    -0.658155790394E+03    0.49813E-04   -0.68617E-02   600   0.309E-01    0.108E-01
DAV:   2    -0.658158709052E+03   -0.29187E-02   -0.80473E-03   900   0.109E-01    0.589E-01
DAV:   3    -0.658156032913E+03    0.26761E-02   -0.56118E-03   660   0.806E-02    0.151E-01
DAV:   4    -0.658155950810E+03    0.82103E-04   -0.20498E-04   348   0.203E-02
 195 F= -.67327088E+03 E0= -.67320718E+03  d E =-.363416E-03
       N       E                     dE             d eps       ncg     rms          rms(c)
DAV:   1    -0.658155890198E+03    0.14271E-03   -0.58710E-03   576   0.922E-02    0.970E-02
DAV:   2    -0.658156206524E+03   -0.31633E-03   -0.24757E-04   504   0.249E-02    0.260E-01
DAV:   3    -0.658156183505E+03    0.23019E-04   -0.34882E-04   432   0.212E-02
 196 F= -.67327116E+03 E0= -.67320348E+03  d E =-.645513E-03
       N       E                     dE             d eps       ncg     rms          rms(c)
DAV:   1    -0.658156123505E+03    0.83019E-04   -0.25493E-02   600   0.215E-01    0.140E-01
DAV:   2    -0.658163745041E+03   -0.76215E-02   -0.77278E-03   852   0.998E-02    0.155E+00
DAV:   3    -0.658158678881E+03    0.50662E-02   -0.11464E-02   708   0.107E-01    0.406E-01
DAV:   4    -0.658156724651E+03    0.19542E-02   -0.12245E-03   552   0.422E-02    0.310E-01
DAV:   5    -0.658156224549E+03    0.50010E-03   -0.26944E-04   408   0.229E-02    0.787E-02
DAV:   6    -0.658156172563E+03    0.51987E-04   -0.18616E-04   336   0.165E-02
 197 F= -.67327125E+03 E0= -.67320548E+03  d E =-.930088E-04
       N       E                     dE             d eps       ncg     rms          rms(c)
DAV:   1    -0.658155759601E+03    0.46495E-03   -0.95375E-02   600   0.415E-01    0.142E-01
DAV:   2    -0.658157509142E+03   -0.17495E-02   -0.55531E-03   912   0.110E-01    0.484E-01
DAV:   3    -0.658156655970E+03    0.85317E-03   -0.58682E-03   684   0.820E-02    0.416E-01
DAV:   4    -0.658156141685E+03    0.51429E-03   -0.77955E-04   492   0.353E-02    0.171E-01
DAV:   5    -0.658156034728E+03    0.10696E-03   -0.18088E-04   408   0.174E-02    0.141E-01
DAV:   6    -0.658155949359E+03    0.85369E-04   -0.16474E-04   408   0.209E-02
 198 F= -.67327123E+03 E0= -.67320559E+03  d E =-.739766E-04
       N       E                     dE             d eps       ncg     rms          rms(c)
DAV:   1    -0.658155992850E+03    0.41878E-04   -0.84541E-03   600   0.123E-01    0.838E-02
DAV:   2    -0.658156951013E+03   -0.95816E-03   -0.17482E-03   600   0.530E-02    0.420E-01
DAV:   3    -0.658156711260E+03    0.23975E-03   -0.31929E-03   564   0.571E-02    0.367E-01
DAV:   4    -0.658156206352E+03    0.50491E-03   -0.78705E-04   408   0.313E-02    0.155E-01
DAV:   5    -0.658156057356E+03    0.14900E-03   -0.95615E-05   348   0.124E-02    0.820E-02
DAV:   6    -0.658156012932E+03    0.44425E-04   -0.57980E-05   360   0.107E-02
 199 F= -.67327124E+03 E0= -.67320634E+03  d E =-.782570E-04
       N       E                     dE             d eps       ncg     rms          rms(c)
DAV:   1    -0.658156060341E+03   -0.29851E-05   -0.24683E-02   600   0.209E-01    0.686E-02
DAV:   2    -0.658156178937E+03   -0.11860E-03   -0.73163E-04   780   0.416E-02    0.125E-01
DAV:   3    -0.658156164916E+03    0.14020E-04   -0.14788E-04   348   0.128E-02
 200 F= -.67327147E+03 E0= -.67320557E+03  d E =-.235444E-03
       N       E                     dE             d eps       ncg     rms          rms(c)
DAV:   1    -0.658156279459E+03   -0.10052E-03   -0.75812E-03   600   0.117E-01    0.194E-01
DAV:   2    -0.658194456688E+03   -0.38177E-01   -0.43326E-02   876   0.191E-01    0.396E+00
DAV:   3    -0.658167348580E+03    0.27108E-01   -0.41360E-02   852   0.187E-01    0.575E-01
DAV:   4    -0.658157179946E+03    0.10169E-01   -0.51744E-03   768   0.848E-02    0.289E-01
DAV:   5    -0.658156432092E+03    0.74785E-03   -0.70495E-04   444   0.341E-02    0.165E-01
DAV:   6    -0.658156303530E+03    0.12856E-03   -0.52616E-04   360   0.199E-02    0.169E-01
DAV:   7    -0.658156142079E+03    0.16145E-03   -0.44408E-04   360   0.169E-02    0.582E-02
DAV:   8    -0.658156133498E+03    0.85818E-05   -0.27890E-04   324   0.119E-02
 201 F= -.67327149E+03 E0= -.67320570E+03  d E =-.249514E-03
       N       E                     dE             d eps       ncg     rms          rms(c)
DAV:   1    -0.658156150171E+03   -0.80921E-05   -0.11230E-02   600   0.138E-01    0.451E-02
DAV:   2    -0.658156496110E+03   -0.34594E-03   -0.13784E-03   528   0.393E-02    0.241E-01
DAV:   3    -0.658156250009E+03    0.24610E-03   -0.12822E-03   444   0.336E-02    0.129E-01
DAV:   4    -0.658156173106E+03    0.76903E-04   -0.17530E-04   348   0.137E-02
 202 F= -.67327166E+03 E0= -.67320686E+03  d E =-.167370E-03
       N       E                     dE             d eps       ncg     rms          rms(c)
DAV:   1    -0.658156014621E+03    0.23539E-03   -0.50063E-02   600   0.290E-01    0.854E-02
DAV:   2    -0.658156375035E+03   -0.36041E-03   -0.21077E-03   840   0.636E-02    0.246E-01
DAV:   3    -0.658156557931E+03   -0.18290E-03   -0.23885E-03   552   0.444E-02    0.276E-01
DAV:   4    -0.658156120633E+03    0.43730E-03   -0.88284E-04   444   0.321E-02    0.877E-02
DAV:   5    -0.658156080609E+03    0.40025E-04   -0.19743E-04   336   0.101E-02
 203 F= -.67327183E+03 E0= -.67320708E+03  d E =-.344695E-03
       N       E                     dE             d eps       ncg     rms          rms(c)
DAV:   1    -0.658156031704E+03    0.88930E-04   -0.16463E-02   600   0.165E-01    0.620E-02
DAV:   2    -0.658157048145E+03   -0.10164E-02   -0.24769E-03   672   0.558E-02    0.492E-01
DAV:   3    -0.658156212018E+03    0.83613E-03   -0.22915E-03   540   0.473E-02    0.150E-01
DAV:   4    -0.658156086390E+03    0.12563E-03   -0.24386E-04   360   0.161E-02    0.759E-02
DAV:   5    -0.658156062788E+03    0.23602E-04   -0.25010E-04   360   0.106E-02
 204 F= -.67327204E+03 E0= -.67320699E+03  d E =-.203153E-03
       N       E                     dE             d eps       ncg     rms          rms(c)
DAV:   1    -0.658155529575E+03    0.55681E-03   -0.13145E-01   600   0.466E-01    0.128E-01
DAV:   2    -0.658158824925E+03   -0.32954E-02   -0.81335E-03   924   0.122E-01    0.930E-01
DAV:   3    -0.658156463134E+03    0.23618E-02   -0.59235E-03   696   0.756E-02    0.274E-01
DAV:   4    -0.658155929087E+03    0.53405E-03   -0.46000E-04   468   0.291E-02    0.172E-01
DAV:   5    -0.658155802686E+03    0.12640E-03   -0.28186E-04   396   0.183E-02    0.119E-01
DAV:   6    -0.658155760750E+03    0.41936E-04   -0.34370E-04   384   0.177E-02
 205 F= -.67327236E+03 E0= -.67320710E+03  d E =-.528076E-03
       N       E                     dE             d eps       ncg     rms          rms(c)
DAV:   1    -0.658155649559E+03    0.15313E-03   -0.16361E-02   600   0.158E-01    0.984E-02
DAV:   2    -0.658156124238E+03   -0.47468E-03   -0.28855E-03   744   0.439E-02    0.316E-01
DAV:   3    -0.658156256581E+03   -0.13234E-03   -0.39190E-03   468   0.358E-02    0.292E-01
DAV:   4    -0.658155871706E+03    0.38488E-03   -0.17772E-03   408   0.320E-02    0.173E-01
DAV:   5    -0.658155752574E+03    0.11913E-03   -0.60408E-04   348   0.143E-02    0.119E-01
DAV:   6    -0.658155687882E+03    0.64692E-04   -0.20948E-04   360   0.132E-02
 206 F= -.67327255E+03 E0= -.67320740E+03  d E =-.193315E-03
       N       E                     dE             d eps       ncg     rms          rms(c)
DAV:   1    -0.658155319640E+03    0.43293E-03   -0.41945E-02   600   0.253E-01    0.123E-01
DAV:   2    -0.658156345433E+03   -0.10258E-02   -0.20983E-03   852   0.694E-02    0.475E-01
DAV:   3    -0.658157002813E+03   -0.65738E-03   -0.45778E-03   600   0.677E-02    0.460E-01
DAV:   4    -0.658155649040E+03    0.13538E-02   -0.21192E-03   480   0.482E-02    0.177E-01
DAV:   5    -0.658155596110E+03    0.52930E-04   -0.19750E-04   384   0.161E-02
 207 F= -.67327289E+03 E0= -.67320879E+03  d E =-.530118E-03
       N       E                     dE             d eps       ncg     rms          rms(c)
DAV:   1    -0.658155299941E+03    0.34910E-03   -0.29947E-03   612   0.700E-02    0.385E-02
DAV:   2    -0.658155561850E+03   -0.26191E-03   -0.42317E-04   456   0.269E-02    0.256E-01
DAV:   3    -0.658155267237E+03    0.29461E-03   -0.49136E-04   432   0.277E-02    0.868E-02
DAV:   4    -0.658155239620E+03    0.27616E-04   -0.66368E-05   348   0.118E-02
 208 F= -.67327265E+03 E0= -.67320752E+03  d E =-.286928E-03
       N       E                     dE             d eps       ncg     rms          rms(c)
DAV:   1    -0.658155282376E+03   -0.15140E-04   -0.81663E-04   588   0.355E-02    0.288E-02
DAV:   2    -0.658155473911E+03   -0.19153E-03   -0.39588E-04   396   0.193E-02    0.201E-01
DAV:   3    -0.658155315061E+03    0.15885E-03   -0.48582E-04   420   0.244E-02    0.758E-02
DAV:   4    -0.658155283214E+03    0.31847E-04   -0.58434E-05   324   0.802E-03
 209 F= -.67327263E+03 E0= -.67320744E+03  d E =-.272005E-03
       N       E                     dE             d eps       ncg     rms          rms(c)
DAV:   1    -0.658155134493E+03    0.18057E-03   -0.17020E-02   600   0.173E-01    0.632E-02
DAV:   2    -0.658155449538E+03   -0.31505E-03   -0.10767E-03   792   0.489E-02    0.254E-01
DAV:   3    -0.658155431910E+03    0.17628E-04   -0.12098E-03   468   0.351E-02    0.199E-01
DAV:   4    -0.658155218036E+03    0.21387E-03   -0.27227E-04   396   0.214E-02    0.736E-02
DAV:   5    -0.658155188933E+03    0.29102E-04   -0.32840E-05   348   0.729E-03
 210 F= -.67327284E+03 E0= -.67320783E+03  d E =-.204236E-03
       N       E                     dE             d eps       ncg     rms          rms(c)
DAV:   1    -0.658154512415E+03    0.70562E-03   -0.91119E-02   600   0.400E-01    0.139E-01
DAV:   2    -0.658155882606E+03   -0.13702E-02   -0.47340E-03   900   0.989E-02    0.538E-01
DAV:   3    -0.658155559017E+03    0.32359E-03   -0.48851E-03   720   0.712E-02    0.357E-01
DAV:   4    -0.658154817004E+03    0.74201E-03   -0.85856E-04   516   0.364E-02    0.126E-01
DAV:   5    -0.658154751303E+03    0.65701E-04   -0.12110E-04   348   0.132E-02
 211 F= -.67327309E+03 E0= -.67320873E+03  d E =-.458229E-03
       N       E                     dE             d eps       ncg     rms          rms(c)
DAV:   1    -0.658154619364E+03    0.19764E-03   -0.31189E-02   600   0.226E-01    0.969E-02
DAV:   2    -0.658154958320E+03   -0.33896E-03   -0.10794E-03   720   0.460E-02    0.251E-01
DAV:   3    -0.658154775202E+03    0.18312E-03   -0.56067E-04   384   0.174E-02    0.118E-01
DAV:   4    -0.658154789736E+03   -0.14534E-04   -0.51450E-04   336   0.165E-02
 212 F= -.67327344E+03 E0= -.67321006E+03  d E =-.345146E-03
