<?xml version="1.0" encoding="ISO-8859-1"?>
<modeling>
 <generator>
  <i name="program" type="string">vasp </i>
  <i name="version" type="string">5.4.1  </i>
  <i name="subversion" type="string">05Feb16 (build Apr 21 2017 13:36:42) gamma-only                       parallel </i>
  <i name="platform" type="string">IFC91_ompi </i>
  <i name="date" type="string">2020 09 15 </i>
  <i name="time" type="string">03:37:02 </i>
 </generator>
 <incar>
  <i type="string" name="SYSTEM"> basalPlane</i>
  <i type="int" name="ISTART">     0</i>
  <i type="string" name="PREC">accurate  !=accurate, max(enmax) no wra</i>
  <i type="string" name="ALGO"> Normal    !=Normal, blocked Davidson it</i>
  <i type="int" name="NSIM">     4</i>
  <i type="int" name="ISPIN">     1</i>
  <i type="int" name="ICHARG">     2</i>
  <i type="int" name="INIWAV">     1</i>
  <i type="int" name="NELM">   200</i>
  <i type="int" name="NELMDL">    -5</i>
  <i type="int" name="NELMIN">     2</i>
  <i type="int" name="IBRION">     2</i>
  <i name="EDIFF">      0.00010000</i>
  <i name="EDIFFG">     -0.02000000</i>
  <i type="int" name="NSW"> 10000</i>
  <i type="int" name="ISIF">     2</i>
  <i type="int" name="ISYM">     2</i>
  <i name="ENCUT">    400.00000000</i>
  <i name="ENAUG">    645.00000000</i>
  <i type="string" name="LREAL"> Auto     !=Auto projection operators ev</i>
  <i type="logical" name="LPLANE"> T  </i>
  <i type="int" name="ISMEAR">     0</i>
  <i name="SIGMA">      0.10000000</i>
  <i type="int" name="NWRITE">     2</i>
  <i type="logical" name="LWAVE"> F  </i>
  <i type="logical" name="LCHARG"> F  </i>
  <i type="logical" name="LORBIT"> F  </i>
  <i type="logical" name="LELF"> F  </i>
  <i type="logical" name="LSCALU"> F  </i>
  <v type="int" name="KPOINT_BSE">    -1     0     0     0</v>
  <i type="int" name="NELM">   200</i>
 </incar>
 <kpoints>
  <varray name="kpointlist" >
   <v>       0.00000000       0.00000000       0.00000000 </v>
  </varray>
  <varray name="weights" >
   <v>       1.00000000 </v>
  </varray>
 </kpoints>
 <parameters>
  <separator name="general" >
   <i type="string" name="SYSTEM">basalPlane</i>
   <i type="logical" name="LCOMPAT"> F  </i>
  </separator>
  <separator name="electronic" >
   <i type="string" name="PREC">accura</i>
   <i name="ENMAX">    400.00000000</i>
   <i name="ENAUG">    645.00000000</i>
   <i name="EDIFF">      0.00010000</i>
   <i type="int" name="IALGO">    38</i>
   <i type="int" name="IWAVPR">    11</i>
   <i type="int" name="NBANDS">   300</i>
   <i name="NELECT">    488.00000000</i>
   <i type="int" name="TURBO">     0</i>
   <i type="int" name="IRESTART">     0</i>
   <i type="int" name="NREBOOT">     0</i>
   <i type="int" name="NMIN">     0</i>
   <i name="EREF">      0.00000000</i>
   <separator name="electronic smearing" >
    <i type="int" name="ISMEAR">     0</i>
    <i name="SIGMA">      0.10000000</i>
    <i name="KSPACING">      0.50000000</i>
    <i type="logical" name="KGAMMA"> T  </i>
   </separator>
   <separator name="electronic projectors" >
    <i type="logical" name="LREAL"> T  </i>
    <v name="ROPT">     -0.00025000     -0.00025000     -0.00025000     -0.00025000     -0.00025000</v>
    <i type="int" name="LMAXPAW">  -100</i>
    <i type="int" name="LMAXMIX">     2</i>
    <i type="logical" name="NLSPLINE"> F  </i>
   </separator>
   <separator name="electronic startup" >
    <i type="int" name="ISTART">     0</i>
    <i type="int" name="ICHARG">     2</i>
    <i type="int" name="INIWAV">     1</i>
   </separator>
   <separator name="electronic spin" >
    <i type="int" name="ISPIN">     1</i>
    <i type="logical" name="LNONCOLLINEAR"> F  </i>
    <v name="MAGMOM">      1.00000000      1.00000000      1.00000000      1.00000000      1.00000000      1.00000000      1.00000000      1.00000000      1.00000000      1.00000000      1.00000000      1.00000000      1.00000000      1.00000000      1.00000000      1.00000000      1.00000000      1.00000000      1.00000000      1.00000000
      1.00000000      1.00000000      1.00000000      1.00000000      1.00000000      1.00000000      1.00000000      1.00000000      1.00000000      1.00000000      1.00000000      1.00000000      1.00000000      1.00000000      1.00000000      1.00000000      1.00000000      1.00000000      1.00000000      1.00000000
      1.00000000      1.00000000      1.00000000      1.00000000      1.00000000      1.00000000      1.00000000      1.00000000      1.00000000      1.00000000      1.00000000      1.00000000      1.00000000      1.00000000      1.00000000      1.00000000      1.00000000      1.00000000      1.00000000      1.00000000
      1.00000000      1.00000000      1.00000000      1.00000000      1.00000000      1.00000000      1.00000000      1.00000000      1.00000000      1.00000000      1.00000000      1.00000000      1.00000000      1.00000000      1.00000000      1.00000000      1.00000000      1.00000000      1.00000000      1.00000000
      1.00000000      1.00000000      1.00000000      1.00000000      1.00000000      1.00000000      1.00000000      1.00000000      1.00000000      1.00000000      1.00000000      1.00000000      1.00000000</v>
    <i name="NUPDOWN">     -1.00000000</i>
    <i type="logical" name="LSORBIT"> F  </i>
    <v name="SAXIS">      0.00000000      0.00000000      1.00000000</v>
    <i type="logical" name="LSPIRAL"> F  </i>
    <v name="QSPIRAL">      0.00000000      0.00000000      0.00000000</v>
    <i type="logical" name="LZEROZ"> F  </i>
   </separator>
   <separator name="electronic exchange-correlation" >
    <i type="logical" name="LASPH"> F  </i>
    <i type="logical" name="LMETAGGA"> F  </i>
   </separator>
   <separator name="electronic convergence" >
    <i type="int" name="NELM">   200</i>
    <i type="int" name="NELMDL">    -5</i>
    <i type="int" name="NELMIN">     2</i>
    <i name="ENINI">    400.00000000</i>
    <separator name="electronic convergence detail" >
     <i type="logical" name="LDIAG"> T  </i>
     <i type="logical" name="LSUBROT"> F  </i>
     <i name="WEIMIN">      0.00100000</i>
     <i name="EBREAK">      0.00000008</i>
     <i name="DEPER">      0.30000000</i>
     <i type="int" name="NRMM">     4</i>
     <i name="TIME">      0.40000000</i>
    </separator>
   </separator>
   <separator name="electronic mixer" >
    <i name="AMIX">      0.40000000</i>
    <i name="BMIX">      1.00000000</i>
    <i name="AMIN">      0.10000000</i>
    <i name="AMIX_MAG">      1.60000000</i>
    <i name="BMIX_MAG">      1.00000000</i>
    <separator name="electronic mixer details" >
     <i type="int" name="IMIX">     4</i>
     <i type="logical" name="MIXFIRST"> F  </i>
     <i type="int" name="MAXMIX">   -45</i>
     <i name="WC">    100.00000000</i>
     <i type="int" name="INIMIX">     1</i>
     <i type="int" name="MIXPRE">     1</i>
     <i type="int" name="MREMOVE">     5</i>
    </separator>
   </separator>
   <separator name="electronic dipolcorrection" >
    <i type="logical" name="LDIPOL"> F  </i>
    <i type="logical" name="LMONO"> F  </i>
    <i type="int" name="IDIPOL">     0</i>
    <i name="EPSILON">      1.00000000</i>
    <v name="DIPOL">   -100.00000000   -100.00000000   -100.00000000</v>
    <i name="EFIELD">      0.00000000</i>
   </separator>
  </separator>
  <separator name="grids" >
   <i type="int" name="NGX">    64</i>
   <i type="int" name="NGY">    84</i>
   <i type="int" name="NGZ">   240</i>
   <i type="int" name="NGXF">   128</i>
   <i type="int" name="NGYF">   168</i>
   <i type="int" name="NGZF">   480</i>
   <i type="logical" name="ADDGRID"> F  </i>
  </separator>
  <separator name="ionic" >
   <i type="int" name="NSW"> 10000</i>
   <i type="int" name="IBRION">     2</i>
   <i type="int" name="ISIF">     2</i>
   <i name="PSTRESS">      0.00000000</i>
   <i name="EDIFFG">     -0.02000000</i>
   <i type="int" name="NFREE">     1</i>
   <i name="POTIM">      0.50000000</i>
   <i name="SMASS">     -3.00000000</i>
   <i name="SCALEE">      1.00000000</i>
  </separator>
  <separator name="ionic md" >
   <i name="TEBEG">      0.00010000</i>
   <i name="TEEND">      0.00010000</i>
   <i type="int" name="NBLOCK">     1</i>
   <i type="int" name="KBLOCK"> 10000</i>
   <i type="int" name="NPACO">   256</i>
   <i name="APACO">     16.00000000</i>
  </separator>
  <separator name="symmetry" >
   <i type="int" name="ISYM">     2</i>
   <i name="SYMPREC">      0.00001000</i>
  </separator>
  <separator name="dos" >
   <i type="logical" name="LORBIT"> F  </i>
   <v name="RWIGS">     -1.00000000     -1.00000000     -1.00000000     -1.00000000     -1.00000000</v>
   <i type="int" name="NEDOS">   301</i>
   <i name="EMIN">     10.00000000</i>
   <i name="EMAX">    -10.00000000</i>
   <i name="EFERMI">      0.00000000</i>
  </separator>
  <separator name="writing" >
   <i type="int" name="NWRITE">     2</i>
   <i type="logical" name="LWAVE"> F  </i>
   <i type="logical" name="LCHARG"> F  </i>
   <i type="logical" name="LPARD"> F  </i>
   <i type="logical" name="LVTOT"> F  </i>
   <i type="logical" name="LVHAR"> F  </i>
   <i type="logical" name="LELF"> F  </i>
   <i type="logical" name="LOPTICS"> F  </i>
   <v name="STM">      0.00000000      0.00000000      0.00000000      0.00000000      0.00000000      0.00000000      0.00000000</v>
  </separator>
  <separator name="performance" >
   <i type="int" name="NPAR">    12</i>
   <i type="int" name="NSIM">     4</i>
   <i type="int" name="NBLK">    -1</i>
   <i type="logical" name="LPLANE"> T  </i>
   <i type="logical" name="LSCALAPACK"> T  </i>
   <i type="logical" name="LSCAAWARE"> F  </i>
   <i type="logical" name="LSCALU"> F  </i>
   <i type="logical" name="LASYNC"> F  </i>
   <i type="logical" name="LORBITALREAL"> F  </i>
  </separator>
  <separator name="miscellaneous" >
   <i type="int" name="IDIOT">     3</i>
   <i type="logical" name="LMUSIC"> F  </i>
   <v name="POMASS">     12.01100000     51.99600000      1.00000000     95.94000000     32.06600000</v>
   <v name="DARWINR">      0.00000000      0.00000000      0.00000000      0.00000000      0.00000000</v>
   <v name="DARWINV">      1.00000000      1.00000000      1.00000000      1.00000000      1.00000000</v>
   <i type="logical" name="LCORR"> T  </i>
  </separator>
  <i type="logical" name="GGA_COMPAT"> T  </i>
  <i type="logical" name="LBERRY"> F  </i>
  <i type="int" name="ICORELEVEL">     0</i>
  <i type="logical" name="LDAU"> F  </i>
  <i type="int" name="I_CONSTRAINED_M">     0</i>
  <separator name="electronic exchange-correlation" >
   <i type="string" name="GGA">--</i>
   <i type="int" name="VOSKOWN">     0</i>
   <i type="logical" name="LHFCALC"> F  </i>
   <i type="string" name="PRECFOCK"></i>
   <i type="logical" name="LSYMGRAD"> F  </i>
   <i type="logical" name="LHFONE"> F  </i>
   <i type="logical" name="LRHFCALC"> F  </i>
   <i type="logical" name="LTHOMAS"> F  </i>
   <i type="logical" name="LMODELHF"> F  </i>
   <i name="ENCUT4O">     -1.00000000</i>
   <i type="int" name="EXXOEP">     0</i>
   <i type="int" name="FOURORBIT">     0</i>
   <i name="AEXX">      0.00000000</i>
   <i name="HFALPHA">      0.00000000</i>
   <i name="MCALPHA">      0.00000000</i>
   <i name="ALDAX">      1.00000000</i>
   <i name="AGGAX">      1.00000000</i>
   <i name="ALDAC">      1.00000000</i>
   <i name="AGGAC">      1.00000000</i>
   <i type="int" name="NKREDX">     1</i>
   <i type="int" name="NKREDY">     1</i>
   <i type="int" name="NKREDZ">     1</i>
   <i type="logical" name="SHIFTRED"> F  </i>
   <i type="logical" name="ODDONLY"> F  </i>
   <i type="logical" name="EVENONLY"> F  </i>
   <i type="int" name="LMAXFOCK">     0</i>
   <i type="int" name="NMAXFOCKAE">     0</i>
   <i type="logical" name="LFOCKAEDFT"> F  </i>
   <i name="HFSCREEN">      0.00000000</i>
   <i name="HFSCREENC">      0.00000000</i>
   <i type="int" name="NBANDSGWLOW">     0</i>
  </separator>
  <separator name="vdW DFT" >
   <i type="logical" name="LUSE_VDW"> F  </i>
   <i name="Zab_VDW">     -0.84910000</i>
   <i name="PARAM1">      0.12340000</i>
   <i name="PARAM2">      1.00000000</i>
   <i name="PARAM3">      0.00000000</i>
  </separator>
  <separator name="model GW" >
   <i type="int" name="MODEL_GW">     0</i>
   <i name="MODEL_EPS0">     23.80275655</i>
   <i name="MODEL_ALPHA">      1.00000000</i>
  </separator>
  <separator name="linear response parameters" >
   <i type="logical" name="LEPSILON"> F  </i>
   <i type="logical" name="LRPA"> F  </i>
   <i type="logical" name="LNABLA"> F  </i>
   <i type="logical" name="LVEL"> F  </i>
   <i type="int" name="KINTER">     0</i>
   <i name="CSHIFT">      0.10000000</i>
   <i name="OMEGAMAX">     -1.00000000</i>
   <i name="DEG_THRESHOLD">      0.00200000</i>
  </separator>
  <separator name="orbital magnetization" >
   <i type="logical" name="NUCIND"> F  </i>
   <v name="MAGPOS">      0.00000000      0.00000000      0.00000000</v>
   <i type="logical" name="LNICSALL"> T  </i>
   <i type="logical" name="ORBITALMAG"> F  </i>
   <i type="logical" name="LMAGBLOCH"> F  </i>
   <i type="logical" name="LCHIMAG"> F  </i>
   <i type="logical" name="LGAUGE"> T  </i>
   <i type="int" name="MAGATOM">     0</i>
   <v name="MAGDIPOL">      0.00000000      0.00000000      0.00000000</v>
   <v name="AVECCONST">      0.00000000      0.00000000      0.00000000</v>
  </separator>
  <separator name="response functions" >
   <i type="logical" name="LADDER"> F  </i>
   <i type="logical" name="LFXC"> F  </i>
   <i type="logical" name="LHARTREE"> T  </i>
   <i type="int" name="IBSE">     0</i>
   <v type="int" name="KPOINT">    -1     0     0     0</v>
   <i type="logical" name="LTCTE"> F  </i>
   <i type="logical" name="LTETE"> F  </i>
   <i type="logical" name="LTRIPLET"> F  </i>
   <i type="logical" name="LFXCEPS"> F  </i>
   <i type="logical" name="LFXHEG"> F  </i>
   <i type="int" name="NATURALO">     0</i>
   <i type="logical" name="L2ORDER"> F  </i>
   <i type="logical" name="LUSEW"> F  </i>
   <i name="ENCUTGW">     -2.00000000</i>
   <i name="ENCUTGWSOFT">     -2.00000000</i>
   <i name="ENCUTLF">     -1.00000000</i>
   <i type="int" name="LMAXMP2">    -1</i>
   <i name="SCISSOR">      0.00000000</i>
   <i type="int" name="NOMEGA">     0</i>
   <i type="int" name="NOMEGAR">     0</i>
   <i type="int" name="NBANDSGW">    -1</i>
   <i type="int" name="NBANDSO">    -1</i>
   <i type="int" name="NBANDSV">    -1</i>
   <i type="int" name="NELM">   200</i>
   <i type="int" name="NELMHF">     1</i>
   <i type="int" name="DIM">     3</i>
   <i type="int" name="ANTIRES">     0</i>
   <i name="OMEGAMAX">    -30.00000000</i>
   <i name="OMEGAMIN">    -30.00000000</i>
   <i name="OMEGATL">   -200.00000000</i>
   <i type="int" name="OMEGAGRID">     0</i>
   <i name="CSHIFT">     -0.10000000</i>
   <i type="logical" name="SELFENERGY"> F  </i>
   <i type="logical" name="LSPECTRAL"> F  </i>
   <i type="logical" name="LSPECTRALGW"> F  </i>
   <i type="logical" name="LSINGLES"> F  </i>
   <i type="logical" name="LFERMIGW"> F  </i>
   <i type="logical" name="ODDONLYGW"> F  </i>
   <i type="logical" name="EVENONLYGW"> F  </i>
   <i type="int" name="NKREDLFX">     1</i>
   <i type="int" name="NKREDLFY">     1</i>
   <i type="int" name="NKREDLFZ">     1</i>
   <i type="int" name="MAXMEM">  1800</i>
   <i type="int" name="TELESCOPE">     0</i>
   <i type="int" name="TAUPAR">     1</i>
   <i type="int" name="OMEGAPAR">    -1</i>
   <i name="LAMBDA">      1.00000000</i>
  </separator>
  <separator name="External order field" >
   <i name="OFIELD_KAPPA">      0.00000000</i>
   <v name="OFIELD_K">      0.00000000      0.00000000      0.00000000</v>
   <i name="OFIELD_Q6_NEAR">      0.00000000</i>
   <i name="OFIELD_Q6_FAR">      0.00000000</i>
   <i name="OFIELD_A">      0.00000000</i>
  </separator>
 </parameters>
 <atominfo>
  <atoms>      93 </atoms>
  <types>       5 </types>
  <array name="atoms" >
   <dimension dim="1">ion</dimension>
   <field type="string">element</field>
   <field type="int">atomtype</field>
   <set>
    <rc><c>C </c><c>   1</c></rc>
    <rc><c>C </c><c>   1</c></rc>
    <rc><c>C </c><c>   1</c></rc>
    <rc><c>C </c><c>   1</c></rc>
    <rc><c>C </c><c>   1</c></rc>
    <rc><c>C </c><c>   1</c></rc>
    <rc><c>C </c><c>   1</c></rc>
    <rc><c>C </c><c>   1</c></rc>
    <rc><c>C </c><c>   1</c></rc>
    <rc><c>C </c><c>   1</c></rc>
    <rc><c>Cr</c><c>   2</c></rc>
    <rc><c>H </c><c>   3</c></rc>
    <rc><c>H </c><c>   3</c></rc>
    <rc><c>H </c><c>   3</c></rc>
    <rc><c>H </c><c>   3</c></rc>
    <rc><c>H </c><c>   3</c></rc>
    <rc><c>H </c><c>   3</c></rc>
    <rc><c>H </c><c>   3</c></rc>
    <rc><c>H </c><c>   3</c></rc>
    <rc><c>H </c><c>   3</c></rc>
    <rc><c>H </c><c>   3</c></rc>
    <rc><c>Mo</c><c>   4</c></rc>
    <rc><c>Mo</c><c>   4</c></rc>
    <rc><c>Mo</c><c>   4</c></rc>
    <rc><c>Mo</c><c>   4</c></rc>
    <rc><c>Mo</c><c>   4</c></rc>
    <rc><c>Mo</c><c>   4</c></rc>
    <rc><c>Mo</c><c>   4</c></rc>
    <rc><c>Mo</c><c>   4</c></rc>
    <rc><c>Mo</c><c>   4</c></rc>
    <rc><c>Mo</c><c>   4</c></rc>
    <rc><c>Mo</c><c>   4</c></rc>
    <rc><c>Mo</c><c>   4</c></rc>
    <rc><c>Mo</c><c>   4</c></rc>
    <rc><c>Mo</c><c>   4</c></rc>
    <rc><c>Mo</c><c>   4</c></rc>
    <rc><c>Mo</c><c>   4</c></rc>
    <rc><c>Mo</c><c>   4</c></rc>
    <rc><c>Mo</c><c>   4</c></rc>
    <rc><c>Mo</c><c>   4</c></rc>
    <rc><c>Mo</c><c>   4</c></rc>
    <rc><c>Mo</c><c>   4</c></rc>
    <rc><c>Mo</c><c>   4</c></rc>
    <rc><c>Mo</c><c>   4</c></rc>
    <rc><c>Mo</c><c>   4</c></rc>
    <rc><c>S </c><c>   5</c></rc>
    <rc><c>S </c><c>   5</c></rc>
    <rc><c>S </c><c>   5</c></rc>
    <rc><c>S </c><c>   5</c></rc>
    <rc><c>S </c><c>   5</c></rc>
    <rc><c>S </c><c>   5</c></rc>
    <rc><c>S </c><c>   5</c></rc>
    <rc><c>S </c><c>   5</c></rc>
    <rc><c>S </c><c>   5</c></rc>
    <rc><c>S </c><c>   5</c></rc>
    <rc><c>S </c><c>   5</c></rc>
    <rc><c>S </c><c>   5</c></rc>
    <rc><c>S </c><c>   5</c></rc>
    <rc><c>S </c><c>   5</c></rc>
    <rc><c>S </c><c>   5</c></rc>
    <rc><c>S </c><c>   5</c></rc>
    <rc><c>S </c><c>   5</c></rc>
    <rc><c>S </c><c>   5</c></rc>
    <rc><c>S </c><c>   5</c></rc>
    <rc><c>S </c><c>   5</c></rc>
    <rc><c>S </c><c>   5</c></rc>
    <rc><c>S </c><c>   5</c></rc>
    <rc><c>S </c><c>   5</c></rc>
    <rc><c>S </c><c>   5</c></rc>
    <rc><c>S </c><c>   5</c></rc>
    <rc><c>S </c><c>   5</c></rc>
    <rc><c>S </c><c>   5</c></rc>
    <rc><c>S </c><c>   5</c></rc>
    <rc><c>S </c><c>   5</c></rc>
    <rc><c>S </c><c>   5</c></rc>
    <rc><c>S </c><c>   5</c></rc>
    <rc><c>S </c><c>   5</c></rc>
    <rc><c>S </c><c>   5</c></rc>
    <rc><c>S </c><c>   5</c></rc>
    <rc><c>S </c><c>   5</c></rc>
    <rc><c>S </c><c>   5</c></rc>
    <rc><c>S </c><c>   5</c></rc>
    <rc><c>S </c><c>   5</c></rc>
    <rc><c>S </c><c>   5</c></rc>
    <rc><c>S </c><c>   5</c></rc>
    <rc><c>S </c><c>   5</c></rc>
    <rc><c>S </c><c>   5</c></rc>
    <rc><c>S </c><c>   5</c></rc>
    <rc><c>S </c><c>   5</c></rc>
    <rc><c>S </c><c>   5</c></rc>
    <rc><c>S </c><c>   5</c></rc>
    <rc><c>S </c><c>   5</c></rc>
    <rc><c>S </c><c>   5</c></rc>
   </set>
  </array>
  <array name="atomtypes" >
   <dimension dim="1">type</dimension>
   <field type="int">atomspertype</field>
   <field type="string">element</field>
   <field>mass</field>
   <field>valence</field>
   <field type="string">pseudopotential</field>
   <set>
    <rc><c>  10</c><c>C </c><c>     12.01100000</c><c>      4.00000000</c><c>  PAW_PBE C 08Apr2002                   </c></rc>
    <rc><c>   1</c><c>Cr</c><c>     51.99600000</c><c>      6.00000000</c><c>  PAW_PBE Cr 06Sep2000                  </c></rc>
    <rc><c>  10</c><c>H </c><c>      1.00000000</c><c>      1.00000000</c><c>  PAW_PBE H 15Jun2001                   </c></rc>
    <rc><c>  24</c><c>Mo</c><c>     95.94000000</c><c>      6.00000000</c><c>  PAW_PBE Mo 08Apr2002                  </c></rc>
    <rc><c>  48</c><c>S </c><c>     32.06600000</c><c>      6.00000000</c><c>  PAW_PBE S 06Sep2000                   </c></rc>
   </set>
  </array>
 </atominfo>
 <structure name="initialpos" >
  <crystal>
   <varray name="basis" >
    <v>       9.57094646       0.00000000       0.00000000 </v>
    <v>      -6.38062803      11.05157872       0.00000000 </v>
    <v>       0.00000000       0.00000000      34.88026251 </v>
   </varray>
   <i name="volume">   3689.42726549 </i>
   <varray name="rec_basis" >
    <v>       0.10448287       0.06032318       0.00000000 </v>
    <v>       0.00000000       0.09048481       0.00000000 </v>
    <v>       0.00000000       0.00000000       0.02866951 </v>
   </varray>
  </crystal>
  <varray name="positions" >
   <v>       0.58752831       0.05410521       0.42763385 </v>
   <v>       0.46154104       0.07929574       0.43565376 </v>
   <v>       0.69347278       0.09035387       0.45985497 </v>
   <v>       0.63233427       0.13851288       0.48847099 </v>
   <v>       0.48768506       0.13161832       0.47318553 </v>
   <v>       0.72174583       0.36845652       0.39461296 </v>
   <v>       0.81387751       0.43606075       0.45642225 </v>
   <v>       0.68457501       0.40831558       0.42997631 </v>
   <v>       0.92905601       0.41414753       0.43760754 </v>
   <v>       0.87313850       0.37239188       0.39977544 </v>
   <v>       0.69047129       0.24849239       0.43976808 </v>
   <v>       0.41085009       0.15929313       0.48772225 </v>
   <v>       0.58032563       0.41882438       0.43530914 </v>
   <v>       0.03693648       0.42162415       0.45068047 </v>
   <v>       0.82151016       0.46661557       0.48584732 </v>
   <v>       0.65023618       0.34279579       0.36847719 </v>
   <v>       0.36526414       0.06530108       0.41607084 </v>
   <v>       0.60444905       0.01878078       0.40071553 </v>
   <v>       0.80192942       0.08345855       0.46215147 </v>
   <v>       0.68296980       0.17045394       0.51683453 </v>
   <v>       0.93306685       0.34507173       0.37883372 </v>
   <v>       0.55555566       0.08333325       0.25000928 </v>
   <v>       0.55555566       0.33333325       0.25000928 </v>
   <v>       0.44444432       0.41666674       0.74999076 </v>
   <v>       0.55555566       0.58333325       0.25000928 </v>
   <v>       0.44444432       0.66666674       0.74999076 </v>
   <v>       0.55555566       0.83333325       0.25000928 </v>
   <v>       0.44444432       0.91666674       0.74999076 </v>
   <v>       0.88888899       0.33333325       0.25000928 </v>
   <v>       0.77777765       0.16666674       0.74999076 </v>
   <v>       0.77777765       0.41666674       0.74999076 </v>
   <v>       0.88888899       0.58333325       0.25000928 </v>
   <v>       0.77777765       0.66666674       0.74999076 </v>
   <v>       0.88888899       0.83333325       0.25000928 </v>
   <v>       0.77777765       0.91666674       0.74999076 </v>
   <v>       0.11111099       0.91666674       0.74999076 </v>
   <v>       0.88888899       0.08333325       0.25000928 </v>
   <v>       0.22222233       0.83333325       0.25000928 </v>
   <v>       0.44444432       0.16666674       0.74999076 </v>
   <v>       0.22222233       0.58333325       0.25000928 </v>
   <v>       0.11111099       0.41666674       0.74999076 </v>
   <v>       0.22222233       0.33333325       0.25000928 </v>
   <v>       0.22222233       0.08333325       0.25000928 </v>
   <v>       0.11111099       0.16666674       0.74999076 </v>
   <v>       0.11111099       0.66666674       0.74999076 </v>
   <v>       0.77777765       0.16666674       0.29487388 </v>
   <v>       0.88888899       0.08333325       0.79485533 </v>
   <v>       0.77777765       0.16666674       0.20514467 </v>
   <v>       0.88888899       0.08333325       0.70512613 </v>
   <v>       0.22222233       0.08333325       0.70512613 </v>
   <v>       0.11111099       0.16666674       0.20514467 </v>
   <v>       0.77777765       0.41666674       0.29487388 </v>
   <v>       0.88888899       0.33333325       0.79485533 </v>
   <v>       0.11111099       0.66666674       0.20514467 </v>
   <v>       0.55555566       0.83333325       0.70512613 </v>
   <v>       0.88888899       0.33333325       0.70512613 </v>
   <v>       0.22222233       0.08333325       0.79485533 </v>
   <v>       0.11111099       0.16666674       0.29487388 </v>
   <v>       0.77777765       0.66666674       0.29487388 </v>
   <v>       0.88888899       0.58333325       0.79485533 </v>
   <v>       0.77777765       0.66666674       0.20514467 </v>
   <v>       0.88888899       0.58333325       0.70512613 </v>
   <v>       0.77777765       0.91666674       0.29487388 </v>
   <v>       0.88888899       0.83333325       0.79485533 </v>
   <v>       0.77777765       0.41666674       0.20514467 </v>
   <v>       0.44444432       0.91666674       0.20514467 </v>
   <v>       0.44444432       0.91666674       0.29487388 </v>
   <v>       0.22222233       0.58333325       0.70512613 </v>
   <v>       0.22222233       0.58333325       0.79485533 </v>
   <v>       0.11111099       0.91666674       0.29487388 </v>
   <v>       0.22222233       0.83333325       0.79485533 </v>
   <v>       0.11111099       0.91666674       0.20514467 </v>
   <v>       0.22222233       0.83333325       0.70512613 </v>
   <v>       0.11111099       0.66666674       0.29487388 </v>
   <v>       0.77777765       0.91666674       0.20514467 </v>
   <v>       0.44444432       0.16666674       0.29487388 </v>
   <v>       0.55555566       0.08333325       0.79485533 </v>
   <v>       0.44444432       0.16666674       0.20514467 </v>
   <v>       0.55555566       0.08333325       0.70512613 </v>
   <v>       0.44444432       0.41666674       0.29487388 </v>
   <v>       0.55555566       0.33333325       0.79485533 </v>
   <v>       0.44444432       0.41666674       0.20514467 </v>
   <v>       0.55555566       0.33333325       0.70512613 </v>
   <v>       0.22222233       0.33333325       0.70512613 </v>
   <v>       0.11111099       0.41666674       0.20514467 </v>
   <v>       0.44444432       0.66666674       0.29487388 </v>
   <v>       0.55555566       0.58333325       0.79485533 </v>
   <v>       0.44444432       0.66666674       0.20514467 </v>
   <v>       0.55555566       0.58333325       0.70512613 </v>
   <v>       0.22222233       0.33333325       0.79485533 </v>
   <v>       0.11111099       0.41666674       0.29487388 </v>
   <v>       0.55555566       0.83333325       0.79485533 </v>
   <v>       0.88888899       0.83333325       0.70512613 </v>
  </varray>
 </structure>
 <calculation>
  <scstep>
   <time name="dav">    5.27    5.28</time>
   <time name="total">    5.67    5.69</time>
   <energy>
    <i name="alphaZ">    562.39184220 </i>
    <i name="ewald">  39538.65493377 </i>
    <i name="hartreedc"> -58459.48361057 </i>
    <i name="XCdc">   -737.34130851 </i>
    <i name="pawpsdc">  18197.44745459 </i>
    <i name="pawaedc"> -16322.33343364 </i>
    <i name="eentropy">     -0.18896268 </i>
    <i name="bandstr">   1230.62623843 </i>
    <i name="atom">  20380.58938199 </i>
    <i name="e_fr_energy">   4390.36253559 </i>
    <i name="e_wo_entrp">   4390.55149827 </i>
    <i name="e_0_energy">   4390.45701693 </i>
   </energy>
  </scstep>
  <scstep>
   <time name="dav">    8.56    8.59</time>
   <time name="total">    8.56    8.62</time>
   <energy>
    <i name="e_fr_energy">    -16.85761698 </i>
    <i name="e_wo_entrp">    -16.74506432 </i>
    <i name="e_0_energy">    -16.80134065 </i>
   </energy>
  </scstep>
  <scstep>
   <time name="dav">    6.72    6.74</time>
   <time name="total">    6.72    6.75</time>
   <energy>
    <i name="e_fr_energy">   -679.07997287 </i>
    <i name="e_wo_entrp">   -679.07997266 </i>
    <i name="e_0_energy">   -679.07997277 </i>
   </energy>
  </scstep>
  <scstep>
   <time name="dav">    7.68    7.71</time>
   <time name="total">    7.68    7.71</time>
   <energy>
    <i name="e_fr_energy">   -713.61696134 </i>
    <i name="e_wo_entrp">   -713.61696132 </i>
    <i name="e_0_energy">   -713.61696133 </i>
   </energy>
  </scstep>
  <scstep>
   <time name="dav">    7.85    7.87</time>
   <time name="total">    8.41    8.44</time>
   <energy>
    <i name="e_fr_energy">   -714.91042817 </i>
    <i name="e_wo_entrp">   -714.91042816 </i>
    <i name="e_0_energy">   -714.91042817 </i>
   </energy>
  </scstep>
  <scstep>
   <time name="dav">    7.28    7.31</time>
   <time name="total">    8.22    8.25</time>
   <energy>
    <i name="e_fr_energy">   -699.70808641 </i>
    <i name="e_wo_entrp">   -699.59588505 </i>
    <i name="e_0_energy">   -699.65198573 </i>
   </energy>
  </scstep>
  <scstep>
   <time name="dav">    8.07    8.10</time>
   <time name="total">    9.04    9.08</time>
   <energy>
    <i name="e_fr_energy">   -710.76915246 </i>
    <i name="e_wo_entrp">   -710.60511011 </i>
    <i name="e_0_energy">   -710.68713128 </i>
   </energy>
  </scstep>
  <scstep>
   <time name="dav">    7.24    7.26</time>
   <time name="total">    8.21    8.24</time>
   <energy>
    <i name="e_fr_energy">   -675.86276819 </i>
    <i name="e_wo_entrp">   -675.41569436 </i>
    <i name="e_0_energy">   -675.63923127 </i>
   </energy>
  </scstep>
  <scstep>
   <time name="dav">    7.34    7.36</time>
   <time name="total">    8.30    8.33</time>
   <energy>
    <i name="e_fr_energy">   -679.31841858 </i>
    <i name="e_wo_entrp">   -678.96885944 </i>
    <i name="e_0_energy">   -679.14363901 </i>
   </energy>
  </scstep>
  <scstep>
   <time name="dav">    7.43    7.45</time>
   <time name="total">    8.36    8.39</time>
   <energy>
    <i name="e_fr_energy">   -666.16241699 </i>
    <i name="e_wo_entrp">   -666.09121052 </i>
    <i name="e_0_energy">   -666.12681376 </i>
   </energy>
  </scstep>
  <scstep>
   <time name="dav">    8.10    8.13</time>
   <time name="total">    9.04    9.07</time>
   <energy>
    <i name="e_fr_energy">   -659.19320523 </i>
    <i name="e_wo_entrp">   -659.12444924 </i>
    <i name="e_0_energy">   -659.15882723 </i>
   </energy>
  </scstep>
  <scstep>
   <time name="dav">    8.04    8.06</time>
   <time name="total">    8.98    9.01</time>
   <energy>
    <i name="e_fr_energy">   -659.75942153 </i>
    <i name="e_wo_entrp">   -659.68121208 </i>
    <i name="e_0_energy">   -659.72031681 </i>
   </energy>
  </scstep>
  <scstep>
   <time name="dav">    7.80    7.82</time>
   <time name="total">    8.74    8.77</time>
   <energy>
    <i name="e_fr_energy">   -659.01746589 </i>
    <i name="e_wo_entrp">   -658.87401726 </i>
    <i name="e_0_energy">   -658.94574158 </i>
   </energy>
  </scstep>
  <scstep>
   <time name="dav">    8.46    8.51</time>
   <time name="total">    9.40    9.45</time>
   <energy>
    <i name="e_fr_energy">   -662.63753970 </i>
    <i name="e_wo_entrp">   -662.55694617 </i>
    <i name="e_0_energy">   -662.59724293 </i>
   </energy>
  </scstep>
  <scstep>
   <time name="dav">    7.42    7.44</time>
   <time name="total">    8.36    8.39</time>
   <energy>
    <i name="e_fr_energy">   -662.30051046 </i>
    <i name="e_wo_entrp">   -662.21760785 </i>
    <i name="e_0_energy">   -662.25905915 </i>
   </energy>
  </scstep>
  <scstep>
   <time name="dav">    7.71    7.73</time>
   <time name="total">    8.65    8.68</time>
   <energy>
    <i name="e_fr_energy">   -658.55912329 </i>
    <i name="e_wo_entrp">   -658.48086101 </i>
    <i name="e_0_energy">   -658.51999215 </i>
   </energy>
  </scstep>
  <scstep>
   <time name="dav">    7.30    7.32</time>
   <time name="total">    8.24    8.27</time>
   <energy>
    <i name="e_fr_energy">   -658.44426815 </i>
    <i name="e_wo_entrp">   -658.32449023 </i>
    <i name="e_0_energy">   -658.38437919 </i>
   </energy>
  </scstep>
  <scstep>
   <time name="dav">    8.00    8.03</time>
   <time name="total">    8.95    8.98</time>
   <energy>
    <i name="e_fr_energy">   -658.59088267 </i>
    <i name="e_wo_entrp">   -658.51153678 </i>
    <i name="e_0_energy">   -658.55120973 </i>
   </energy>
  </scstep>
  <scstep>
   <time name="dav">    7.58    7.60</time>
   <time name="total">    8.52    8.55</time>
   <energy>
    <i name="e_fr_energy">   -658.50008632 </i>
    <i name="e_wo_entrp">   -658.38043033 </i>
    <i name="e_0_energy">   -658.44025833 </i>
   </energy>
  </scstep>
  <scstep>
   <time name="dav">   15.64   15.74</time>
   <time name="total">   16.58   16.68</time>
   <energy>
    <i name="e_fr_energy">   -658.38677596 </i>
    <i name="e_wo_entrp">   -658.29354857 </i>
    <i name="e_0_energy">   -658.34016227 </i>
   </energy>
  </scstep>
  <scstep>
   <time name="dav">    8.18    8.21</time>
   <time name="total">    9.13    9.16</time>
   <energy>
    <i name="e_fr_energy">   -658.25764143 </i>
    <i name="e_wo_entrp">   -658.14618533 </i>
    <i name="e_0_energy">   -658.20191338 </i>
   </energy>
  </scstep>
  <scstep>
   <time name="dav">    7.98    8.01</time>
   <time name="total">    8.92    8.99</time>
   <energy>
    <i name="e_fr_energy">   -658.21515456 </i>
    <i name="e_wo_entrp">   -658.11233161 </i>
    <i name="e_0_energy">   -658.16374309 </i>
   </energy>
  </scstep>
  <scstep>
   <time name="dav">    7.66    7.68</time>
   <time name="total">    8.60    8.64</time>
   <energy>
    <i name="e_fr_energy">   -658.20622308 </i>
    <i name="e_wo_entrp">   -658.09741938 </i>
    <i name="e_0_energy">   -658.15182123 </i>
   </energy>
  </scstep>
  <scstep>
   <time name="dav">    7.35    7.38</time>
   <time name="total">    8.29    8.33</time>
   <energy>
    <i name="e_fr_energy">   -658.19091876 </i>
    <i name="e_wo_entrp">   -658.08410285 </i>
    <i name="e_0_energy">   -658.13751081 </i>
   </energy>
  </scstep>
  <scstep>
   <time name="dav">    7.91    7.95</time>
   <time name="total">    8.88    8.92</time>
   <energy>
    <i name="e_fr_energy">   -658.14143780 </i>
    <i name="e_wo_entrp">   -658.02321231 </i>
    <i name="e_0_energy">   -658.08232505 </i>
   </energy>
  </scstep>
  <scstep>
   <time name="dav">    7.85    7.87</time>
   <time name="total">    8.83    8.85</time>
   <energy>
    <i name="e_fr_energy">   -658.19579893 </i>
    <i name="e_wo_entrp">   -658.01146345 </i>
    <i name="e_0_energy">   -658.10363119 </i>
   </energy>
  </scstep>
  <scstep>
   <time name="dav">    7.45    7.48</time>
   <time name="total">    8.42    8.46</time>
   <energy>
    <i name="e_fr_energy">   -658.17319054 </i>
    <i name="e_wo_entrp">   -657.99325045 </i>
    <i name="e_0_energy">   -658.08322049 </i>
   </energy>
  </scstep>
  <scstep>
   <time name="dav">    7.09    7.12</time>
   <time name="total">    8.08    8.12</time>
   <energy>
    <i name="e_fr_energy">   -658.15810499 </i>
    <i name="e_wo_entrp">   -657.98579765 </i>
    <i name="e_0_energy">   -658.07195132 </i>
   </energy>
  </scstep>
  <scstep>
   <time name="dav">    6.61    6.64</time>
   <time name="total">    7.60    7.63</time>
   <energy>
    <i name="e_fr_energy">   -658.17662988 </i>
    <i name="e_wo_entrp">   -657.99450859 </i>
    <i name="e_0_energy">   -658.08556924 </i>
   </energy>
  </scstep>
  <scstep>
   <time name="dav">    6.89    6.91</time>
   <time name="total">    7.86    7.89</time>
   <energy>
    <i name="e_fr_energy">   -658.15394405 </i>
    <i name="e_wo_entrp">   -657.99893893 </i>
    <i name="e_0_energy">   -658.07644149 </i>
   </energy>
  </scstep>
  <scstep>
   <time name="dav">    7.11    7.13</time>
   <time name="total">    8.09    8.11</time>
   <energy>
    <i name="e_fr_energy">   -658.14925350 </i>
    <i name="e_wo_entrp">   -657.99305769 </i>
    <i name="e_0_energy">   -658.07115559 </i>
   </energy>
  </scstep>
  <scstep>
   <time name="dav">    5.90    5.91</time>
   <time name="total">    6.88    6.90</time>
   <energy>
    <i name="e_fr_energy">   -658.15639171 </i>
    <i name="e_wo_entrp">   -657.98743721 </i>
    <i name="e_0_energy">   -658.07191446 </i>
   </energy>
  </scstep>
  <scstep>
   <time name="dav">    5.72    5.74</time>
   <time name="total">    6.70    6.72</time>
   <energy>
    <i name="e_fr_energy">   -658.15218734 </i>
    <i name="e_wo_entrp">   -657.98739073 </i>
    <i name="e_0_energy">   -658.06978904 </i>
   </energy>
  </scstep>
  <scstep>
   <time name="dav">    5.18    5.19</time>
   <time name="total">    6.15    6.17</time>
   <energy>
    <i name="e_fr_energy">   -658.14440627 </i>
    <i name="e_wo_entrp">   -657.98782028 </i>
    <i name="e_0_energy">   -658.06611328 </i>
   </energy>
  </scstep>
  <scstep>
   <time name="dav">    5.21    5.23</time>
   <time name="total">    6.19    6.22</time>
   <energy>
    <i name="e_fr_energy">   -658.14103998 </i>
    <i name="e_wo_entrp">   -657.98728761 </i>
    <i name="e_0_energy">   -658.06416380 </i>
   </energy>
  </scstep>
  <scstep>
   <time name="dav">    4.23    4.25</time>
   <time name="total">    5.22    5.24</time>
   <energy>
    <i name="e_fr_energy">   -658.13868821 </i>
    <i name="e_wo_entrp">   -657.98582636 </i>
    <i name="e_0_energy">   -658.06225728 </i>
   </energy>
  </scstep>
  <scstep>
   <time name="dav">    5.77    5.78</time>
   <time name="total">    6.74    6.78</time>
   <energy>
    <i name="e_fr_energy">   -658.13377421 </i>
    <i name="e_wo_entrp">   -657.98520741 </i>
    <i name="e_0_energy">   -658.05949081 </i>
   </energy>
  </scstep>
  <scstep>
   <time name="dav">    5.16    5.17</time>
   <time name="total">    6.13    6.56</time>
   <energy>
    <i name="e_fr_energy">   -658.13068748 </i>
    <i name="e_wo_entrp">   -657.98195868 </i>
    <i name="e_0_energy">   -658.05632308 </i>
   </energy>
  </scstep>
  <scstep>
   <time name="dav">    6.10    6.12</time>
   <time name="total">    7.08    7.13</time>
   <energy>
    <i name="e_fr_energy">   -658.12553294 </i>
    <i name="e_wo_entrp">   -657.98254291 </i>
    <i name="e_0_energy">   -658.05403792 </i>
   </energy>
  </scstep>
  <scstep>
   <time name="dav">    6.46    6.48</time>
   <time name="total">    7.43    7.54</time>
   <energy>
    <i name="e_fr_energy">   -658.11975737 </i>
    <i name="e_wo_entrp">   -657.98891567 </i>
    <i name="e_0_energy">   -658.05433652 </i>
   </energy>
  </scstep>
  <scstep>
   <time name="dav">    6.20    6.22</time>
   <time name="total">    7.18    7.21</time>
   <energy>
    <i name="e_fr_energy">   -658.11678451 </i>
    <i name="e_wo_entrp">   -657.98947567 </i>
    <i name="e_0_energy">   -658.05313009 </i>
   </energy>
  </scstep>
  <scstep>
   <time name="dav">    4.77    4.79</time>
   <time name="total">    5.75    6.14</time>
   <energy>
    <i name="e_fr_energy">   -658.11537439 </i>
    <i name="e_wo_entrp">   -657.98899126 </i>
    <i name="e_0_energy">   -658.05218282 </i>
   </energy>
  </scstep>
  <scstep>
   <time name="dav">    4.61    4.63</time>
   <time name="total">    5.60    5.75</time>
   <energy>
    <i name="e_fr_energy">   -658.11430638 </i>
    <i name="e_wo_entrp">   -657.98999397 </i>
    <i name="e_0_energy">   -658.05215017 </i>
   </energy>
  </scstep>
  <scstep>
   <time name="dav">    5.89    5.92</time>
   <time name="total">    6.87    6.91</time>
   <energy>
    <i name="e_fr_energy">   -658.11197815 </i>
    <i name="e_wo_entrp">   -657.98902294 </i>
    <i name="e_0_energy">   -658.05050055 </i>
   </energy>
  </scstep>
  <scstep>
   <time name="dav">    4.91    4.93</time>
   <time name="total">    5.90    5.92</time>
   <energy>
    <i name="e_fr_energy">   -658.11058961 </i>
    <i name="e_wo_entrp">   -657.99042346 </i>
    <i name="e_0_energy">   -658.05050654 </i>
   </energy>
  </scstep>
  <scstep>
   <time name="dav">    4.90    4.95</time>
   <time name="total">    5.90    6.07</time>
   <energy>
    <i name="e_fr_energy">   -658.10941265 </i>
    <i name="e_wo_entrp">   -657.99033661 </i>
    <i name="e_0_energy">   -658.04987463 </i>
   </energy>
  </scstep>
  <scstep>
   <time name="dav">    4.59    4.61</time>
   <time name="total">    5.59    5.62</time>
   <energy>
    <i name="e_fr_energy">   -658.10851561 </i>
    <i name="e_wo_entrp">   -657.98997858 </i>
    <i name="e_0_energy">   -658.04924709 </i>
   </energy>
  </scstep>
  <scstep>
   <time name="dav">    5.68    5.70</time>
   <time name="total">    6.68    6.72</time>
   <energy>
    <i name="e_fr_energy">   -658.10673310 </i>
    <i name="e_wo_entrp">   -657.98784578 </i>
    <i name="e_0_energy">   -658.04728944 </i>
   </energy>
  </scstep>
  <scstep>
   <time name="dav">    4.24    4.63</time>
   <time name="total">    4.62    5.01</time>
   <energy>
    <i name="alphaZ">    562.39184220 </i>
    <i name="ewald">  39538.65493377 </i>
    <i name="hartreedc"> -58940.69245105 </i>
    <i name="XCdc">   -700.28930849 </i>
    <i name="pawpsdc">  42723.82778588 </i>
    <i name="pawaedc"> -40891.55341430 </i>
    <i name="eentropy">     -0.11915534 </i>
    <i name="bandstr">  -3330.91635999 </i>
    <i name="atom">  20380.58938199 </i>
    <i name="e_fr_energy">   -658.10674534 </i>
    <i name="e_wo_entrp">   -657.98759000 </i>
    <i name="e_0_energy">   -658.04716767 </i>
   </energy>
  </scstep>
  <structure>
   <crystal>
    <varray name="basis" >
     <v>       9.57094646       0.00000000       0.00000000 </v>
     <v>      -6.38062803      11.05157872       0.00000000 </v>
     <v>       0.00000000       0.00000000      34.88026251 </v>
    </varray>
    <i name="volume">   3689.42726549 </i>
    <varray name="rec_basis" >
     <v>       0.10448287       0.06032318       0.00000000 </v>
     <v>       0.00000000       0.09048481       0.00000000 </v>
     <v>       0.00000000       0.00000000       0.02866951 </v>
    </varray>
   </crystal>
   <varray name="positions" >
    <v>       0.58752831       0.05410521       0.42763385 </v>
    <v>       0.46154104       0.07929574       0.43565376 </v>
    <v>       0.69347278       0.09035387       0.45985497 </v>
    <v>       0.63233427       0.13851288       0.48847099 </v>
    <v>       0.48768506       0.13161832       0.47318553 </v>
    <v>       0.72174583       0.36845652       0.39461296 </v>
    <v>       0.81387751       0.43606075       0.45642225 </v>
    <v>       0.68457501       0.40831558       0.42997631 </v>
    <v>       0.92905601       0.41414753       0.43760754 </v>
    <v>       0.87313850       0.37239188       0.39977544 </v>
    <v>       0.69047129       0.24849239       0.43976808 </v>
    <v>       0.41085009       0.15929313       0.48772225 </v>
    <v>       0.58032563       0.41882438       0.43530914 </v>
    <v>       0.03693648       0.42162415       0.45068047 </v>
    <v>       0.82151016       0.46661557       0.48584732 </v>
    <v>       0.65023618       0.34279579       0.36847719 </v>
    <v>       0.36526414       0.06530108       0.41607084 </v>
    <v>       0.60444905       0.01878078       0.40071553 </v>
    <v>       0.80192942       0.08345855       0.46215147 </v>
    <v>       0.68296980       0.17045394       0.51683453 </v>
    <v>       0.93306685       0.34507173       0.37883372 </v>
    <v>       0.55555566       0.08333325       0.25000928 </v>
    <v>       0.55555566       0.33333325       0.25000928 </v>
    <v>       0.44444432       0.41666674       0.74999076 </v>
    <v>       0.55555566       0.58333325       0.25000928 </v>
    <v>       0.44444432       0.66666674       0.74999076 </v>
    <v>       0.55555566       0.83333325       0.25000928 </v>
    <v>       0.44444432       0.91666674       0.74999076 </v>
    <v>       0.88888899       0.33333325       0.25000928 </v>
    <v>       0.77777765       0.16666674       0.74999076 </v>
    <v>       0.77777765       0.41666674       0.74999076 </v>
    <v>       0.88888899       0.58333325       0.25000928 </v>
    <v>       0.77777765       0.66666674       0.74999076 </v>
    <v>       0.88888899       0.83333325       0.25000928 </v>
    <v>       0.77777765       0.91666674       0.74999076 </v>
    <v>       0.11111099       0.91666674       0.74999076 </v>
    <v>       0.88888899       0.08333325       0.25000928 </v>
    <v>       0.22222233       0.83333325       0.25000928 </v>
    <v>       0.44444432       0.16666674       0.74999076 </v>
    <v>       0.22222233       0.58333325       0.25000928 </v>
    <v>       0.11111099       0.41666674       0.74999076 </v>
    <v>       0.22222233       0.33333325       0.25000928 </v>
    <v>       0.22222233       0.08333325       0.25000928 </v>
    <v>       0.11111099       0.16666674       0.74999076 </v>
    <v>       0.11111099       0.66666674       0.74999076 </v>
    <v>       0.77777765       0.16666674       0.29487388 </v>
    <v>       0.88888899       0.08333325       0.79485533 </v>
    <v>       0.77777765       0.16666674       0.20514467 </v>
    <v>       0.88888899       0.08333325       0.70512613 </v>
    <v>       0.22222233       0.08333325       0.70512613 </v>
    <v>       0.11111099       0.16666674       0.20514467 </v>
    <v>       0.77777765       0.41666674       0.29487388 </v>
    <v>       0.88888899       0.33333325       0.79485533 </v>
    <v>       0.11111099       0.66666674       0.20514467 </v>
    <v>       0.55555566       0.83333325       0.70512613 </v>
    <v>       0.88888899       0.33333325       0.70512613 </v>
    <v>       0.22222233       0.08333325       0.79485533 </v>
    <v>       0.11111099       0.16666674       0.29487388 </v>
    <v>       0.77777765       0.66666674       0.29487388 </v>
    <v>       0.88888899       0.58333325       0.79485533 </v>
    <v>       0.77777765       0.66666674       0.20514467 </v>
    <v>       0.88888899       0.58333325       0.70512613 </v>
    <v>       0.77777765       0.91666674       0.29487388 </v>
    <v>       0.88888899       0.83333325       0.79485533 </v>
    <v>       0.77777765       0.41666674       0.20514467 </v>
    <v>       0.44444432       0.91666674       0.20514467 </v>
    <v>       0.44444432       0.91666674       0.29487388 </v>
    <v>       0.22222233       0.58333325       0.70512613 </v>
    <v>       0.22222233       0.58333325       0.79485533 </v>
    <v>       0.11111099       0.91666674       0.29487388 </v>
    <v>       0.22222233       0.83333325       0.79485533 </v>
    <v>       0.11111099       0.91666674       0.20514467 </v>
    <v>       0.22222233       0.83333325       0.70512613 </v>
    <v>       0.11111099       0.66666674       0.29487388 </v>
    <v>       0.77777765       0.91666674       0.20514467 </v>
    <v>       0.44444432       0.16666674       0.29487388 </v>
    <v>       0.55555566       0.08333325       0.79485533 </v>
    <v>       0.44444432       0.16666674       0.20514467 </v>
    <v>       0.55555566       0.08333325       0.70512613 </v>
    <v>       0.44444432       0.41666674       0.29487388 </v>
    <v>       0.55555566       0.33333325       0.79485533 </v>
    <v>       0.44444432       0.41666674       0.20514467 </v>
    <v>       0.55555566       0.33333325       0.70512613 </v>
    <v>       0.22222233       0.33333325       0.70512613 </v>
    <v>       0.11111099       0.41666674       0.20514467 </v>
    <v>       0.44444432       0.66666674       0.29487388 </v>
    <v>       0.55555566       0.58333325       0.79485533 </v>
    <v>       0.44444432       0.66666674       0.20514467 </v>
    <v>       0.55555566       0.58333325       0.70512613 </v>
    <v>       0.22222233       0.33333325       0.79485533 </v>
    <v>       0.11111099       0.41666674       0.29487388 </v>
    <v>       0.55555566       0.83333325       0.79485533 </v>
    <v>       0.88888899       0.83333325       0.70512613 </v>
   </varray>
  </structure>
  <varray name="forces" >
   <v>      -0.00507980       0.00196804       0.00844298 </v>
   <v>       0.02846640       0.01506513      -0.00005956 </v>
   <v>      -0.02819928       0.01806164      -0.01413989 </v>
   <v>      -0.00812237       0.00891150      -0.02984311 </v>
   <v>       0.02605810       0.01043687      -0.02811244 </v>
   <v>       0.00112678      -0.02867065       0.08429579 </v>
   <v>       0.01307035      -0.02788833      -0.01368152 </v>
   <v>       0.04710892      -0.02960462      -0.00405038 </v>
   <v>      -0.01843509      -0.02660075      -0.02879703 </v>
   <v>      -0.02907153       0.00033205       0.00836008 </v>
   <v>      -0.01252868       0.02759642      -0.02616287 </v>
   <v>       0.00496625       0.00117609      -0.00581569 </v>
   <v>       0.00269728      -0.00545322      -0.00064177 </v>
   <v>      -0.01515974       0.00375602      -0.01433221 </v>
   <v>       0.00437272       0.00077623       0.00454963 </v>
   <v>      -0.00435964      -0.01774165       0.03910574 </v>
   <v>       0.00674226      -0.00026527      -0.01669529 </v>
   <v>      -0.00285400       0.00474141      -0.01045537 </v>
   <v>      -0.00958418       0.00204696       0.00316438 </v>
   <v>      -0.00808533       0.00306916      -0.00235080 </v>
   <v>      -0.01317735       0.00270574      -0.02806192 </v>
   <v>       0.01799174       0.17999861       0.01243163 </v>
   <v>       0.02757438       0.18001303       0.00485782 </v>
   <v>      -0.01612215      -0.17552385      -0.00283453 </v>
   <v>       0.02183088       0.17907548       0.00714755 </v>
   <v>      -0.01605819      -0.17589205      -0.00281159 </v>
   <v>       0.01721478       0.17624350       0.00950967 </v>
   <v>      -0.01619235      -0.17633381      -0.00279053 </v>
   <v>       0.00665931       0.17948637       0.00540403 </v>
   <v>      -0.01058765      -0.17809595      -0.00218758 </v>
   <v>      -0.01055787      -0.17745910      -0.00244093 </v>
   <v>       0.01859243       0.16763503       0.00753330 </v>
   <v>      -0.01059558      -0.17797797      -0.00256887 </v>
   <v>       0.01728794       0.18061353       0.00838082 </v>
   <v>      -0.01060962      -0.17839055      -0.00242440 </v>
   <v>      -0.01799534      -0.17676517      -0.00269460 </v>
   <v>       0.02184636       0.17277497       0.00837063 </v>
   <v>       0.00883476       0.17895405       0.00878300 </v>
   <v>      -0.01610729      -0.17618517      -0.00252307 </v>
   <v>       0.00388293       0.18198019       0.01088694 </v>
   <v>      -0.01802655      -0.17590528      -0.00289923 </v>
   <v>       0.01127662       0.16559029       0.00047969 </v>
   <v>       0.00613983       0.17801732       0.00849263 </v>
   <v>      -0.01814780      -0.17654563      -0.00261782 </v>
   <v>      -0.01808281      -0.17624906      -0.00281059 </v>
   <v>      -0.01030908      -0.09050229      -0.17048201 </v>
   <v>       0.00716589       0.08824468      -0.18954240 </v>
   <v>      -0.00906614      -0.08660339       0.19162558 </v>
   <v>       0.00713498       0.08834703       0.19167570 </v>
   <v>       0.00830053       0.08848790       0.19158021 </v>
   <v>      -0.00780837      -0.08548377       0.19203209 </v>
   <v>       0.01579523      -0.05688193      -0.28965320 </v>
   <v>       0.00723884       0.08847384      -0.19004773 </v>
   <v>      -0.00811346      -0.08868512       0.18916125 </v>
   <v>       0.00736442       0.08877710       0.19199324 </v>
   <v>       0.00718462       0.08871613       0.19210737 </v>
   <v>       0.00817904       0.08844914      -0.18933942 </v>
   <v>      -0.00891745      -0.08800564      -0.18931658 </v>
   <v>      -0.00937056      -0.08981397      -0.18396805 </v>
   <v>       0.00712500       0.08832232      -0.18988338 </v>
   <v>      -0.00756448      -0.08880947       0.18955649 </v>
   <v>       0.00716647       0.08877699       0.19217457 </v>
   <v>      -0.01034532      -0.09001635      -0.18755156 </v>
   <v>       0.00727743       0.08829239      -0.18982096 </v>
   <v>      -0.00800413      -0.08895959       0.18695582 </v>
   <v>      -0.00791262      -0.08839344       0.19072030 </v>
   <v>      -0.00650469      -0.08774403      -0.18177488 </v>
   <v>       0.00834619       0.08901673       0.19210385 </v>
   <v>       0.00830925       0.08861810      -0.18967080 </v>
   <v>      -0.00633806      -0.09145816      -0.18920307 </v>
   <v>       0.00819008       0.08871110      -0.18945041 </v>
   <v>      -0.00726293      -0.08864260       0.19070422 </v>
   <v>       0.00828097       0.08887139       0.19172574 </v>
   <v>      -0.00741704      -0.08937680      -0.18288282 </v>
   <v>      -0.00849450      -0.08841203       0.18955987 </v>
   <v>      -0.00303928      -0.09086225      -0.17342395 </v>
   <v>       0.00751743       0.08847288      -0.18961007 </v>
   <v>      -0.00729185      -0.08732754       0.19150755 </v>
   <v>       0.00755985       0.08848379       0.19158555 </v>
   <v>      -0.00631559      -0.08385805      -0.17828298 </v>
   <v>       0.00740302       0.08880455      -0.18990333 </v>
   <v>      -0.00714791      -0.08847360       0.19135464 </v>
   <v>       0.00752853       0.08898365       0.19216149 </v>
   <v>       0.00830760       0.08900876       0.19207036 </v>
   <v>      -0.00797380      -0.08819880       0.19114025 </v>
   <v>      -0.00828041      -0.08806718      -0.18971910 </v>
   <v>       0.00749703       0.08860716      -0.18987700 </v>
   <v>      -0.00795921      -0.08839224       0.18953898 </v>
   <v>       0.00752809       0.08901055       0.19233639 </v>
   <v>       0.00823094       0.08881441      -0.18967188 </v>
   <v>      -0.00788193      -0.08791405      -0.18009455 </v>
   <v>       0.00737170       0.08860239      -0.18968565 </v>
   <v>       0.00731484       0.08851173       0.19209154 </v>
  </varray>
  <varray name="stress" >
   <v>       2.09608993      -0.04090075      -0.01928348 </v>
   <v>      -0.04090072      -6.13643084       0.16556307 </v>
   <v>      -0.01928352       0.16556306      -7.93361763 </v>
  </varray>
  <energy>
   <i name="e_fr_energy">   -673.13979071 </i>
   <i name="e_wo_entrp">   -673.08021305 </i>
   <i name="e_0_energy">     -0.11915534 </i>
  </energy>
  <time name="totalsc">  389.96  393.17</time>
 </calculation>
 <calculation>
  <scstep>
   <time name="dav">    5.93    5.96</time>
   <time name="total">    6.90    6.93</time>
   <energy>
    <i name="alphaZ">    562.39184220 </i>
    <i name="ewald">  39759.93581134 </i>
    <i name="hartreedc"> -59152.27998340 </i>
    <i name="XCdc">   -699.23059996 </i>
    <i name="pawpsdc">  42723.76361957 </i>
    <i name="pawaedc"> -40891.48905393 </i>
    <i name="eentropy">     -0.12712064 </i>
    <i name="bandstr">  -3341.67070445 </i>
    <i name="atom">  20380.58938199 </i>
    <i name="e_fr_energy">   -658.11680728 </i>
    <i name="e_wo_entrp">   -657.98968664 </i>
    <i name="e_0_energy">   -658.05324696 </i>
   </energy>
  </scstep>
  <scstep>
   <time name="dav">    6.34    6.35</time>
   <time name="total">    7.31    7.36</time>
   <energy>
    <i name="e_fr_energy">   -658.16376132 </i>
    <i name="e_wo_entrp">   -657.99170148 </i>
    <i name="e_0_energy">   -658.07773140 </i>
   </energy>
  </scstep>
  <scstep>
   <time name="dav">    7.43    7.50</time>
   <time name="total">    8.35    8.50</time>
   <energy>
    <i name="e_fr_energy">   -658.30867359 </i>
    <i name="e_wo_entrp">   -658.21490361 </i>
    <i name="e_0_energy">   -658.26178860 </i>
   </energy>
  </scstep>
  <scstep>
   <time name="dav">    7.44    7.60</time>
   <time name="total">    8.33    8.55</time>
   <energy>
    <i name="e_fr_energy">   -658.19076367 </i>
    <i name="e_wo_entrp">   -658.07848182 </i>
    <i name="e_0_energy">   -658.13462274 </i>
   </energy>
  </scstep>
  <scstep>
   <time name="dav">    7.26    7.29</time>
   <time name="total">    8.21    8.33</time>
   <energy>
    <i name="e_fr_energy">   -658.17073846 </i>
    <i name="e_wo_entrp">   -658.07826578 </i>
    <i name="e_0_energy">   -658.12450212 </i>
   </energy>
  </scstep>
  <scstep>
   <time name="dav">    7.27    7.30</time>
   <time name="total">    8.25    8.28</time>
   <energy>
    <i name="e_fr_energy">   -658.28811714 </i>
    <i name="e_wo_entrp">   -658.06566912 </i>
    <i name="e_0_energy">   -658.17689313 </i>
   </energy>
  </scstep>
  <scstep>
   <time name="dav">    7.13    7.16</time>
   <time name="total">    8.05    8.23</time>
   <energy>
    <i name="e_fr_energy">   -658.22828557 </i>
    <i name="e_wo_entrp">   -658.12717607 </i>
    <i name="e_0_energy">   -658.17773082 </i>
   </energy>
  </scstep>
  <scstep>
   <time name="dav">    7.49    7.51</time>
   <time name="total">    8.41    8.50</time>
   <energy>
    <i name="e_fr_energy">   -658.18882791 </i>
    <i name="e_wo_entrp">   -658.07556762 </i>
    <i name="e_0_energy">   -658.13219776 </i>
   </energy>
  </scstep>
  <scstep>
   <time name="dav">    7.28    7.30</time>
   <time name="total">    8.21    8.31</time>
   <energy>
    <i name="e_fr_energy">   -658.18270202 </i>
    <i name="e_wo_entrp">   -658.07898342 </i>
    <i name="e_0_energy">   -658.13084272 </i>
   </energy>
  </scstep>
  <scstep>
   <time name="dav">    6.09    6.12</time>
   <time name="total">    7.02    7.12</time>
   <energy>
    <i name="e_fr_energy">   -658.17666901 </i>
    <i name="e_wo_entrp">   -658.06481405 </i>
    <i name="e_0_energy">   -658.12074153 </i>
   </energy>
  </scstep>
  <scstep>
   <time name="dav">    5.74    6.08</time>
   <time name="total">    6.67    7.12</time>
   <energy>
    <i name="e_fr_energy">   -658.17286147 </i>
    <i name="e_wo_entrp">   -658.06581218 </i>
    <i name="e_0_energy">   -658.11933682 </i>
   </energy>
  </scstep>
  <scstep>
   <time name="dav">    6.03    6.05</time>
   <time name="total">    6.97    7.40</time>
   <energy>
    <i name="e_fr_energy">   -658.16869366 </i>
    <i name="e_wo_entrp">   -658.05832271 </i>
    <i name="e_0_energy">   -658.11350818 </i>
   </energy>
  </scstep>
  <scstep>
   <time name="dav">    5.12    5.14</time>
   <time name="total">    6.07    6.19</time>
   <energy>
    <i name="e_fr_energy">   -658.16596206 </i>
    <i name="e_wo_entrp">   -658.05743538 </i>
    <i name="e_0_energy">   -658.11169872 </i>
   </energy>
  </scstep>
  <scstep>
   <time name="dav">    4.43    4.45</time>
   <time name="total">    5.37    5.64</time>
   <energy>
    <i name="e_fr_energy">   -658.16572809 </i>
    <i name="e_wo_entrp">   -658.05586329 </i>
    <i name="e_0_energy">   -658.11079569 </i>
   </energy>
  </scstep>
  <scstep>
   <time name="dav">    4.11    4.12</time>
   <time name="total">    5.05    5.14</time>
   <energy>
    <i name="e_fr_energy">   -658.16558005 </i>
    <i name="e_wo_entrp">   -658.05625173 </i>
    <i name="e_0_energy">   -658.11091589 </i>
   </energy>
  </scstep>
  <scstep>
   <time name="dav">    4.11    4.13</time>
   <time name="total">    5.05    5.13</time>
   <energy>
    <i name="e_fr_energy">   -658.16590949 </i>
    <i name="e_wo_entrp">   -658.05630542 </i>
    <i name="e_0_energy">   -658.11110746 </i>
   </energy>
  </scstep>
  <scstep>
   <time name="dav">    3.98    4.00</time>
   <time name="total">    4.35    4.49</time>
   <energy>
    <i name="alphaZ">    562.39184220 </i>
    <i name="ewald">  39759.93581134 </i>
    <i name="hartreedc"> -59155.63036594 </i>
    <i name="XCdc">   -699.25120985 </i>
    <i name="pawpsdc">  43088.47120006 </i>
    <i name="pawaedc"> -41256.81581270 </i>
    <i name="eentropy">     -0.10948300 </i>
    <i name="bandstr">  -3337.74732704 </i>
    <i name="atom">  20380.58938199 </i>
    <i name="e_fr_energy">   -658.16596295 </i>
    <i name="e_wo_entrp">   -658.05647995 </i>
    <i name="e_0_energy">   -658.11122145 </i>
   </energy>
  </scstep>
  <structure>
   <crystal>
    <varray name="basis" >
     <v>       9.57094646       0.00000000       0.00000000 </v>
     <v>      -6.38062803      11.05157872       0.00000000 </v>
     <v>       0.00000000       0.00000000      34.88026251 </v>
    </varray>
    <i name="volume">   3689.42726549 </i>
    <varray name="rec_basis" >
     <v>       0.10448287       0.06032318       0.00000000 </v>
     <v>       0.00000000       0.09048481       0.00000000 </v>
     <v>       0.00000000       0.00000000       0.02866951 </v>
    </varray>
   </crystal>
   <varray name="positions" >
    <v>       0.58750843       0.05411380       0.42764552 </v>
    <v>       0.46172837       0.07936151       0.43565368 </v>
    <v>       0.69338320       0.09043271       0.45983542 </v>
    <v>       0.63231927       0.13855178       0.48842972 </v>
    <v>       0.48784678       0.13166388       0.47314665 </v>
    <v>       0.72166808       0.36833136       0.39472954 </v>
    <v>       0.81386224       0.43593901       0.45640332 </v>
    <v>       0.68472632       0.40818635       0.42997071 </v>
    <v>       0.92888567       0.41403141       0.43756771 </v>
    <v>       0.87299293       0.37239333       0.39978700 </v>
    <v>       0.69048845       0.24861285       0.43973190 </v>
    <v>       0.41087855       0.15929826       0.48771420 </v>
    <v>       0.58032336       0.41880058       0.43530825 </v>
    <v>       0.03687100       0.42164055       0.45066065 </v>
    <v>       0.82153446       0.46661896       0.48585361 </v>
    <v>       0.65016257       0.34271834       0.36853127 </v>
    <v>       0.36529736       0.06529992       0.41604775 </v>
    <v>       0.60444846       0.01880148       0.40070107 </v>
    <v>       0.80188706       0.08346749       0.46215584 </v>
    <v>       0.68293797       0.17046733       0.51683127 </v>
    <v>       0.93300831       0.34508354       0.37879491 </v>
    <v>       0.55617017       0.08411898       0.25002648 </v>
    <v>       0.55621851       0.33411905       0.25001600 </v>
    <v>       0.44385225       0.41590054       0.74998684 </v>
    <v>       0.55618684       0.58411495       0.25001917 </v>
    <v>       0.44385151       0.66589893       0.74998687 </v>
    <v>       0.55615533       0.83410259       0.25002244 </v>
    <v>       0.44384954       0.91589701       0.74998690 </v>
    <v>       0.88944489       0.33411675       0.25001676 </v>
    <v>       0.77720600       0.16588931       0.74998773 </v>
    <v>       0.77720800       0.41589209       0.74998738 </v>
    <v>       0.88947055       0.58406501       0.25001970 </v>
    <v>       0.77720630       0.66588983       0.74998720 </v>
    <v>       0.88950175       0.83412167       0.25002087 </v>
    <v>       0.77720503       0.91588803       0.74998740 </v>
    <v>       0.11050587       0.91589512       0.74998703 </v>
    <v>       0.88950191       0.08408745       0.25002086 </v>
    <v>       0.22278764       0.83411442       0.25002143 </v>
    <v>       0.44385040       0.16589765       0.74998727 </v>
    <v>       0.22277149       0.58412763       0.25002434 </v>
    <v>       0.11050821       0.41589888       0.74998675 </v>
    <v>       0.22276106       0.33405609       0.25000995 </v>
    <v>       0.22277133       0.08411033       0.25002103 </v>
    <v>       0.11050574       0.16589608       0.74998714 </v>
    <v>       0.11050693       0.66589738       0.74998687 </v>
    <v>       0.77746231       0.16627168       0.29463809 </v>
    <v>       0.88918192       0.08371846       0.79459317 </v>
    <v>       0.77747993       0.16628870       0.20540971 </v>
    <v>       0.88918206       0.08371890       0.70539124 </v>
    <v>       0.22252168       0.08371952       0.70539111 </v>
    <v>       0.11082286       0.16629359       0.20541027 </v>
    <v>       0.77769173       0.41641844       0.29447326 </v>
    <v>       0.88918295       0.33371946       0.79459247 </v>
    <v>       0.11081200       0.66627961       0.20540630 </v>
    <v>       0.55585113       0.83372078       0.70539168 </v>
    <v>       0.88918338       0.33372051       0.70539183 </v>
    <v>       0.22252095       0.08371935       0.79459345 </v>
    <v>       0.11080993       0.16628258       0.29461204 </v>
    <v>       0.77746905       0.66627468       0.29461944 </v>
    <v>       0.88918194       0.58371879       0.79459270 </v>
    <v>       0.77748107       0.66627907       0.20540685 </v>
    <v>       0.88918347       0.58372078       0.70539193 </v>
    <v>       0.77746355       0.91627380       0.29461448 </v>
    <v>       0.88918262       0.83371866       0.79459279 </v>
    <v>       0.77747842       0.41627841       0.20540325 </v>
    <v>       0.44414720       0.91628089       0.20540846 </v>
    <v>       0.44415618       0.91628372       0.29462247 </v>
    <v>       0.22252345       0.58372183       0.70539183 </v>
    <v>       0.22252210       0.58372009       0.79459300 </v>
    <v>       0.11081288       0.91626751       0.29461220 </v>
    <v>       0.22252177       0.83372049       0.79459330 </v>
    <v>       0.11081641       0.91627980       0.20540843 </v>
    <v>       0.22252270       0.83372119       0.70539131 </v>
    <v>       0.11081350       0.66627659       0.29462094 </v>
    <v>       0.77747754       0.91628080       0.20540685 </v>
    <v>       0.44416458       0.16627011       0.29463402 </v>
    <v>       0.55585102       0.08371945       0.79459308 </v>
    <v>       0.44415343       0.16628554       0.20540954 </v>
    <v>       0.55585127       0.08371950       0.70539111 </v>
    <v>       0.44416845       0.41630068       0.29462730 </v>
    <v>       0.55585141       0.33372090       0.79459267 </v>
    <v>       0.44415082       0.41628054       0.20540933 </v>
    <v>       0.55585256       0.33372168       0.70539191 </v>
    <v>       0.22252323       0.33372179       0.70539178 </v>
    <v>       0.11081412       0.41628173       0.20540904 </v>
    <v>       0.44414629       0.66628231       0.29461148 </v>
    <v>       0.55585131       0.58372004       0.79459271 </v>
    <v>       0.44414697       0.66628089       0.20540682 </v>
    <v>       0.55585264       0.58372180       0.70539215 </v>
    <v>       0.22252228       0.33372094       0.79459299 </v>
    <v>       0.11081541       0.41628298       0.29462479 </v>
    <v>       0.55585066       0.83372002       0.79459298 </v>
    <v>       0.88918345       0.83371962       0.70539181 </v>
   </varray>
  </structure>
  <varray name="forces" >
   <v>       0.02841949       0.01103862      -0.05258905 </v>
   <v>      -0.06478415       0.03577962      -0.08063297 </v>
   <v>       0.06731428       0.04544637      -0.00683925 </v>
   <v>       0.01061007       0.05159401       0.01809936 </v>
   <v>      -0.03577718       0.05665222       0.01519088 </v>
   <v>      -0.04508023      -0.09043814      -0.13787676 </v>
   <v>       0.00189082      -0.01656825       0.06565584 </v>
   <v>      -0.13637725      -0.00005758       0.10181559 </v>
   <v>       0.06424646      -0.03075079       0.05335611 </v>
   <v>       0.05286481      -0.05196866      -0.05678271 </v>
   <v>       0.02043660      -0.04312917       0.01231650 </v>
   <v>       0.03973393      -0.00998649      -0.02921645 </v>
   <v>       0.07788258      -0.01497024      -0.01530410 </v>
   <v>      -0.03243231       0.00125466      -0.02979627 </v>
   <v>       0.01280164      -0.01752017      -0.03796142 </v>
   <v>       0.02172510       0.00299137       0.09156177 </v>
   <v>       0.04513642       0.00502665       0.01766588 </v>
   <v>      -0.01205218       0.01439448       0.01495681 </v>
   <v>      -0.04727388       0.00451350       0.00130577 </v>
   <v>      -0.01589309      -0.00836130      -0.04041050 </v>
   <v>      -0.05863223       0.01730677       0.00997463 </v>
   <v>      -0.01278735      -0.08102726       0.00674593 </v>
   <v>      -0.02370948      -0.08522661      -0.00862326 </v>
   <v>       0.00996665       0.08054454       0.00207120 </v>
   <v>      -0.01534899      -0.08171501       0.00064848 </v>
   <v>       0.00994967       0.08100861       0.00222588 </v>
   <v>      -0.01270428      -0.07969240      -0.00010752 </v>
   <v>       0.01010118       0.08103598       0.00206704 </v>
   <v>       0.00913021      -0.09183237      -0.01577743 </v>
   <v>       0.00691350       0.08161232       0.00156162 </v>
   <v>       0.00693285       0.08152174       0.00171454 </v>
   <v>      -0.01299830      -0.05288840      -0.02471955 </v>
   <v>       0.00696759       0.08192943       0.00196868 </v>
   <v>      -0.01229722      -0.08604453       0.00047644 </v>
   <v>       0.00686458       0.08206138       0.00180309 </v>
   <v>       0.01299195       0.08194334       0.00256926 </v>
   <v>      -0.01975799      -0.07698199       0.00405000 </v>
   <v>      -0.00762163      -0.08357295       0.00150514 </v>
   <v>       0.00995797       0.08078009       0.00183789 </v>
   <v>      -0.00426734      -0.08234272       0.00028191 </v>
   <v>       0.01303634       0.08150238       0.00253575 </v>
   <v>      -0.00662875      -0.07616387       0.00732144 </v>
   <v>      -0.00340070      -0.07882256       0.00487712 </v>
   <v>       0.01310208       0.08152638       0.00240780 </v>
   <v>       0.01309025       0.08172316       0.00268254 </v>
   <v>       0.00591289       0.04060412       0.00008900 </v>
   <v>      -0.00456895      -0.04135414      -0.01478499 </v>
   <v>       0.00490396       0.03884795       0.01972530 </v>
   <v>      -0.00472908      -0.04124982       0.01265467 </v>
   <v>      -0.00606682      -0.03971716       0.01393493 </v>
   <v>       0.00410404       0.03855321       0.01185475 </v>
   <v>       0.01534012       0.05301862      -0.03214579 </v>
   <v>      -0.00453584      -0.04108589      -0.01466765 </v>
   <v>       0.00422191       0.04165050       0.01528679 </v>
   <v>      -0.00499388      -0.03986353       0.01352146 </v>
   <v>      -0.00474637      -0.04110983       0.01230273 </v>
   <v>      -0.00606845      -0.03983777      -0.01652637 </v>
   <v>       0.00375570       0.03972986      -0.00494638 </v>
   <v>       0.00682874       0.04010719      -0.00429603 </v>
   <v>      -0.00462500      -0.04094275      -0.01446600 </v>
   <v>       0.00646868       0.04098738       0.01638814 </v>
   <v>      -0.00467237      -0.04087947       0.01210206 </v>
   <v>       0.00514768       0.03885577      -0.00463842 </v>
   <v>      -0.00468940      -0.04130085      -0.01443567 </v>
   <v>       0.00587461       0.03985339       0.00145397 </v>
   <v>       0.00509273       0.04187845       0.01995558 </v>
   <v>       0.00556828       0.04059155      -0.00394064 </v>
   <v>      -0.00612227      -0.03938276       0.01346921 </v>
   <v>      -0.00597323      -0.03960756      -0.01624272 </v>
   <v>       0.00440760       0.04062496      -0.00450443 </v>
   <v>      -0.00603023      -0.03993408      -0.01612577 </v>
   <v>       0.00437557       0.04221161       0.01525319 </v>
   <v>      -0.00615147      -0.03978166       0.01344145 </v>
   <v>       0.00251346       0.04202999      -0.00149549 </v>
   <v>       0.00517689       0.03974080       0.01566763 </v>
   <v>       0.00758449       0.04188837      -0.00142350 </v>
   <v>      -0.00520687      -0.03990931      -0.01630009 </v>
   <v>       0.00636097       0.03959691       0.02047158 </v>
   <v>      -0.00511638      -0.03978452       0.01383677 </v>
   <v>       0.00710306       0.04036152      -0.00711369 </v>
   <v>      -0.00516660      -0.03977529      -0.01622208 </v>
   <v>       0.00696116       0.03957206       0.01881407 </v>
   <v>      -0.00497000      -0.03988196       0.01375942 </v>
   <v>      -0.00613672      -0.03972839       0.01373243 </v>
   <v>       0.00304819       0.04222557       0.01804733 </v>
   <v>       0.00532474       0.04018524      -0.00790843 </v>
   <v>      -0.00515695      -0.03963270      -0.01594354 </v>
   <v>       0.00412745       0.03973819       0.01874189 </v>
   <v>      -0.00511544      -0.03946613       0.01340218 </v>
   <v>      -0.00602439      -0.03973496      -0.01642774 </v>
   <v>       0.00421027       0.03909549      -0.00610201 </v>
   <v>      -0.00505939      -0.03990535      -0.01598366 </v>
   <v>      -0.00472956      -0.04120898       0.01212089 </v>
  </varray>
  <varray name="stress" >
   <v>       5.78413935      -0.00743440      -0.01263377 </v>
   <v>      -0.00743453      -4.78292940       0.38606189 </v>
   <v>      -0.01263382       0.38606180      -2.42227524 </v>
  </varray>
  <energy>
   <i name="e_fr_energy">   -673.21707223 </i>
   <i name="e_wo_entrp">   -673.16233073 </i>
   <i name="e_0_energy">     -0.10948300 </i>
  </energy>
  <time name="totalsc">  128.49  131.29</time>
 </calculation>
 <calculation>
  <scstep>
   <time name="dav">    5.87    5.89</time>
   <time name="total">    6.83    6.95</time>
   <energy>
    <i name="alphaZ">    562.39184220 </i>
    <i name="ewald">  39742.39395427 </i>
    <i name="hartreedc"> -59138.55052220 </i>
    <i name="XCdc">   -699.33643105 </i>
    <i name="pawpsdc">  43086.29110798 </i>
    <i name="pawaedc"> -41254.63399887 </i>
    <i name="eentropy">     -0.10997196 </i>
    <i name="bandstr">  -3337.20166825 </i>
    <i name="atom">  20380.58938199 </i>
    <i name="e_fr_energy">   -658.16630590 </i>
    <i name="e_wo_entrp">   -658.05633394 </i>
    <i name="e_0_energy">   -658.11131992 </i>
   </energy>
  </scstep>
  <scstep>
   <time name="dav">    7.38    7.76</time>
   <time name="total">    8.38    8.95</time>
   <energy>
    <i name="e_fr_energy">   -658.65195187 </i>
    <i name="e_wo_entrp">   -658.39770044 </i>
    <i name="e_0_energy">   -658.52482616 </i>
   </energy>
  </scstep>
  <scstep>
   <time name="dav">    7.41    7.43</time>
   <time name="total">    8.33    8.36</time>
   <energy>
    <i name="e_fr_energy">   -658.24420113 </i>
    <i name="e_wo_entrp">   -658.16258178 </i>
    <i name="e_0_energy">   -658.20339145 </i>
   </energy>
  </scstep>
  <scstep>
   <time name="dav">    7.42    7.45</time>
   <time name="total">    8.36    8.41</time>
   <energy>
    <i name="e_fr_energy">   -658.18253831 </i>
    <i name="e_wo_entrp">   -658.06979967 </i>
    <i name="e_0_energy">   -658.12616899 </i>
   </energy>
  </scstep>
  <scstep>
   <time name="dav">    6.59    6.61</time>
   <time name="total">    7.53    7.86</time>
   <energy>
    <i name="e_fr_energy">   -658.17160547 </i>
    <i name="e_wo_entrp">   -658.07196192 </i>
    <i name="e_0_energy">   -658.12178369 </i>
   </energy>
  </scstep>
  <scstep>
   <time name="dav">    5.78    5.80</time>
   <time name="total">    6.73    6.87</time>
   <energy>
    <i name="e_fr_energy">   -658.16509473 </i>
    <i name="e_wo_entrp">   -658.05000919 </i>
    <i name="e_0_energy">   -658.10755196 </i>
   </energy>
  </scstep>
  <scstep>
   <time name="dav">    6.04    6.06</time>
   <time name="total">    6.99    7.16</time>
   <energy>
    <i name="e_fr_energy">   -658.15923670 </i>
    <i name="e_wo_entrp">   -658.04905288 </i>
    <i name="e_0_energy">   -658.10414479 </i>
   </energy>
  </scstep>
  <scstep>
   <time name="dav">    5.80    5.82</time>
   <time name="total">    6.76    7.35</time>
   <energy>
    <i name="e_fr_energy">   -658.15616794 </i>
    <i name="e_wo_entrp">   -658.03470397 </i>
    <i name="e_0_energy">   -658.09543596 </i>
   </energy>
  </scstep>
  <scstep>
   <time name="dav">    5.24    5.26</time>
   <time name="total">    6.20    6.23</time>
   <energy>
    <i name="e_fr_energy">   -658.15484188 </i>
    <i name="e_wo_entrp">   -658.03594536 </i>
    <i name="e_0_energy">   -658.09539362 </i>
   </energy>
  </scstep>
  <scstep>
   <time name="dav">    4.47    4.51</time>
   <time name="total">    5.44    5.49</time>
   <energy>
    <i name="e_fr_energy">   -658.15390033 </i>
    <i name="e_wo_entrp">   -658.02867530 </i>
    <i name="e_0_energy">   -658.09128781 </i>
   </energy>
  </scstep>
  <scstep>
   <time name="dav">    5.64    5.66</time>
   <time name="total">    6.60    6.62</time>
   <energy>
    <i name="e_fr_energy">   -658.15336639 </i>
    <i name="e_wo_entrp">   -658.02132785 </i>
    <i name="e_0_energy">   -658.08734712 </i>
   </energy>
  </scstep>
  <scstep>
   <time name="dav">    4.33    4.35</time>
   <time name="total">    5.30    5.37</time>
   <energy>
    <i name="e_fr_energy">   -658.15316843 </i>
    <i name="e_wo_entrp">   -658.02110135 </i>
    <i name="e_0_energy">   -658.08713489 </i>
   </energy>
  </scstep>
  <scstep>
   <time name="dav">    4.05    4.06</time>
   <time name="total">    5.01    5.59</time>
   <energy>
    <i name="e_fr_energy">   -658.15329634 </i>
    <i name="e_wo_entrp">   -658.01848938 </i>
    <i name="e_0_energy">   -658.08589286 </i>
   </energy>
  </scstep>
  <scstep>
   <time name="dav">    4.50    4.51</time>
   <time name="total">    5.46    5.51</time>
   <energy>
    <i name="e_fr_energy">   -658.15311585 </i>
    <i name="e_wo_entrp">   -658.02033704 </i>
    <i name="e_0_energy">   -658.08672644 </i>
   </energy>
  </scstep>
  <scstep>
   <time name="dav">    4.16    4.18</time>
   <time name="total">    4.54    4.56</time>
   <energy>
    <i name="alphaZ">    562.39184220 </i>
    <i name="ewald">  39742.39395427 </i>
    <i name="hartreedc"> -59135.10073132 </i>
    <i name="XCdc">   -699.34336624 </i>
    <i name="pawpsdc">  43056.22106502 </i>
    <i name="pawaedc"> -41224.50368568 </i>
    <i name="eentropy">     -0.13110937 </i>
    <i name="bandstr">  -3340.67045693 </i>
    <i name="atom">  20380.58938199 </i>
    <i name="e_fr_energy">   -658.15310607 </i>
    <i name="e_wo_entrp">   -658.02199669 </i>
    <i name="e_0_energy">   -658.08755138 </i>
   </energy>
  </scstep>
  <structure>
   <crystal>
    <varray name="basis" >
     <v>       9.57094646       0.00000000       0.00000000 </v>
     <v>      -6.38062803      11.05157872       0.00000000 </v>
     <v>       0.00000000       0.00000000      34.88026251 </v>
    </varray>
    <i name="volume">   3689.42726549 </i>
    <varray name="rec_basis" >
     <v>       0.10448287       0.06032318       0.00000000 </v>
     <v>       0.00000000       0.09048481       0.00000000 </v>
     <v>       0.00000000       0.00000000       0.02866951 </v>
    </varray>
   </crystal>
   <varray name="positions" >
    <v>       0.58751001       0.05411312       0.42764460 </v>
    <v>       0.46171353       0.07935630       0.43565369 </v>
    <v>       0.69339029       0.09042647       0.45983697 </v>
    <v>       0.63232045       0.13854870       0.48843299 </v>
    <v>       0.48783398       0.13166027       0.47314973 </v>
    <v>       0.72167423       0.36834127       0.39472031 </v>
    <v>       0.81386345       0.43594864       0.45640482 </v>
    <v>       0.68471434       0.40819658       0.42997115 </v>
    <v>       0.92889916       0.41404060       0.43757087 </v>
    <v>       0.87300446       0.37239321       0.39978609 </v>
    <v>       0.69048709       0.24860331       0.43973476 </v>
    <v>       0.41087629       0.15929786       0.48771484 </v>
    <v>       0.58032354       0.41880246       0.43530832 </v>
    <v>       0.03687618       0.42163925       0.45066221 </v>
    <v>       0.82153253       0.46661869       0.48585312 </v>
    <v>       0.65016840       0.34272447       0.36852699 </v>
    <v>       0.36529473       0.06530001       0.41604958 </v>
    <v>       0.60444850       0.01879984       0.40070221 </v>
    <v>       0.80189042       0.08346678       0.46215550 </v>
    <v>       0.68294049       0.17046627       0.51683153 </v>
    <v>       0.93301294       0.34508261       0.37879798 </v>
    <v>       0.55612152       0.08405678       0.25002512 </v>
    <v>       0.55616604       0.33405683       0.25001547 </v>
    <v>       0.44389913       0.41596120       0.74998715 </v>
    <v>       0.55613686       0.58405306       0.25001839 </v>
    <v>       0.44389844       0.66595972       0.74998718 </v>
    <v>       0.55610785       0.83404168       0.25002139 </v>
    <v>       0.44389663       0.91595795       0.74998720 </v>
    <v>       0.88940088       0.33405472       0.25001617 </v>
[...]
       <r>   -17.3441     0.0000     4.0000 </r>
       <r>   -17.2722     0.0000     4.0000 </r>
       <r>   -17.2002     0.0000     4.0000 </r>
       <r>   -17.1283     0.0000     4.0000 </r>
       <r>   -17.0563     0.0000     4.0000 </r>
       <r>   -16.9843     0.0000     4.0000 </r>
       <r>   -16.9124     0.0000     4.0000 </r>
       <r>   -16.8404     0.0000     4.0000 </r>
       <r>   -16.7685     0.0000     4.0000 </r>
       <r>   -16.6965     0.0000     4.0000 </r>
       <r>   -16.6245     0.0000     4.0000 </r>
       <r>   -16.5526     0.0000     4.0000 </r>
       <r>   -16.4806     0.0000     4.0000 </r>
       <r>   -16.4087     0.0000     4.0000 </r>
       <r>   -16.3367     0.0000     4.0000 </r>
       <r>   -16.2647     0.0000     4.0000 </r>
       <r>   -16.1928     0.0000     4.0000 </r>
       <r>   -16.1208     0.0002     4.0000 </r>
       <r>   -16.0489     0.0151     4.0011 </r>
       <r>   -15.9769     0.3823     4.0286 </r>
       <r>   -15.9049     3.7282     4.2969 </r>
       <r>   -15.8330    14.1939     5.3183 </r>
       <r>   -15.7610    21.3230     6.8527 </r>
       <r>   -15.6891    12.6863     7.7656 </r>
       <r>   -15.6171     2.9753     7.9797 </r>
       <r>   -15.5451     0.2720     7.9993 </r>
       <r>   -15.4732     0.0095     8.0000 </r>
       <r>   -15.4012     0.0001     8.0000 </r>
       <r>   -15.3292     0.0009     8.0001 </r>
       <r>   -15.2573     0.0503     8.0037 </r>
       <r>   -15.1853     1.1127     8.0837 </r>
       <r>   -15.1134     9.5029     8.7676 </r>
       <r>   -15.0414    31.7569    11.0528 </r>
       <r>   -14.9694    41.9830    14.0739 </r>
       <r>   -14.8975    23.0670    15.7339 </r>
       <r>   -14.8255    14.1732    16.7538 </r>
       <r>   -14.7536    32.8620    19.1186 </r>
       <r>   -14.6816    48.5363    22.6113 </r>
       <r>   -14.6096    54.0915    26.5037 </r>
       <r>   -14.5377    66.9137    31.3189 </r>
       <r>   -14.4657    48.4664    34.8066 </r>
       <r>   -14.3938    15.0983    35.8930 </r>
       <r>   -14.3218     6.2970    36.3462 </r>
       <r>   -14.2498    22.8482    37.9903 </r>
       <r>   -14.1779    53.0294    41.8064 </r>
       <r>   -14.1059    88.0225    48.1405 </r>
       <r>   -14.0340   134.8402    57.8437 </r>
       <r>   -13.9620   131.9141    67.3363 </r>
       <r>   -13.8900    85.2265    73.4693 </r>
       <r>   -13.8181    89.4673    79.9074 </r>
       <r>   -13.7461   128.4609    89.1516 </r>
       <r>   -13.6742   130.3234    98.5297 </r>
       <r>   -13.6022    86.7628   104.7732 </r>
       <r>   -13.5302    36.2609   107.3826 </r>
       <r>   -13.4583     7.8209   107.9454 </r>
       <r>   -13.3863     0.7315   107.9980 </r>
       <r>   -13.3143     0.0272   108.0000 </r>
       <r>   -13.2424     0.0004   108.0000 </r>
       <r>   -13.1704     0.0000   108.0000 </r>
       <r>   -13.0985     0.0000   108.0000 </r>
       <r>   -13.0265     0.0000   108.0000 </r>
       <r>   -12.9545     0.0000   108.0000 </r>
       <r>   -12.8826     0.0000   108.0000 </r>
       <r>   -12.8106     0.0000   108.0000 </r>
       <r>   -12.7387     0.0000   108.0000 </r>
       <r>   -12.6667     0.0000   108.0000 </r>
       <r>   -12.5947     0.0000   108.0000 </r>
       <r>   -12.5228     0.0000   108.0000 </r>
       <r>   -12.4508     0.0000   108.0000 </r>
       <r>   -12.3789     0.0000   108.0000 </r>
       <r>   -12.3069     0.0000   108.0000 </r>
       <r>   -12.2349     0.0000   108.0000 </r>
       <r>   -12.1630     0.0000   108.0000 </r>
       <r>   -12.0910     0.0000   108.0000 </r>
       <r>   -12.0191     0.0000   108.0000 </r>
       <r>   -11.9471     0.0000   108.0000 </r>
       <r>   -11.8751     0.0000   108.0000 </r>
       <r>   -11.8032     0.0000   108.0000 </r>
       <r>   -11.7312     0.0000   108.0000 </r>
       <r>   -11.6593     0.0000   108.0000 </r>
       <r>   -11.5873     0.0000   108.0000 </r>
       <r>   -11.5153     0.0000   108.0000 </r>
       <r>   -11.4434     0.0000   108.0000 </r>
       <r>   -11.3714     0.0000   108.0000 </r>
       <r>   -11.2994     0.0000   108.0000 </r>
       <r>   -11.2275     0.0000   108.0000 </r>
       <r>   -11.1555     0.0000   108.0000 </r>
       <r>   -11.0836     0.0000   108.0000 </r>
       <r>   -11.0116     0.0000   108.0000 </r>
       <r>   -10.9396     0.0000   108.0000 </r>
       <r>   -10.8677     0.0000   108.0000 </r>
       <r>   -10.7957     0.0000   108.0000 </r>
       <r>   -10.7238     0.0000   108.0000 </r>
       <r>   -10.6518     0.0000   108.0000 </r>
       <r>   -10.5798     0.0000   108.0000 </r>
       <r>   -10.5079     0.0000   108.0000 </r>
       <r>   -10.4359     0.0000   108.0000 </r>
       <r>   -10.3640     0.0000   108.0000 </r>
       <r>   -10.2920     0.0000   108.0000 </r>
       <r>   -10.2200     0.0000   108.0000 </r>
       <r>   -10.1481     0.0000   108.0000 </r>
       <r>   -10.0761     0.0000   108.0000 </r>
       <r>   -10.0042     0.0000   108.0000 </r>
       <r>    -9.9322     0.0001   108.0000 </r>
       <r>    -9.8602     0.0044   108.0003 </r>
       <r>    -9.7883     0.1380   108.0103 </r>
       <r>    -9.7163     1.7124   108.1335 </r>
       <r>    -9.6444     8.6918   108.7589 </r>
       <r>    -9.5724    19.4557   110.1590 </r>
       <r>    -9.5004    23.7922   111.8711 </r>
       <r>    -9.4285    26.0581   113.7462 </r>
       <r>    -9.3565    26.9878   115.6883 </r>
       <r>    -9.2846    19.8452   117.1164 </r>
       <r>    -9.2126     9.7882   117.8207 </r>
       <r>    -9.1406     4.3678   118.1351 </r>
       <r>    -9.0687     7.6265   118.6839 </r>
       <r>    -8.9967    10.7738   119.4591 </r>
       <r>    -8.9247     6.0809   119.8967 </r>
       <r>    -8.8528     1.3222   119.9919 </r>
       <r>    -8.7808     0.1094   119.9998 </r>
       <r>    -8.7089     0.0034   120.0000 </r>
       <r>    -8.6369     0.0000   120.0000 </r>
       <r>    -8.5649     0.0000   120.0000 </r>
       <r>    -8.4930     0.0000   120.0000 </r>
       <r>    -8.4210     0.0000   120.0000 </r>
       <r>    -8.3491     0.0000   120.0000 </r>
       <r>    -8.2771     0.0000   120.0000 </r>
       <r>    -8.2051     0.0000   120.0000 </r>
       <r>    -8.1332     0.0000   120.0000 </r>
       <r>    -8.0612     0.0000   120.0000 </r>
       <r>    -7.9893     0.0000   120.0000 </r>
       <r>    -7.9173     0.0000   120.0000 </r>
       <r>    -7.8453     0.0000   120.0000 </r>
       <r>    -7.7734     0.0003   120.0000 </r>
       <r>    -7.7014     0.0193   120.0014 </r>
       <r>    -7.6295     0.4589   120.0344 </r>
       <r>    -7.5575     4.2125   120.3376 </r>
       <r>    -7.4855    15.3756   121.4440 </r>
       <r>    -7.4136    24.7713   123.2266 </r>
       <r>    -7.3416    25.7035   125.0762 </r>
       <r>    -7.2697    23.9264   126.7980 </r>
       <r>    -7.1977    14.0017   127.8055 </r>
       <r>    -7.1257    11.8741   128.6600 </r>
       <r>    -7.0538    44.4424   131.8581 </r>
       <r>    -6.9818   102.8291   139.2578 </r>
       <r>    -6.9098   112.8759   147.3804 </r>
       <r>    -6.8379    70.8869   152.4814 </r>
       <r>    -6.7659    79.3918   158.1945 </r>
       <r>    -6.6940   128.3516   167.4308 </r>
       <r>    -6.6220   125.5990   176.4690 </r>
       <r>    -6.5500    85.7445   182.6392 </r>
       <r>    -6.4781    49.4018   186.1942 </r>
       <r>    -6.4061    22.2054   187.7921 </r>
       <r>    -6.3342    11.9626   188.6529 </r>
       <r>    -6.2622    11.3482   189.4696 </r>
       <r>    -6.1902     7.8166   190.0321 </r>
       <r>    -6.1183    10.8731   190.8145 </r>
       <r>    -6.0463    22.1774   192.4104 </r>
       <r>    -5.9744    30.7865   194.6258 </r>
       <r>    -5.9024    50.9633   198.2932 </r>
       <r>    -5.8304    72.7518   203.5284 </r>
       <r>    -5.7585    64.6121   208.1780 </r>
       <r>    -5.6865    68.0707   213.0764 </r>
       <r>    -5.6146   151.7013   223.9929 </r>
       <r>    -5.5426   236.2725   240.9952 </r>
       <r>    -5.4706   179.8893   253.9402 </r>
       <r>    -5.3987    79.7784   259.6811 </r>
       <r>    -5.3267    57.1951   263.7969 </r>
       <r>    -5.2548    70.8733   268.8970 </r>
       <r>    -5.1828    60.2413   273.2320 </r>
       <r>    -5.1108    30.5632   275.4313 </r>
       <r>    -5.0389    24.4171   277.1884 </r>
       <r>    -4.9669    65.5396   281.9047 </r>
       <r>    -4.8950   107.3925   289.6327 </r>
       <r>    -4.8230    88.4161   295.9952 </r>
       <r>    -4.7510    72.0085   301.1770 </r>
       <r>    -4.6791    82.2200   307.0936 </r>
       <r>    -4.6071    81.5214   312.9599 </r>
       <r>    -4.5351    62.6404   317.4675 </r>
       <r>    -4.4632    35.1826   319.9993 </r>
       <r>    -4.3912    34.0000   322.4460 </r>
       <r>    -4.3193    55.7180   326.4555 </r>
       <r>    -4.2473    64.9114   331.1265 </r>
       <r>    -4.1753    59.8037   335.4301 </r>
       <r>    -4.1034    54.2936   339.3371 </r>
       <r>    -4.0314    43.3137   342.4539 </r>
       <r>    -3.9595    18.1273   343.7584 </r>
       <r>    -3.8875     3.3296   343.9980 </r>
       <r>    -3.8155     3.0525   344.2176 </r>
       <r>    -3.7436    17.1972   345.4552 </r>
       <r>    -3.6716    45.3478   348.7184 </r>
       <r>    -3.5997    72.4156   353.9295 </r>
       <r>    -3.5277   111.8043   361.9750 </r>
       <r>    -3.4557   146.2679   372.5005 </r>
       <r>    -3.3838   133.7392   382.1245 </r>
       <r>    -3.3118   103.8049   389.5944 </r>
       <r>    -3.2399    83.8394   395.6275 </r>
       <r>    -3.1679    70.6231   400.7096 </r>
       <r>    -3.0959    83.9588   406.7513 </r>
       <r>    -3.0240   108.4412   414.5548 </r>
       <r>    -2.9520    92.6921   421.2250 </r>
       <r>    -2.8801    50.4800   424.8576 </r>
       <r>    -2.8081    37.5793   427.5618 </r>
       <r>    -2.7361    52.4017   431.3327 </r>
       <r>    -2.6642    75.1194   436.7383 </r>
       <r>    -2.5922    77.3867   442.3071 </r>
       <r>    -2.5202    59.7768   446.6087 </r>
       <r>    -2.4483    50.8593   450.2685 </r>
       <r>    -2.3763    70.1393   455.3158 </r>
       <r>    -2.3044    77.9326   460.9239 </r>
       <r>    -2.2324    67.9798   465.8158 </r>
       <r>    -2.1604    53.9638   469.6991 </r>
       <r>    -2.0885    26.5896   471.6125 </r>
       <r>    -2.0165    12.1139   472.4842 </r>
       <r>    -1.9446    27.2899   474.4480 </r>
       <r>    -1.8726    43.2072   477.5572 </r>
       <r>    -1.8006    30.4000   479.7448 </r>
       <r>    -1.7287    20.4130   481.2137 </r>
       <r>    -1.6567    22.1444   482.8073 </r>
       <r>    -1.5848    13.1581   483.7541 </r>
       <r>    -1.5128     3.1212   483.9787 </r>
       <r>    -1.4408     0.2855   483.9993 </r>
       <r>    -1.3689     0.0099   484.0000 </r>
       <r>    -1.2969     0.0001   484.0000 </r>
       <r>    -1.2250     0.0000   484.0000 </r>
       <r>    -1.1530     0.0000   484.0000 </r>
       <r>    -1.0810     0.0000   484.0000 </r>
       <r>    -1.0091     0.0000   484.0000 </r>
       <r>    -0.9371     0.0000   484.0000 </r>
       <r>    -0.8652     0.0000   484.0000 </r>
       <r>    -0.7932     0.0000   484.0000 </r>
       <r>    -0.7212     0.0000   484.0000 </r>
       <r>    -0.6493     0.0000   484.0000 </r>
       <r>    -0.5773     0.0001   484.0000 </r>
       <r>    -0.5054     0.0057   484.0004 </r>
       <r>    -0.4334     0.1603   484.0119 </r>
       <r>    -0.3614     1.7054   484.1347 </r>
       <r>    -0.2895     6.9193   484.6326 </r>
       <r>    -0.2175    10.8817   485.4156 </r>
       <r>    -0.1455     7.6466   485.9659 </r>
       <r>    -0.0736     8.5338   486.5800 </r>
       <r>    -0.0016    19.3576   487.9730 </r>
       <r>     0.0703    30.1939   490.1457 </r>
       <r>     0.1423    42.8826   493.2316 </r>
       <r>     0.2143    45.9751   496.5400 </r>
       <r>     0.2862    38.8972   499.3391 </r>
       <r>     0.3582    60.4509   503.6892 </r>
       <r>     0.4301   114.9356   511.9600 </r>
       <r>     0.5021   166.6585   523.9529 </r>
       <r>     0.5741   153.7697   535.0182 </r>
       <r>     0.6460   134.7187   544.7127 </r>
       <r>     0.7180   113.5720   552.8854 </r>
       <r>     0.7899    56.3780   556.9424 </r>
       <r>     0.8619    17.8620   558.2277 </r>
       <r>     0.9339    28.0148   560.2437 </r>
       <r>     1.0058    74.4366   565.6002 </r>
       <r>     1.0778   110.8662   573.5782 </r>
       <r>     1.1497   112.8471   581.6988 </r>
       <r>     1.2217   104.6514   589.2296 </r>
       <r>     1.2937    87.6598   595.5376 </r>
       <r>     1.3656    47.4946   598.9553 </r>
       <r>     1.4376    12.8808   599.8823 </r>
       <r>     1.5095     1.5560   599.9942 </r>
       <r>     1.5815     0.0785   599.9999 </r>
       <r>     1.6535     0.0016   600.0000 </r>
       <r>     1.7254     0.0000   600.0000 </r>
       <r>     1.7974     0.0000   600.0000 </r>
       <r>     1.8694     0.0000   600.0000 </r>
       <r>     1.9413     0.0000   600.0000 </r>
       <r>     2.0133     0.0000   600.0000 </r>
       <r>     2.0852     0.0000   600.0000 </r>
       <r>     2.1572     0.0000   600.0000 </r>
       <r>     2.2292     0.0000   600.0000 </r>
       <r>     2.3011     0.0000   600.0000 </r>
      </set>
     </set>
    </array>
   </total>
  </dos>
 </calculation>
 <structure name="finalpos" >
  <crystal>
   <varray name="basis" >
    <v>       9.57094646       0.00000000       0.00000000 </v>
    <v>      -6.38062803      11.05157872       0.00000000 </v>
    <v>       0.00000000       0.00000000      34.88026251 </v>
   </varray>
   <i name="volume">   3689.42726549 </i>
   <varray name="rec_basis" >
    <v>       0.10448287       0.06032318       0.00000000 </v>
    <v>       0.00000000       0.09048481       0.00000000 </v>
    <v>       0.00000000       0.00000000       0.02866951 </v>
   </varray>
  </crystal>
  <varray name="positions" >
   <v>       0.59597839       0.05229144       0.42326050 </v>
   <v>       0.47003058       0.08076343       0.42786018 </v>
   <v>       0.68580303       0.08123375       0.45791361 </v>
   <v>       0.61756678       0.12822326       0.48456787 </v>
   <v>       0.48224508       0.12772593       0.46614281 </v>
   <v>       0.69329907       0.36532610       0.39459376 </v>
   <v>       0.82297861       0.43310310       0.45333093 </v>
   <v>       0.67834887       0.40419601       0.43252962 </v>
   <v>       0.92575177       0.41320490       0.42858766 </v>
   <v>       0.84717104       0.37121952       0.39261430 </v>
   <v>       0.68954514       0.24511696       0.43586620 </v>
   <v>       0.40125189       0.15408976       0.47919143 </v>
   <v>       0.57798889       0.41321069       0.44309402 </v>
   <v>       0.04133766       0.42243921       0.43655776 </v>
   <v>       0.84854980       0.46321484       0.48297428 </v>
   <v>       0.60649102       0.33989528       0.37134383 </v>
   <v>       0.38019453       0.06775822       0.40642168 </v>
   <v>       0.62228434       0.01881515       0.39713000 </v>
   <v>       0.79301137       0.07395632       0.46270252 </v>
   <v>       0.65958443       0.15808568       0.51365034 </v>
   <v>       0.89441126       0.34596721       0.36811633 </v>
   <v>       0.55875768       0.08579033       0.25273929 </v>
   <v>       0.55874766       0.33576577       0.25253397 </v>
   <v>       0.44482829       0.41628244       0.74978159 </v>
   <v>       0.55876192       0.58577251       0.25261856 </v>
   <v>       0.44482917       0.66628287       0.74978222 </v>
   <v>       0.55874978       0.83578514       0.25271895 </v>
   <v>       0.44482420       0.91627798       0.74978177 </v>
   <v>       0.89211328       0.33577659       0.25254472 </v>
   <v>       0.77817324       0.16628615       0.74978979 </v>
   <v>       0.77817732       0.41629022       0.74978999 </v>
   <v>       0.89220218       0.58592548       0.25244340 </v>
   <v>       0.77817687       0.66628927       0.74979079 </v>
   <v>       0.89204492       0.83578428       0.25266805 </v>
   <v>       0.77817411       0.91628653       0.74979030 </v>
   <v>       0.11150051       0.91630237       0.74979313 </v>
   <v>       0.89204402       0.08574159       0.25271483 </v>
   <v>       0.22543272       0.83574225       0.25267595 </v>
   <v>       0.44482496       0.16627898       0.74978154 </v>
   <v>       0.22539119       0.58575428       0.25261423 </v>
   <v>       0.11150454       0.41630644       0.74979278 </v>
   <v>       0.22541193       0.33564367       0.25263155 </v>
   <v>       0.22541269       0.08572230       0.25270612 </v>
   <v>       0.11150019       0.16630272       0.74979278 </v>
   <v>       0.11150141       0.66630404       0.74979348 </v>
   <v>       0.78046650       0.16851432       0.29727687 </v>
   <v>       0.88986849       0.08372628       0.79435315 </v>
   <v>       0.78017760       0.16809906       0.20811849 </v>
   <v>       0.88988119       0.08373157       0.70521560 </v>
   <v>       0.22319679       0.08374050       0.70521615 </v>
   <v>       0.11358768       0.16816335       0.20813422 </v>
   <v>       0.78065319       0.41877291       0.29684766 </v>
   <v>       0.88987090       0.33372805       0.79435267 </v>
   <v>       0.11409113       0.66852624       0.20799185 </v>
   <v>       0.55656323       0.83374730       0.70521046 </v>
   <v>       0.88988570       0.33373628       0.70521569 </v>
   <v>       0.22322686       0.08375219       0.79435000 </v>
   <v>       0.11373755       0.16834263       0.29725937 </v>
   <v>       0.78042987       0.66817032       0.29716041 </v>
   <v>       0.88987207       0.58372872       0.79435357 </v>
   <v>       0.78022639       0.66853862       0.20800575 </v>
   <v>       0.88988939       0.58373942       0.70521586 </v>
   <v>       0.78033347       0.91825836       0.29729037 </v>
   <v>       0.88987037       0.83372724       0.79435407 </v>
   <v>       0.78035311       0.41825132       0.20791697 </v>
   <v>       0.44714451       0.91837219       0.20816158 </v>
   <v>       0.44694246       0.91825515       0.29730805 </v>
   <v>       0.22320219       0.58374786       0.70521641 </v>
   <v>       0.22322844       0.58375389       0.79435083 </v>
   <v>       0.11363405       0.91819361       0.29725573 </v>
   <v>       0.22322829       0.83375294       0.79435107 </v>
   <v>       0.11370908       0.91831770       0.20812967 </v>
   <v>       0.22319780       0.83374268       0.70521583 </v>
   <v>       0.11340483       0.66813814       0.29716605 </v>
   <v>       0.78028488       0.91836267       0.20814042 </v>
   <v>       0.44717305       0.16852557       0.29727401 </v>
   <v>       0.55653507       0.08373713       0.79434558 </v>
   <v>       0.44689227       0.16804968       0.20810702 </v>
   <v>       0.55656152       0.08374612       0.70520993 </v>
   <v>       0.44720935       0.41829064       0.29719922 </v>
   <v>       0.55653813       0.33373928       0.79434527 </v>
   <v>       0.44694078       0.41831893       0.20803877 </v>
   <v>       0.55656635       0.33375015       0.70521048 </v>
   <v>       0.22319830       0.33374433       0.70521658 </v>
   <v>       0.11384743       0.41827504       0.20804138 </v>
   <v>       0.44688947       0.66815923       0.29721965 </v>
   <v>       0.55653855       0.58373871       0.79434629 </v>
   <v>       0.44711833       0.66844319       0.20809778 </v>
   <v>       0.55656731       0.58375262       0.70521071 </v>
   <v>       0.22322673       0.33375275       0.79434934 </v>
   <v>       0.11367115       0.41831002       0.29717614 </v>
   <v>       0.55653681       0.83373897       0.79434655 </v>
   <v>       0.88988570       0.83373454       0.70521580 </v>
  </varray>
 </structure>
</modeling>
