basalPlane                              
           1
     9.570946    0.000000    0.000000
    -6.380628   11.051579    0.000000
     0.000000    0.000000   34.880263
   C    Cr   H    Mo   S 
  10   1  10  24  48
Direct configuration=     1
   0.58752831  0.05410521  0.42763385
   0.46154104  0.07929574  0.43565376
   0.69347278  0.09035387  0.45985497
   0.63233427  0.13851288  0.48847099
   0.48768506  0.13161832  0.47318553
   0.72174583  0.36845652  0.39461296
   0.81387751  0.43606075  0.45642225
   0.68457501  0.40831558  0.42997631
   0.92905601  0.41414753  0.43760754
   0.87313850  0.37239188  0.39977544
   0.69047129  0.24849239  0.43976808
   0.41085009  0.15929313  0.48772225
   0.58032563  0.41882438  0.43530914
   0.03693648  0.42162415  0.45068047
   0.82151016  0.46661557  0.48584732
   0.65023618  0.34279579  0.36847719
   0.36526414  0.06530108  0.41607084
   0.60444905  0.01878078  0.40071553
   0.80192942  0.08345855  0.46215147
   0.68296980  0.17045394  0.51683453
   0.93306685  0.34507173  0.37883372
   0.55555566  0.08333325  0.25000928
   0.55555566  0.33333325  0.25000928
   0.44444432  0.41666674  0.74999076
   0.55555566  0.58333325  0.25000928
   0.44444432  0.66666674  0.74999076
   0.55555566  0.83333325  0.25000928
   0.44444432  0.91666674  0.74999076
   0.88888899  0.33333325  0.25000928
   0.77777765  0.16666674  0.74999076
   0.77777765  0.41666674  0.74999076
   0.88888899  0.58333325  0.25000928
   0.77777765  0.66666674  0.74999076
   0.88888899  0.83333325  0.25000928
   0.77777765  0.91666674  0.74999076
   0.11111099  0.91666674  0.74999076
   0.88888899  0.08333325  0.25000928
   0.22222233  0.83333325  0.25000928
   0.44444432  0.16666674  0.74999076
   0.22222233  0.58333325  0.25000928
   0.11111099  0.41666674  0.74999076
   0.22222233  0.33333325  0.25000928
   0.22222233  0.08333325  0.25000928
   0.11111099  0.16666674  0.74999076
   0.11111099  0.66666674  0.74999076
   0.77777765  0.16666674  0.29487388
   0.88888899  0.08333325  0.79485533
   0.77777765  0.16666674  0.20514467
   0.88888899  0.08333325  0.70512613
   0.22222233  0.08333325  0.70512613
   0.11111099  0.16666674  0.20514467
   0.77777765  0.41666674  0.29487388
   0.88888899  0.33333325  0.79485533
   0.11111099  0.66666674  0.20514467
   0.55555566  0.83333325  0.70512613
   0.88888899  0.33333325  0.70512613
   0.22222233  0.08333325  0.79485533
   0.11111099  0.16666674  0.29487388
   0.77777765  0.66666674  0.29487388
   0.88888899  0.58333325  0.79485533
   0.77777765  0.66666674  0.20514467
   0.88888899  0.58333325  0.70512613
   0.77777765  0.91666674  0.29487388
   0.88888899  0.83333325  0.79485533
   0.77777765  0.41666674  0.20514467
   0.44444432  0.91666674  0.20514467
   0.44444432  0.91666674  0.29487388
   0.22222233  0.58333325  0.70512613
   0.22222233  0.58333325  0.79485533
   0.11111099  0.91666674  0.29487388
   0.22222233  0.83333325  0.79485533
   0.11111099  0.91666674  0.20514467
   0.22222233  0.83333325  0.70512613
   0.11111099  0.66666674  0.29487388
   0.77777765  0.91666674  0.20514467
   0.44444432  0.16666674  0.29487388
   0.55555566  0.08333325  0.79485533
   0.44444432  0.16666674  0.20514467
   0.55555566  0.08333325  0.70512613
   0.44444432  0.41666674  0.29487388
   0.55555566  0.33333325  0.79485533
   0.44444432  0.41666674  0.20514467
   0.55555566  0.33333325  0.70512613
   0.22222233  0.33333325  0.70512613
   0.11111099  0.41666674  0.20514467
   0.44444432  0.66666674  0.29487388
   0.55555566  0.58333325  0.79485533
   0.44444432  0.66666674  0.20514467
   0.55555566  0.58333325  0.70512613
   0.22222233  0.33333325  0.79485533
   0.11111099  0.41666674  0.29487388
   0.55555566  0.83333325  0.79485533
   0.88888899  0.83333325  0.70512613
Direct configuration=     2
   0.58750843  0.05411380  0.42764552
   0.46172837  0.07936151  0.43565368
   0.69338320  0.09043271  0.45983542
   0.63231927  0.13855178  0.48842972
   0.48784678  0.13166388  0.47314665
   0.72166808  0.36833136  0.39472954
   0.81386224  0.43593901  0.45640332
   0.68472632  0.40818635  0.42997071
   0.92888567  0.41403141  0.43756771
   0.87299293  0.37239333  0.39978700
   0.69048845  0.24861285  0.43973190
   0.41087855  0.15929826  0.48771420
   0.58032336  0.41880058  0.43530825
   0.03687100  0.42164055  0.45066065
   0.82153446  0.46661896  0.48585361
   0.65016257  0.34271834  0.36853127
   0.36529736  0.06529992  0.41604775
   0.60444846  0.01880148  0.40070107
   0.80188706  0.08346749  0.46215584
   0.68293797  0.17046733  0.51683127
   0.93300831  0.34508354  0.37879491
   0.55617017  0.08411898  0.25002648
   0.55621851  0.33411905  0.25001600
   0.44385225  0.41590054  0.74998684
   0.55618684  0.58411495  0.25001917
   0.44385151  0.66589893  0.74998687
   0.55615533  0.83410259  0.25002244
   0.44384954  0.91589701  0.74998690
   0.88944489  0.33411675  0.25001676
   0.77720600  0.16588931  0.74998773
   0.77720800  0.41589209  0.74998738
   0.88947055  0.58406501  0.25001970
   0.77720630  0.66588983  0.74998720
   0.88950175  0.83412167  0.25002087
   0.77720503  0.91588803  0.74998740
   0.11050587  0.91589512  0.74998703
   0.88950191  0.08408745  0.25002086
   0.22278764  0.83411442  0.25002143
   0.44385040  0.16589765  0.74998727
   0.22277149  0.58412763  0.25002434
   0.11050821  0.41589888  0.74998675
   0.22276106  0.33405609  0.25000995
   0.22277133  0.08411033  0.25002103
   0.11050574  0.16589608  0.74998714
   0.11050693  0.66589738  0.74998687
   0.77746231  0.16627168  0.29463809
   0.88918192  0.08371846  0.79459317
   0.77747993  0.16628870  0.20540971
   0.88918206  0.08371890  0.70539124
   0.22252168  0.08371952  0.70539111
   0.11082286  0.16629359  0.20541027
   0.77769173  0.41641844  0.29447326
   0.88918295  0.33371946  0.79459247
   0.11081200  0.66627961  0.20540630
   0.55585113  0.83372078  0.70539168
   0.88918338  0.33372051  0.70539183
   0.22252095  0.08371935  0.79459345
   0.11080993  0.16628258  0.29461204
   0.77746905  0.66627468  0.29461944
   0.88918194  0.58371879  0.79459270
   0.77748107  0.66627907  0.20540685
   0.88918347  0.58372078  0.70539193
   0.77746355  0.91627380  0.29461448
   0.88918262  0.83371866  0.79459279
   0.77747842  0.41627841  0.20540325
   0.44414720  0.91628089  0.20540846
   0.44415618  0.91628372  0.29462247
   0.22252345  0.58372183  0.70539183
   0.22252210  0.58372009  0.79459300
   0.11081288  0.91626751  0.29461220
   0.22252177  0.83372049  0.79459330
   0.11081641  0.91627980  0.20540843
   0.22252270  0.83372119  0.70539131
   0.11081350  0.66627659  0.29462094
   0.77747754  0.91628080  0.20540685
   0.44416458  0.16627011  0.29463402
   0.55585102  0.08371945  0.79459308
   0.44415343  0.16628554  0.20540954
   0.55585127  0.08371950  0.70539111
   0.44416845  0.41630068  0.29462730
   0.55585141  0.33372090  0.79459267
   0.44415082  0.41628054  0.20540933
   0.55585256  0.33372168  0.70539191
   0.22252323  0.33372179  0.70539178
   0.11081412  0.41628173  0.20540904
   0.44414629  0.66628231  0.29461148
   0.55585131  0.58372004  0.79459271
   0.44414697  0.66628089  0.20540682
   0.55585264  0.58372180  0.70539215
   0.22252228  0.33372094  0.79459299
   0.11081541  0.41628298  0.29462479
   0.55585066  0.83372002  0.79459298
   0.88918345  0.83371962  0.70539181
Direct configuration=     3
   0.58751001  0.05411312  0.42764460
   0.46171353  0.07935630  0.43565369
   0.69339029  0.09042647  0.45983697
   0.63232045  0.13854870  0.48843299
   0.48783398  0.13166027  0.47314973
   0.72167423  0.36834127  0.39472031
   0.81386345  0.43594864  0.45640482
   0.68471434  0.40819658  0.42997115
   0.92889916  0.41404060  0.43757087
   0.87300446  0.37239321  0.39978609
   0.69048709  0.24860331  0.43973476
   0.41087629  0.15929786  0.48771484
   0.58032354  0.41880246  0.43530832
   0.03687618  0.42163925  0.45066221
   0.82153253  0.46661869  0.48585312
   0.65016840  0.34272447  0.36852699
   0.36529473  0.06530001  0.41604958
   0.60444850  0.01879984  0.40070221
   0.80189042  0.08346678  0.46215550
   0.68294049  0.17046627  0.51683153
   0.93301294  0.34508261  0.37879798
   0.55612152  0.08405678  0.25002512
   0.55616604  0.33405683  0.25001547
   0.44389913  0.41596120  0.74998715
   0.55613686  0.58405306  0.25001839
   0.44389844  0.66595972  0.74998718
   0.55610785  0.83404168  0.25002139
   0.44389663  0.91595795  0.74998720
   0.88940088  0.33405472  0.25001617
   0.77725126  0.16595086  0.74998797
   0.77725310  0.41595342  0.74998765
   0.88942451  0.58400708  0.25001888
   0.77725154  0.66595134  0.74998749
   0.88945323  0.83405925  0.25001996
   0.77725037  0.91594968  0.74998767
   0.11055377  0.91595621  0.74998733
   0.88945339  0.08402774  0.25001994
   0.22274289  0.83405258  0.25002047
   0.44389742  0.16595854  0.74998754
   0.22272801  0.58406474  0.25002315
   0.11055593  0.41595967  0.74998707
   0.22271841  0.33399886  0.25000989
   0.22272787  0.08404881  0.25002010
   0.11055365  0.16595709  0.74998742
   0.11055475  0.66595829  0.74998718
   0.77748728  0.16630296  0.29465676
   0.88915873  0.08368796  0.79461393
   0.77750350  0.16631863  0.20538872
   0.88915886  0.08368837  0.70537025
   0.22249798  0.08368894  0.70537013
   0.11084567  0.16632313  0.20538924
   0.77769854  0.41643810  0.29450498
   0.88915968  0.33368888  0.79461328
   0.11083567  0.66631026  0.20538559
   0.55582774  0.83369010  0.70537065
   0.88916008  0.33368985  0.70537080
   0.22249731  0.08368878  0.79461419
   0.11083376  0.16631299  0.29463277
   0.77749348  0.66630572  0.29463958
   0.88915875  0.58368827  0.79461349
   0.77750455  0.66630976  0.20538609
   0.88916016  0.58369010  0.70537088
   0.77748841  0.91630491  0.29463502
   0.88915937  0.83368815  0.79461357
   0.77750211  0.41630916  0.20538278
   0.44417072  0.91631143  0.20538757
   0.44417900  0.91631404  0.29464237
   0.22249961  0.58369106  0.70537079
   0.22249837  0.58368946  0.79461376
   0.11083648  0.91629911  0.29463291
   0.22249806  0.83368983  0.79461405
   0.11083973  0.91631043  0.20538755
   0.22249892  0.83369048  0.70537031
   0.11083705  0.66630748  0.29464096
   0.77750130  0.91631136  0.20538609
   0.44418672  0.16630151  0.29465301
   0.55582764  0.08368888  0.79461384
   0.44417646  0.16631572  0.20538857
   0.55582786  0.08368892  0.70537013
   0.44419029  0.41632966  0.29464682
   0.55582799  0.33369021  0.79461347
   0.44417406  0.41631111  0.20538838
   0.55582906  0.33369093  0.70537087
   0.22249941  0.33369103  0.70537075
   0.11083762  0.41631222  0.20538811
   0.44416989  0.66631275  0.29463226
   0.55582790  0.58368942  0.79461350
   0.44417051  0.66631144  0.20538607
   0.55582913  0.58369104  0.70537109
   0.22249853  0.33369025  0.79461376
   0.11083881  0.41631336  0.29464451
   0.55582731  0.83368940  0.79461375
   0.88916013  0.83368903  0.70537078
Direct configuration=     4
   0.58751056  0.05411288  0.42764427
   0.46170829  0.07935446  0.43565369
   0.69339280  0.09042426  0.45983751
   0.63232087  0.13854762  0.48843414
   0.48782945  0.13165900  0.47315082
   0.72167641  0.36834478  0.39471705
   0.81386387  0.43595205  0.45640535
   0.68471010  0.40820020  0.42997131
   0.92890393  0.41404386  0.43757198
   0.87300853  0.37239317  0.39978576
   0.69048661  0.24859994  0.43973578
   0.41087550  0.15929771  0.48771506
   0.58032360  0.41880313  0.43530835
   0.03687802  0.42163879  0.45066277
   0.82153185  0.46661859  0.48585294
   0.65017046  0.34272664  0.36852548
   0.36529380  0.06530005  0.41605022
   0.60444852  0.01879926  0.40070262
   0.80189160  0.08346653  0.46215538
   0.68294138  0.17046590  0.51683162
   0.93301458  0.34508228  0.37879907
   0.55610432  0.08403478  0.25002463
   0.55614748  0.33403484  0.25001528
   0.44391570  0.41598265  0.74998726
   0.55611920  0.58403118  0.25001811
   0.44391503  0.66598122  0.74998729
   0.55609106  0.83402014  0.25002103
   0.44391328  0.91597949  0.74998731
   0.88938532  0.33403278  0.25001596
   0.77726726  0.16597263  0.74998806
   0.77726905  0.41597511  0.74998774
   0.88940823  0.58398659  0.25001859
   0.77726753  0.66597309  0.74998759
   0.88943608  0.83403718  0.25001963
   0.77726640  0.91597148  0.74998776
   0.11057071  0.91597781  0.74998743
   0.88943623  0.08400663  0.25001962
   0.22272706  0.83403071  0.25002013
   0.44391405  0.16598007  0.74998764
   0.22271264  0.58404250  0.25002273
   0.11057281  0.41598116  0.74998718
   0.22270333  0.33397862  0.25000988
   0.22271250  0.08402706  0.25001977
   0.11057060  0.16597867  0.74998752
   0.11057166  0.66597982  0.74998729
   0.77749611  0.16631402  0.29466336
   0.88915053  0.08367717  0.79462127
   0.77751183  0.16632921  0.20538131
   0.88915065  0.08367757  0.70536283
   0.22248960  0.08367812  0.70536271
   0.11085373  0.16633358  0.20538181
   0.77770094  0.41644505  0.29451620
   0.88915145  0.33367807  0.79462064
   0.11084404  0.66632110  0.20537826
   0.55581947  0.83367925  0.70536322
   0.88915184  0.33367901  0.70536336
   0.22248895  0.08367797  0.79462152
   0.11084219  0.16632375  0.29464010
   0.77750212  0.66631670  0.29464670
   0.88915054  0.58367748  0.79462085
   0.77751286  0.66632061  0.20537875
   0.88915191  0.58367925  0.70536344
   0.77749721  0.91631591  0.29464228
   0.88915115  0.83367736  0.79462092
   0.77751049  0.41632003  0.20537554
   0.44417904  0.91632224  0.20538019
   0.44418706  0.91632477  0.29464941
   0.22249118  0.58368018  0.70536336
   0.22248998  0.58367863  0.79462111
   0.11084483  0.91631029  0.29464024
   0.22248968  0.83367899  0.79462138
   0.11084798  0.91632126  0.20538017
   0.22249051  0.83367962  0.70536289
   0.11084538  0.66631840  0.29464804
   0.77750970  0.91632216  0.20537875
   0.44419456  0.16631261  0.29465972
   0.55581937  0.08367806  0.79462118
   0.44418460  0.16632639  0.20538116
   0.55581959  0.08367811  0.70536272
   0.44419801  0.41633991  0.29465372
   0.55581972  0.33367936  0.79462082
   0.44418227  0.41632192  0.20538097
   0.55582075  0.33368006  0.70536343
   0.22249098  0.33368015  0.70536332
   0.11084594  0.41632299  0.20538071
   0.44417823  0.66632351  0.29463960
   0.55581963  0.58367859  0.79462085
   0.44417883  0.66632224  0.20537873
   0.55582081  0.58368016  0.70536364
   0.22249013  0.33367940  0.79462111
   0.11084709  0.41632410  0.29465149
   0.55581905  0.83367857  0.79462109
   0.88915189  0.83367822  0.70536334
Direct configuration=     5
   0.58745986  0.05388082  0.42758812
   0.46128093  0.07922477  0.43555794
   0.69373274  0.09034929  0.45983880
   0.63246423  0.13862380  0.48852302
   0.48750117  0.13172117  0.47319770
   0.72128985  0.36812518  0.39450536
   0.81408829  0.43613769  0.45650111
   0.68409263  0.40840287  0.43009421
   0.92936061  0.41418557  0.43760970
   0.87338892  0.37240992  0.39968377
   0.69040530  0.24847913  0.43974130
   0.41101482  0.15926733  0.48768002
   0.58060539  0.41874145  0.43529228
   0.03675475  0.42163876  0.45062741
   0.82155466  0.46655792  0.48581503
   0.65022698  0.34270330  0.36864012
   0.36548903  0.06532143  0.41605976
   0.60444450  0.01885230  0.40070923
   0.80172555  0.08349071  0.46215591
   0.68285711  0.17044542  0.51678742
   0.93281002  0.34513232  0.37879882
   0.55599898  0.08389546  0.25003365
   0.55599864  0.33388535  0.25000471
   0.44402732  0.41612009  0.74998898
   0.55600082  0.58388976  0.25001988
   0.44402735  0.66612006  0.74998916
   0.55598486  0.83388747  0.25002181
   0.44402586  0.91611791  0.74998901
   0.88932955  0.33386449  0.24999604
   0.77737136  0.16611119  0.74998947
   0.77737365  0.41611415  0.74998927
   0.88936237  0.58393674  0.24998826
   0.77737312  0.66611316  0.74998934
   0.88931805  0.83389205  0.25001985
   0.77737145  0.91611169  0.74998937
   0.11069427  0.91611646  0.74999018
   0.88930902  0.08387796  0.25002463
   0.22262773  0.83388796  0.25002251
   0.44402570  0.16611762  0.74998920
   0.22262028  0.58390168  0.25002455
   0.11069592  0.41611913  0.74998988
   0.22261251  0.33384384  0.25001609
   0.22263666  0.08389756  0.25002619
   0.11069344  0.16611589  0.74999016
   0.11069538  0.66611835  0.74999012
   0.77754601  0.16638130  0.29459751
   0.88909720  0.08360541  0.79453784
   0.77755809  0.16639313  0.20547842
   0.88909663  0.08360582  0.70544347
   0.22243382  0.08361197  0.70544497
   0.11089681  0.16639803  0.20547000
   0.77787347  0.41658969  0.29437829
   0.88909872  0.33360710  0.79453728
   0.11089264  0.66639387  0.20546926
   0.55576802  0.83361298  0.70544507
   0.88909833  0.33360810  0.70544383
   0.22243359  0.08361156  0.79453625
   0.11088472  0.16639081  0.29456184
   0.77755585  0.66638109  0.29457122
   0.88909807  0.58360662  0.79453771
   0.77757104  0.66639087  0.20547149
   0.88909963  0.58360942  0.70544357
   0.77753998  0.91637583  0.29456475
   0.88909768  0.83360565  0.79453781
   0.77756168  0.41638482  0.20544841
   0.44423233  0.91639541  0.20547739
   0.44424214  0.91639420  0.29457441
   0.22243640  0.58361590  0.70544508
   0.22243502  0.58361284  0.79453609
   0.11089235  0.91637483  0.29456230
   0.22243445  0.83361242  0.79453640
   0.11090001  0.91639491  0.20547209
   0.22243486  0.83361364  0.70544461
   0.11088767  0.66639095  0.29457667
   0.77755791  0.91638708  0.20547051
   0.44426530  0.16638561  0.29459084
   0.55576692  0.08361122  0.79453616
   0.44423925  0.16639266  0.20547908
   0.55576785  0.08361165  0.70544500
   0.44426378  0.41641238  0.29457663
   0.55576789  0.33361290  0.79453575
   0.44423863  0.41638661  0.20547677
   0.55576967  0.33361401  0.70544574
   0.22243561  0.33361471  0.70544547
   0.11089241  0.41639772  0.20547557
   0.44422799  0.66639071  0.29455739
   0.55576782  0.58361238  0.79453607
   0.44422303  0.66638786  0.20547410
   0.55577019  0.58361534  0.70544550
   0.22243506  0.33361336  0.79453582
   0.11088945  0.41638814  0.29457529
   0.55576682  0.83361177  0.79453629
   0.88909821  0.83360697  0.70544343
Direct configuration=     6
   0.58749141  0.05402520  0.42762305
   0.46154683  0.07930546  0.43561751
   0.69352124  0.09039594  0.45983800
   0.63237504  0.13857640  0.48846772
   0.48770542  0.13168249  0.47316853
   0.72153036  0.36826181  0.39463707
   0.81394866  0.43602219  0.45644153
   0.68447681  0.40827677  0.43001774
   0.92907647  0.41409740  0.43758623
   0.87315225  0.37239950  0.39974723
   0.69045589  0.24855430  0.43973786
   0.41092814  0.15928624  0.48770182
   0.58043007  0.41877983  0.43530228
   0.03683144  0.42163878  0.45064941
   0.82154047  0.46659567  0.48583862
   0.65019182  0.34271782  0.36856879
   0.36536756  0.06530813  0.41605383
   0.60444700  0.01881930  0.40070512
   0.80182887  0.08347566  0.46215558
   0.68290954  0.17045816  0.51681492
   0.93293729  0.34510118  0.37879897
   0.55606452  0.08398214  0.25002804
   0.55609125  0.33397836  0.25001129
   0.44395787  0.41603458  0.74998791
   0.55607447  0.58397775  0.25001878
   0.44395747  0.66603367  0.74998800
   0.55605094  0.83397002  0.25002132
   0.44395582  0.91603179  0.74998795
   0.88936425  0.33396920  0.25000843
   0.77730659  0.16602498  0.74998859
   0.77730857  0.41602764  0.74998832
   0.88939090  0.58396776  0.25000713
   0.77730743  0.66602601  0.74998825
   0.88939149  0.83398234  0.25001971
   0.77730609  0.91602445  0.74998837
   0.11061739  0.91603019  0.74998847
   0.88938817  0.08395802  0.25002151
   0.22268953  0.83397677  0.25002103
   0.44395623  0.16603204  0.74998823
   0.22267774  0.58398930  0.25002341
   0.11061932  0.41603329  0.74998820
   0.22266902  0.33392770  0.25001222
   0.22268384  0.08397813  0.25002220
   0.11061701  0.16603051  0.74998852
   0.11061840  0.66603216  0.74998836
   0.77751496  0.16633944  0.29463848
   0.88913038  0.08365006  0.79458975
   0.77752931  0.16635336  0.20541800
   0.88913024  0.08365046  0.70539330
   0.22246852  0.08365313  0.70539379
   0.11087001  0.16635793  0.20541513
   0.77776613  0.41649970  0.29446409
   0.88913153  0.33365125  0.79458915
   0.11086240  0.66634859  0.20541264
   0.55580003  0.83365421  0.70539414
   0.88913162  0.33365222  0.70539376
   0.22246804  0.08365288  0.79458930
   0.11085826  0.16634908  0.29461053
   0.77752242  0.66634102  0.29461818
   0.88913072  0.58365071  0.79458944
   0.77753484  0.66634716  0.20541379
   0.88913216  0.58365287  0.70539372
   0.77751337  0.91633855  0.29461299
   0.88913095  0.83365027  0.79458952
   0.77752983  0.41634451  0.20540307
   0.44419917  0.91634988  0.20541691
   0.44420787  0.91635100  0.29462108
   0.22247048  0.58365590  0.70539423
   0.22246921  0.58365377  0.79458899
   0.11086278  0.91633468  0.29461079
   0.22246881  0.83365384  0.79458927
   0.11086764  0.91634909  0.20541490
   0.22246948  0.83365469  0.70539376
   0.11086136  0.66634581  0.29462108
   0.77752792  0.91634669  0.20541342
   0.44422128  0.16634019  0.29463370
   0.55579955  0.08365281  0.79458906
   0.44420525  0.16635143  0.20541816
   0.55580004  0.08365300  0.70539380
   0.44422286  0.41636729  0.29462460
   0.55580013  0.33365425  0.79458868
   0.44420356  0.41634636  0.20541717
   0.55580145  0.33365510  0.70539453
   0.22247006  0.33365543  0.70539435
   0.11086349  0.41635123  0.20541655
   0.44419703  0.66634890  0.29460854
   0.55580005  0.58365357  0.79458882
   0.44419553  0.66634703  0.20541476
   0.55580169  0.58365567  0.70539457
   0.22246932  0.33365445  0.79458889
   0.11086309  0.41634830  0.29462270
   0.55579931  0.83365333  0.79458905
   0.88913161  0.83365130  0.70539360
Direct configuration=     7
   0.58735280  0.05388944  0.42764693
   0.46159818  0.07922323  0.43563313
   0.69333423  0.09031996  0.45983316
   0.63231362  0.13852421  0.48843581
   0.48770368  0.13161750  0.47313130
   0.72165977  0.36829853  0.39469767
   0.81405317  0.43608496  0.45641436
   0.68472144  0.40829197  0.43003711
   0.92904209  0.41422748  0.43753830
   0.87314033  0.37253149  0.39974018
   0.69033770  0.24850098  0.43974308
   0.41089766  0.15931992  0.48769744
   0.58026837  0.41876504  0.43531995
   0.03695331  0.42165532  0.45063971
   0.82161431  0.46659736  0.48586179
   0.64990474  0.34255139  0.36857089
   0.36533905  0.06529506  0.41600703
   0.60446724  0.01881887  0.40067190
   0.80189773  0.08348797  0.46215859
   0.68291450  0.17050345  0.51682340
   0.93287912  0.34509656  0.37874132
   0.55591136  0.08378126  0.25004084
   0.55589111  0.33376533  0.25000111
   0.44411728  0.41623522  0.74998972
   0.55590803  0.58377151  0.25002285
   0.44411766  0.66623581  0.74998995
   0.55589426  0.83377268  0.25002402
   0.44411615  0.91623336  0.74998973
   0.88926922  0.33373616  0.24998820
   0.77745905  0.16622756  0.74998976
   0.77746147  0.41623053  0.74998959
   0.88930851  0.58387160  0.24997495
   0.77746136  0.66623008  0.74998974
   0.88922294  0.83377495  0.25002228
   0.77745931  0.91622838  0.74998971
   0.11078605  0.91622959  0.74999065
   0.88921047  0.08376724  0.25002912
   0.22254451  0.83376943  0.25002598
   0.44411578  0.16623288  0.74998988
   0.22253302  0.58378382  0.25002804
   0.11078757  0.41623209  0.74999034
   0.22253546  0.33373581  0.25002128
   0.22256077  0.08378378  0.25003106
   0.11078511  0.16622875  0.74999060
   0.11078740  0.66623166  0.74999064
   0.77759418  0.16644393  0.29459430
   0.88905372  0.08354606  0.79452807
   0.77759405  0.16644102  0.20549368
   0.88905371  0.08354696  0.70545301
   0.22238985  0.08355530  0.70545500
   0.11093529  0.16645156  0.20548324
   0.77797215  0.41668139  0.29434680
   0.88905544  0.33354800  0.79452757
   0.11095050  0.66646092  0.20548026
   0.55572551  0.83355678  0.70545461
   0.88905562  0.33354960  0.70545326
   0.22238991  0.08355479  0.79452585
   0.11092440  0.16644750  0.29455431
   0.77760425  0.66643733  0.29456281
   0.88905512  0.58354775  0.79452810
   0.77761208  0.66645569  0.20548311
   0.88905761  0.58355156  0.70545286
   0.77758014  0.91642975  0.29455719
   0.88905412  0.83354641  0.79452821
   0.77760728  0.41644154  0.20545010
   0.44427813  0.91645754  0.20549443
   0.44428608  0.91645037  0.29456839
   0.22239295  0.58356023  0.70545484
   0.22239144  0.58355639  0.79452584
   0.11093420  0.91643151  0.29455450
   0.22239070  0.83355540  0.79452615
   0.11094653  0.91645799  0.20548670
   0.22239085  0.83355687  0.70545437
   0.11092538  0.66645167  0.29457029
   0.77760055  0.91644503  0.20548486
   0.44432204  0.16645167  0.29458678
   0.55572369  0.08355462  0.79452586
   0.44428300  0.16644529  0.20549586
   0.55572509  0.08355543  0.70545473
   0.44431615  0.41646961  0.29456858
   0.55572491  0.33355625  0.79452546
   0.44428094  0.41644267  0.20549166
   0.55572700  0.33355769  0.70545541
   0.22239162  0.33355809  0.70545540
   0.11094426  0.41646020  0.20548919
   0.44427144  0.66644803  0.29454807
   0.55572498  0.58355612  0.79452593
   0.44426334  0.66644484  0.20548949
   0.55572789  0.58355986  0.70545497
   0.22239120  0.33355644  0.79452544
   0.11092730  0.41644193  0.29456730
   0.55572382  0.83355518  0.79452612
   0.88905538  0.83354845  0.70545271
Direct configuration=     8
   0.58741230  0.05394772  0.42763668
   0.46157614  0.07925853  0.43562643
   0.69341450  0.09035257  0.45983524
   0.63233998  0.13854661  0.48844951
   0.48770443  0.13164539  0.47314728
   0.72160422  0.36828277  0.39467166
   0.81400831  0.43605802  0.45642603
   0.68461643  0.40828544  0.43002880
   0.92905685  0.41417164  0.43755888
   0.87314544  0.37247483  0.39974321
   0.69038844  0.24852387  0.43974084
   0.41091074  0.15930546  0.48769932
   0.58033778  0.41877139  0.43531236
   0.03690100  0.42164822  0.45064388
   0.82158261  0.46659664  0.48585184
   0.65002797  0.34262283  0.36856999
   0.36535128  0.06530067  0.41602712
   0.60445855  0.01881906  0.40068616
   0.80186817  0.08348269  0.46215730
   0.68291237  0.17048401  0.51681976
   0.93290409  0.34509854  0.37876607
   0.55597711  0.08386749  0.25003535
   0.55597702  0.33385678  0.25000548
   0.44404885  0.41614909  0.74998894
   0.55597948  0.58386004  0.25002110
   0.44404890  0.66614904  0.74998911
   0.55596152  0.83385739  0.25002286
   0.44404732  0.91614684  0.74998897
   0.88931002  0.33383619  0.24999689
   0.77739361  0.16614060  0.74998926
   0.77739584  0.41614344  0.74998905
   0.88934388  0.58391288  0.24998876
   0.77739528  0.66614248  0.74998910
   0.88929529  0.83386398  0.25002118
   0.77739354  0.91614084  0.74998913
   0.11071365  0.91614400  0.74998972
   0.88928675  0.08384914  0.25002586
   0.22260676  0.83385844  0.25002386
   0.44404729  0.16614667  0.74998917
   0.22259514  0.58387202  0.25002605
   0.11071534  0.41614675  0.74998942
   0.22259279  0.33381818  0.25001739
   0.22261360  0.08386721  0.25002726
   0.11071295  0.16614365  0.74998971
   0.11071485  0.66614602  0.74998966
   0.77756017  0.16639907  0.29461327
   0.88908663  0.08359071  0.79455454
   0.77756626  0.16640339  0.20546119
   0.88908656  0.08359139  0.70542738
   0.22242362  0.08359729  0.70542873
   0.11090727  0.16641136  0.20545400
   0.77788371  0.41660340  0.29439715
   0.88908810  0.33359232  0.79455401
   0.11091269  0.66641270  0.20545124
   0.55575750  0.83359860  0.70542865
   0.88908824  0.33359365  0.70542772
   0.22242345  0.08359690  0.79455309
   0.11089601  0.16640526  0.29457844
   0.77756912  0.66639599  0.29458658
   0.88908757  0.58359194  0.79455443
   0.77757892  0.66640910  0.20545335
   0.88908961  0.58359505  0.70542747
   0.77755147  0.91639060  0.29458114
   0.88908710  0.83359099  0.79455453
   0.77757403  0.41639989  0.20542991
   0.44424424  0.91641133  0.20546115
   0.44425251  0.91640771  0.29459101
   0.22242623  0.58360129  0.70542883
   0.22242483  0.58359819  0.79455295
   0.11090354  0.91638994  0.29457866
   0.22242423  0.83359765  0.79455324
   0.11091266  0.91641124  0.20545588
   0.22242460  0.83359886  0.70542836
   0.11089790  0.66640623  0.29459209
   0.77756937  0.91640282  0.20545419
   0.44427879  0.16640382  0.29460692
   0.55575626  0.08359677  0.79455299
   0.44424963  0.16640500  0.20546250
   0.55575726  0.08359731  0.70542858
   0.44427610  0.41642569  0.29459263
   0.55575720  0.33359832  0.79455260
   0.44424773  0.41640133  0.20545968
   0.55575896  0.33359951  0.70542928
   0.22242529  0.33359987  0.70542919
   0.11090959  0.41641342  0.20545801
   0.44423950  0.66640547  0.29457403
   0.55575721  0.58359795  0.79455292
   0.44423424  0.66640285  0.20545741
   0.55575957  0.58360099  0.70542904
   0.22242474  0.33359851  0.79455268
   0.11089974  0.41640174  0.29459108
   0.55575623  0.83359731  0.79455313
   0.88908810  0.83359260  0.70542733
Direct configuration=     9
   0.58737691  0.05386338  0.42762767
   0.46149600  0.07917709  0.43562245
   0.69335066  0.09027609  0.45984228
   0.63227755  0.13850574  0.48844580
   0.48769192  0.13161702  0.47314536
   0.72156965  0.36833862  0.39469981
   0.81405214  0.43611353  0.45643129
   0.68465561  0.40828233  0.43000591
   0.92919032  0.41425329  0.43754397
   0.87314740  0.37251404  0.39972989
   0.69040138  0.24854029  0.43973623
   0.41089392  0.15931625  0.48769353
   0.58031268  0.41876267  0.43532506
   0.03690106  0.42165691  0.45062786
   0.82164255  0.46660080  0.48586083
   0.64990562  0.34254285  0.36858191
   0.36537258  0.06529586  0.41600753
   0.60445837  0.01882125  0.40067886
   0.80187646  0.08349010  0.46215598
   0.68290046  0.17049929  0.51681669
   0.93286976  0.34511238  0.37873929
   0.55598397  0.08387115  0.25004557
   0.55598406  0.33385418  0.25000714
   0.44404984  0.41615312  0.74998738
   0.55598556  0.58385581  0.25002722
   0.44404968  0.66615287  0.74998754
   0.55596071  0.83385442  0.25002879
   0.44404774  0.91615018  0.74998743
   0.88932778  0.33383296  0.24999570
   0.77739348  0.16614011  0.74998815
   0.77739606  0.41614332  0.74998788
   0.88937162  0.58393973  0.24998446
   0.77739523  0.66614209  0.74998790